Title
55513
    1DOPE     N    1   4.015   3.170   7.298  0.1597 -0.3876  0.8484
    1DOPE   HN1    2   4.028   3.149   7.399 -3.1942 -0.7636  1.3167
    1DOPE   HN2    3   4.043   3.088   7.240 -1.0836 -0.4850  0.3603
    1DOPE   HN3    4   4.079   3.250   7.281 -1.1220  0.5043  0.0342
    1DOPE   C12    5   3.871   3.207   7.283  0.2376 -0.4135  0.4258
    1DOPE  H12A    6   3.812   3.149   7.357 -2.2062  2.1556  0.6674
    1DOPE  H12B    7   3.851   3.185   7.176  2.5507  1.1564 -0.4077
    1DOPE   C11    8   3.846   3.355   7.304 -0.2682  0.1339  0.2471
    1DOPE  H11A    9   3.869   3.376   7.411  0.1208 -0.8079  0.3494
    1DOPE  H11B   10   3.738   3.379   7.286 -0.1044 -0.1972 -1.3418
    1DOPE     P   11   3.922   3.571   7.193  0.2293  0.2676 -0.6498
    1DOPE   O13   12   4.050   3.638   7.152  0.0669 -0.2635 -0.2800
    1DOPE   O14   13   3.837   3.622   7.298  0.0453 -0.3279  0.1497
    1DOPE   O11   14   3.837   3.565   7.060  0.1456  0.0471  0.2747
    1DOPE   O12   15   3.949   3.420   7.221 -0.1963 -0.2985  0.5735
    1DOPE    C1   16   3.842   3.451   6.985  0.3431 -0.1833 -0.0389
    1DOPE    HA   17   3.782   3.473   6.894  0.1867  0.6746  0.2590
    1DOPE    HB   18   3.790   3.368   7.039 -0.4202 -0.9302 -1.8416
    1DOPE    C2   19   3.983   3.409   6.929  0.4475  0.4870  0.2538
    1DOPE    HS   20   4.050   3.382   7.014  1.1979  0.5104 -0.3171
    1DOPE   O21   21   4.033   3.506   6.838  0.5918  0.1515  0.2854
    1DOPE   C21   22   4.166   3.520   6.829  0.7071  0.0583  0.5932
    1DOPE   O22   23   4.246   3.470   6.908  0.2743  0.0621 -0.0173
    1DOPE   C22   24   4.206   3.600   6.700  0.3975  0.3806 -0.5419
    1DOPE   H2R   25   4.136   3.687   6.706  2.2202  1.9408 -0.8282
    1DOPE   H2S   26   4.184   3.538   6.610  0.0668  0.3454 -0.4385
    1DOPE    C3   27   3.952   3.281   6.840  0.0919  0.2726 -0.1799
    1DOPE    HX   28   3.867   3.301   6.772 -0.8936 -0.0361  0.9367
    1DOPE    HY   29   3.926   3.197   6.907 -0.4041  0.8588  0.3739
    1DOPE   O31   30   4.070   3.253   6.761 -0.0009 -0.3229  0.3828
    1DOPE   C31   31   4.084   3.134   6.709  0.0808  0.2433  0.5505
    1DOPE   O32   32   4.009   3.038   6.704  0.0177  0.1177 -0.1555
    1DOPE   C32   33   4.227   3.134   6.651 -0.4887 -0.2709  0.0112
    1DOPE   H2X   34   4.244   3.230   6.597 -1.8971 -1.0263 -1.9068
    1DOPE   H2Y   35   4.296   3.130   6.738  1.2503 -1.7052 -1.3613
    1DOPE   C23   36   4.361   3.643   6.702  0.8533 -0.0950  0.1387
    1DOPE   H3R   37   4.425   3.553   6.706  0.7776 -0.1007  1.7485
    1DOPE   H3S   38   4.383   3.716   6.783  2.0356 -0.3774  0.0846
    1DOPE   C24   39   4.395   3.711   6.570 -0.1010  0.2987 -0.7470
    1DOPE   H4R   40   4.314   3.783   6.543 -2.0235 -2.3048 -2.4217
    1DOPE   H4S   41   4.392   3.646   6.480 -0.9176  1.8066 -1.8812
    1DOPE   C25   42   4.536   3.776   6.567 -0.5535 -0.0765 -0.0474
    1DOPE   H5R   43   4.548   3.850   6.649 -0.9610  2.8133 -2.4326
    1DOPE   H5S   44   4.558   3.835   6.476  2.0308  0.8483  1.0639
    1DOPE   C26   45   4.660   3.674   6.572 -0.2424  0.4978 -0.1961
    1DOPE   H6R   46   4.652   3.627   6.472 -1.5544  0.0346  0.1015
    1DOPE   H6S   47   4.636   3.598   6.649  0.8321 -0.6162 -0.9386
    1DOPE   C27   48   4.795   3.745   6.588 -0.0847  1.3227 -0.6615
    1DOPE   H7R   49   4.805   3.759   6.697  0.8211  0.2558 -0.5929
    1DOPE   H7S   50   4.789   3.848   6.547  2.7035  1.1297 -1.7536
    1DOPE   C28   51   4.909   3.670   6.526  0.3000  0.3388 -0.0882
    1DOPE   H8R   52   4.916   3.705   6.421  0.7324  2.1435  0.5156
    1DOPE   H8S   53   4.886   3.561   6.516  0.1488  0.5015 -1.7320
    1DOPE   C29   54   5.031   3.689   6.606 -0.4409  0.8359 -0.1278
    1DOPE   H9R   55   5.043   3.634   6.700  0.5334  0.3638 -0.5143
    1DOPE  C210   56   5.144   3.768   6.578  0.4944  0.0769  0.4893
    1DOPE  H10R   57   5.233   3.752   6.641  0.0335 -1.4924  0.7699
    1DOPE  C211   58   5.159   3.855   6.454 -0.5250  0.1266  0.1450
    1DOPE  H11R   59   5.094   3.944   6.458  0.3322  0.7330  1.8411
    1DOPE  H11S   60   5.128   3.796   6.366  0.0454 -1.5734  1.0338
    1DOPE  C212   61   5.306   3.892   6.423  0.3091 -0.0163 -0.0673
    1DOPE  H12R   62   5.379   3.812   6.443  0.0099  0.1522  1.9272
    1DOPE  H12S   63   5.328   3.982   6.486  0.5682  0.4658 -0.8360
    1DOPE  C213   64   5.304   3.935   6.271 -0.2769  0.4280 -0.4270
    1DOPE  H13R   65   5.221   4.009   6.263 -0.2847  0.4260 -0.3472
    1DOPE  H13S   66   5.306   3.856   6.192  5.2539  1.7422 -2.0041
    1DOPE  C214   67   5.436   4.008   6.242  0.0369 -0.3445  0.4238
    1DOPE  H14R   68   5.465   4.073   6.327 -1.8962  1.0989  0.0280
    1DOPE  H14S   69   5.425   4.079   6.158 -1.3567 -0.5715  0.3863
    1DOPE  C215   70   5.555   3.909   6.208  0.6805 -0.2395 -0.2026
    1DOPE  H15R   71   5.521   3.861   6.114  0.8277 -1.6704  0.4602
    1DOPE  H15S   72   5.560   3.832   6.287  0.2943 -1.1120 -1.0036
    1DOPE  C216   73   5.686   3.977   6.185 -0.2579  0.3386 -0.5966
    1DOPE  H16R   74   5.683   4.057   6.108 -0.3744 -0.3054 -1.2697
    1DOPE  H16S   75   5.766   3.907   6.151  2.0739  2.5643 -0.0769
    1DOPE  C217   76   5.738   4.030   6.325  0.2683 -0.0162  0.0121
    1DOPE  H17R   77   5.718   3.949   6.399  0.8873  0.3175  0.5487
    1DOPE  H17S   78   5.684   4.123   6.353  0.4138  0.0153  0.1902
    1DOPE  C218   79   5.883   4.052   6.322 -0.0035 -0.2311 -0.1009
    1DOPE  H18R   80   5.920   4.135   6.259  0.3788 -2.7592 -3.5014
    1DOPE  H18S   81   5.931   3.959   6.283 -1.6442 -0.3060 -2.1297
    1DOPE  H18T   82   5.920   4.070   6.425 -0.9442 -0.5852  0.3060
    1DOPE   C33   83   4.269   3.020   6.563 -0.4087 -0.3639 -0.5977
    1DOPE   H3X   84   4.228   2.929   6.613  2.0657 -0.4431  1.4906
    1DOPE   H3Y   85   4.377   2.995   6.560 -0.3773 -0.1323 -2.5685
    1DOPE   C34   86   4.204   3.028   6.419 -1.3416 -0.1507 -0.0447
    1DOPE   H4X   87   4.106   3.080   6.427 -0.0428  2.3957  0.1336
    1DOPE   H4Y   88   4.272   3.101   6.370 -0.5052  0.6251  2.1510
    1DOPE   C35   89   4.190   2.891   6.350  0.3854 -0.2483 -0.2652
    1DOPE   H5X   90   4.115   2.833   6.408  0.1481  1.7815  1.6034
    1DOPE   H5Y   91   4.293   2.848   6.353  0.5108  0.0110 -0.7406
    1DOPE   C36   92   4.161   2.910   6.207  0.4100 -0.4951 -0.1304
    1DOPE   H6X   93   4.157   2.809   6.161  1.9287 -1.6534  2.0959
    1DOPE   H6Y   94   4.231   2.979   6.155 -1.0942  0.9193 -0.3747
    1DOPE   C37   95   4.023   2.981   6.171 -0.6776 -0.0039 -0.4147
    1DOPE   H7X   96   3.939   2.911   6.192 -0.2115 -0.3769  0.2294
    1DOPE   H7Y   97   3.999   3.072   6.230  0.0587  0.2978 -0.5773
    1DOPE   C38   98   4.001   3.011   6.017 -0.1218 -0.5168  0.2817
    1DOPE   H8X   99   3.910   2.964   5.974  0.3576 -1.9097  0.7203
    1DOPE   H8Y  100   4.082   2.959   5.960  0.3074  0.9754 -0.5150
    1DOPE   C39  101   4.000   3.161   5.987 -1.1017 -0.8459  0.0623
    1DOPE   H9X  102   4.076   3.209   6.050 -2.0233 -1.6065  1.8108
    1DOPE  C310  103   3.910   3.232   5.909 -0.6578 -0.1715 -0.0581
    1DOPE  H10X  104   3.913   3.342   5.908 -2.2728 -0.0808  1.1902
    1DOPE  C311  105   3.798   3.170   5.834 -0.3932  0.5702 -0.3397
    1DOPE  H11X  106   3.801   3.205   5.729 -2.7640 -1.1040 -1.0609
    1DOPE  H11Y  107   3.802   3.059   5.825 -0.5313  0.5842 -0.5799
    1DOPE  C312  108   3.673   3.205   5.916 -0.4174  0.4459  0.0856
    1DOPE  H12X  109   3.591   3.174   5.848 -0.2585 -0.2665  0.2161
    1DOPE  H12Y  110   3.657   3.315   5.912 -1.6542  0.3623  1.7303
    1DOPE  C313  111   3.654   3.150   6.056 -0.1227  0.0556 -0.8513
    1DOPE  H13X  112   3.626   3.043   6.049  2.4015 -0.7056 -0.5265
    1DOPE  H13Y  113   3.746   3.160   6.118 -1.1406 -0.5399  0.8135
    1DOPE  C314  114   3.552   3.238   6.136  0.4844  1.2778 -0.3802
    1DOPE  H14X  115   3.449   3.204   6.113  0.7504  0.1379  0.0106
    1DOPE  H14Y  116   3.562   3.344   6.105  0.0776  1.1209 -1.0691
    1DOPE  C315  117   3.578   3.222   6.288 -0.1822 -0.3059 -0.0019
    1DOPE  H15X  118   3.486   3.269   6.332 -0.7442  0.3522 -1.7976
    1DOPE  H15Y  119   3.671   3.274   6.319  0.1971  0.0891 -1.7464
    1DOPE  C316  120   3.580   3.079   6.344 -0.2346  0.3405 -0.2838
    1DOPE  H16X  121   3.685   3.044   6.339 -0.7910 -2.0891  2.3643
    1DOPE  H16Y  122   3.512   3.006   6.294  1.2797 -1.1178 -0.2787
    1DOPE  C317  123   3.576   3.079   6.494  0.2743  0.0988 -0.0641
    1DOPE  H17X  124   3.602   2.977   6.528  2.7951  0.3359 -1.0365
    1DOPE  H17Y  125   3.659   3.138   6.538 -0.0031  1.0782 -0.8103
    1DOPE  C318  126   3.449   3.122   6.564 -0.3042 -0.0506 -0.0731
    1DOPE  H18X  127   3.472   3.138   6.672  1.4670  0.7872 -0.5416
    1DOPE  H18Y  128   3.398   3.208   6.517 -0.5469  0.3838  0.9412
    1DOPE  H18Z  129   3.378   3.036   6.567  1.2650 -1.3981  1.0473
    2DOPE     N  130   5.574   4.209   7.220 -0.1264 -0.0624 -0.7283
    2DOPE   HN1  131   5.667   4.242   7.251  0.7486 -1.2818 -1.8943
    2DOPE   HN2  132   5.580   4.119   7.167 -0.2408 -1.8743  2.1066
    2DOPE   HN3  133   5.540   4.288   7.162 -1.1293  0.0697  0.0079
    2DOPE   C12  134   5.469   4.188   7.326 -0.3617 -0.4806 -0.1413
    2DOPE  H12A  135   5.384   4.247   7.287 -0.1697 -0.9103 -1.2357
    2DOPE  H12B  136   5.514   4.214   7.425 -0.1200  1.3795 -0.7008
    2DOPE   C11  137   5.415   4.041   7.320  0.2449 -0.0819  0.1614
    2DOPE  H11A  138   5.477   3.959   7.361 -0.3442 -0.5451  0.1489
    2DOPE  H11B  139   5.391   4.005   7.218 -0.3389 -1.8932  0.8962
    2DOPE     P  140   5.150   4.035   7.344 -0.0830 -0.1412  0.4915
    2DOPE   O13  141   5.068   4.123   7.430  0.1839 -0.0566 -0.0229
    2DOPE   O14  142   5.100   3.899   7.324 -0.7611 -0.2671 -0.1292
    2DOPE   O11  143   5.160   4.097   7.196 -0.0671  0.0546 -0.0514
    2DOPE   O12  144   5.299   4.043   7.400 -0.1202 -0.0703 -0.2740
    2DOPE    C1  145   5.042   4.129   7.129  0.2861  0.2487  1.0862
    2DOPE    HA  146   4.951   4.080   7.169 -1.7271  0.5361 -2.6878
    2DOPE    HB  147   5.052   4.082   7.030  2.4871  0.8070  0.9984
    2DOPE    C2  148   5.004   4.284   7.120  0.1882 -0.3394 -0.3440
    2DOPE    HS  149   4.964   4.316   7.218  1.3699  0.3594 -0.0752
    2DOPE   O21  150   4.912   4.319   7.011  0.6480  0.1195  0.5385
    2DOPE   C21  151   4.794   4.263   7.028  0.0812 -0.3968  0.4306
    2DOPE   O22  152   4.751   4.219   7.131  0.8332 -0.6083 -0.2596
    2DOPE   C22  153   4.725   4.260   6.880  0.2428 -0.1472 -0.2082
    2DOPE   H2R  154   4.806   4.270   6.805 -0.7165 -0.8940 -1.3825
    2DOPE   H2S  155   4.660   4.350   6.870  1.5264  0.6666 -1.7645
    2DOPE    C3  156   5.134   4.370   7.098 -0.3497  0.2487 -0.0253
    2DOPE    HX  157   5.187   4.331   7.008  0.5951  0.8440  0.2624
    2DOPE    HY  158   5.197   4.356   7.188  1.2890 -0.7809 -1.2846
    2DOPE   O31  159   5.106   4.512   7.071  0.0447 -0.5986  0.7765
    2DOPE   C31  160   5.172   4.575   6.975 -0.2960 -0.1667  0.0592
    2DOPE   O32  161   5.254   4.529   6.902 -0.3315  0.1902 -0.0967
    2DOPE   C32  162   5.137   4.721   6.986 -0.5906  0.1987 -0.3072
    2DOPE   H2X  163   5.058   4.749   6.913 -0.2496 -0.4041 -0.9157
    2DOPE   H2Y  164   5.100   4.748   7.087 -0.3533  1.6880 -0.5818
    2DOPE   C23  165   4.634   4.136   6.857  0.0495  0.0760  0.3171
    2DOPE   H3R  166   4.553   4.140   6.933 -0.8918  0.8136 -0.6854
    2DOPE   H3S  167   4.675   4.034   6.871 -2.2338 -0.9184  0.2520
    2DOPE   C24  168   4.574   4.132   6.715  0.4083  0.0773  0.1316
    2DOPE   H4R  169   4.520   4.227   6.695  1.0126  0.3865 -0.0556
    2DOPE   H4S  170   4.507   4.044   6.722  1.1839 -0.5512 -0.2016
    2DOPE   C25  171   4.680   4.109   6.612  0.3058  0.5772  0.3016
    2DOPE   H5R  172   4.637   4.036   6.540 -1.2250 -0.9902  2.6618
    2DOPE   H5S  173   4.776   4.068   6.649  0.7830 -2.0684 -3.3123
    2DOPE   C26  174   4.721   4.247   6.542 -0.6527 -0.5888 -0.7303
    2DOPE   H6R  175   4.746   4.322   6.619 -1.2634  0.1190 -1.2047
    2DOPE   H6S  176   4.637   4.293   6.486 -2.1832  1.4012  2.8868
    2DOPE   C27  177   4.839   4.237   6.445 -0.1154  0.3303  0.3046
    2DOPE   H7R  178   4.931   4.218   6.503 -1.5160 -1.6781  1.9810
    2DOPE   H7S  179   4.846   4.337   6.396  3.5199  0.2676  0.3885
    2DOPE   C28  180   4.807   4.135   6.334  0.4054 -0.7178 -0.2151
    2DOPE   H8R  181   4.714   4.159   6.279  0.2774 -1.3157 -0.2654
    2DOPE   H8S  182   4.791   4.029   6.363  1.5066 -1.2452 -1.4139
    2DOPE   C29  183   4.928   4.133   6.240  0.3759 -0.3253  0.0573
    2DOPE   H9R  184   5.023   4.087   6.272  1.2961 -0.2268 -2.3170
    2DOPE  C210  185   4.928   4.189   6.114  0.0772  0.3748 -0.3792
    2DOPE  H10R  186   5.026   4.197   6.066  0.1633  0.6847 -0.1595
    2DOPE  C211  187   4.814   4.270   6.038 -0.8520  0.8654 -0.2751
    2DOPE  H11R  188   4.847   4.372   6.009  0.2960  0.7680  0.6124
    2DOPE  H11S  189   4.728   4.290   6.106  1.2053 -0.1293  2.8570
    2DOPE  C212  190   4.756   4.200   5.916  0.3522  0.2777  1.4234
    2DOPE  H12R  191   4.704   4.109   5.951 -1.0621  0.9675  1.1750
    2DOPE  H12S  192   4.842   4.168   5.852 -0.7568 -1.0750  0.5498
    2DOPE  C213  193   4.662   4.281   5.831 -0.1030 -0.2645  0.1259
    2DOPE  H13R  194   4.718   4.373   5.803  0.3576 -0.5507  0.0946
    2DOPE  H13S  195   4.562   4.290   5.879 -0.3068 -0.9506 -0.1690
    2DOPE  C214  196   4.642   4.209   5.693  0.2229  0.6237 -0.0028
    2DOPE  H14R  197   4.743   4.195   5.650 -0.2470 -0.8894 -0.6825
    2DOPE  H14S  198   4.577   4.270   5.626 -1.3387  1.1640  1.9097
    2DOPE  C215  199   4.572   4.073   5.698  0.2269  0.0782  0.1274
    2DOPE  H15R  200   4.476   4.076   5.753  0.8409 -0.9343  1.2988
    2DOPE  H15S  201   4.639   4.002   5.751 -1.1747 -2.5005 -1.4049
    2DOPE  C216  202   4.547   4.003   5.569 -0.2861  0.2254  0.3348
    2DOPE  H16R  203   4.506   3.904   5.598 -0.4795 -0.6168 -2.4707
    2DOPE  H16S  204   4.642   3.984   5.514 -0.0305 -0.8689  1.1176
    2DOPE  C217  205   4.442   4.064   5.479  0.2169  0.2535  0.6720
    2DOPE  H17R  206   4.456   4.026   5.375 -0.6521 -1.3346  1.1044
    2DOPE  H17S  207   4.457   4.173   5.469  0.0074  0.0891 -3.1290
    2DOPE  C218  208   4.296   4.050   5.525 -0.1362  0.7783 -0.5856
    2DOPE  H18R  209   4.232   4.107   5.455  0.9810 -0.9589 -3.2074
    2DOPE  H18S  210   4.281   4.100   5.623  2.7177 -2.8467  1.9753
    2DOPE  H18T  211   4.272   3.942   5.538  0.1915  0.8985  1.4195
    2DOPE   C33  212   5.261   4.807   6.963 -0.3675 -0.0079 -0.1785
    2DOPE   H3X  213   5.357   4.755   6.980 -0.3530  0.6252  2.1383
    2DOPE   H3Y  214   5.252   4.891   7.037  1.3619 -1.1353  1.4084
    2DOPE   C34  215   5.281   4.875   6.828  0.2144 -0.0693  0.2785
    2DOPE   H4X  216   5.378   4.930   6.823 -0.7609  1.8074  0.9940
    2DOPE   H4Y  217   5.273   4.794   6.753 -0.1760 -2.3707  2.6453
    2DOPE   C35  218   5.180   4.981   6.805  0.4063 -0.5280  1.0131
    2DOPE   H5X  219   5.182   5.058   6.885 -2.7741  1.6280 -0.7415
    2DOPE   H5Y  220   5.079   4.934   6.795  1.3911 -2.2293 -3.4524
    2DOPE   C36  221   5.211   5.048   6.669 -0.0184 -0.8381 -0.4448
    2DOPE   H6X  222   5.198   4.974   6.588  0.0972 -0.8755 -0.4298
    2DOPE   H6Y  223   5.320   5.073   6.672 -0.5574  1.6616  0.4596
    2DOPE   C37  224   5.140   5.179   6.626 -0.4506  0.4890 -0.7198
    2DOPE   H7X  225   5.031   5.156   6.630 -0.6563  1.5829  1.3141
    2DOPE   H7Y  226   5.142   5.248   6.713 -1.7760 -0.0651 -0.2223
    2DOPE   C38  227   5.198   5.236   6.495  0.2315  0.1720  0.2226
    2DOPE   H8X  228   5.212   5.163   6.413 -1.8915  0.7726 -0.7313
    2DOPE   H8Y  229   5.297   5.282   6.518  0.4525 -0.6214  0.9300
    2DOPE   C39  230   5.119   5.353   6.443 -0.0679  0.2762  0.6284
    2DOPE   H9X  231   5.141   5.447   6.495 -0.8590 -0.3730  2.2062
    2DOPE  C310  232   5.016   5.360   6.350  0.2888 -0.7637 -0.0094
    2DOPE  H10X  233   4.964   5.454   6.326  1.8343 -0.2461 -1.5908
    2DOPE  C311  234   4.957   5.236   6.280 -0.2568  0.4943 -0.0071
    2DOPE  H11X  235   4.983   5.141   6.332  0.1254 -0.9612 -2.6510
    2DOPE  H11Y  236   4.847   5.247   6.271 -0.4746 -1.9388 -1.2660
    2DOPE  C312  237   4.992   5.239   6.129  0.6027 -0.4411 -0.0969
    2DOPE  H12X  238   4.947   5.329   6.082  4.3380  0.5409 -2.1577
    2DOPE  H12Y  239   4.951   5.148   6.080  2.3033 -2.0020  1.2120
    2DOPE  C313  240   5.136   5.226   6.105 -0.0238 -0.6953  0.7669
    2DOPE  H13X  241   5.189   5.303   6.164 -1.3016 -1.8891  3.6628
    2DOPE  H13Y  242   5.174   5.139   6.162  3.4601  0.0209 -0.2217
    2DOPE  C314  243   5.184   5.219   5.962  0.4900  0.4809 -0.0158
    2DOPE  H14X  244   5.291   5.242   5.944  0.2658  0.4907 -1.3971
    2DOPE  H14Y  245   5.133   5.297   5.902  0.0565  0.9287  0.9077
    2DOPE  C315  246   5.150   5.077   5.904  0.7714 -0.0024  0.3345
    2DOPE  H15X  247   5.040   5.061   5.912  1.0660 -2.2866  0.4428
    2DOPE  H15Y  248   5.214   5.015   5.970  2.6668  1.5813  0.0680
    2DOPE  C316  249   5.194   5.048   5.757 -0.7687  0.6361  0.4443
    2DOPE  H16X  250   5.303   5.029   5.759 -1.0428 -1.1653  0.4791
    2DOPE  H16Y  251   5.177   5.141   5.698  1.1427  0.4191 -0.5354
    2DOPE  C317  252   5.119   4.926   5.702 -0.5401 -0.1150  0.8862
    2DOPE  H17X  253   5.146   4.833   5.757  0.0109 -0.4514  0.0575
    2DOPE  H17Y  254   5.013   4.951   5.722 -0.7832  0.3789 -0.8646
    2DOPE  C318  255   5.143   4.897   5.549  0.5039 -0.6034  0.1474
    2DOPE  H18X  256   5.080   4.814   5.510 -1.5969  1.4961 -1.1982
    2DOPE  H18Y  257   5.113   4.986   5.490 -0.7963 -1.0962  0.0240
    2DOPE  H18Z  258   5.247   4.870   5.522  0.0555 -1.9118 -0.3445
    3DOPE     N  259   2.197   3.838   7.350 -0.1861 -0.5164  0.8845
    3DOPE   HN1  260   2.182   3.828   7.248 -0.0990  1.6648  0.6247
    3DOPE   HN2  261   2.230   3.745   7.384 -0.0395 -0.6983  0.2654
    3DOPE   HN3  262   2.107   3.866   7.393 -1.0923 -0.9534 -0.6715
    3DOPE   C12  263   2.293   3.958   7.378 -1.1527  0.4153  0.9558
    3DOPE  H12A  264   2.346   3.938   7.474 -1.0529  0.2907  0.8757
    3DOPE  H12B  265   2.228   4.045   7.399 -0.2493  1.0426  1.2261
    3DOPE   C11  266   2.406   3.975   7.271 -0.1289 -0.1482 -0.2539
    3DOPE  H11A  267   2.457   3.876   7.273 -0.5406 -0.4637 -2.5680
    3DOPE  H11B  268   2.476   4.059   7.286 -0.0077 -0.4000  0.6915
    3DOPE     P  269   2.340   3.894   7.037 -0.1574 -0.1465  0.3990
    3DOPE   O13  270   2.283   3.956   6.910 -0.4032  0.0777  0.2209
    3DOPE   O14  271   2.262   3.780   7.092  0.8631  0.2018  0.2086
    3DOPE   O11  272   2.495   3.854   7.016  0.0940  0.6071 -0.3801
    3DOPE   O12  273   2.347   4.001   7.146  0.4030 -0.2196 -0.3452
    3DOPE    C1  274   2.610   3.950   7.010  0.6518  0.9395  0.4348
    3DOPE    HA  275   2.690   3.915   7.079  0.0610 -1.3730  0.0414
    3DOPE    HB  276   2.575   4.052   7.033  0.0180  0.8173  0.0273
    3DOPE    C2  277   2.673   3.961   6.863 -0.1236 -0.6697 -0.7546
    3DOPE    HS  278   2.743   4.047   6.870 -1.4260  0.5827 -2.2707
    3DOPE   O21  279   2.568   3.987   6.765 -0.5653 -0.3314 -0.2636
    3DOPE   C21  280   2.508   4.112   6.761 -0.2288  0.1676  0.5825
    3DOPE   O22  281   2.529   4.203   6.837 -0.0597  0.4536  1.0148
    3DOPE   C22  282   2.417   4.117   6.639 -0.7746  0.0974 -0.3619
    3DOPE   H2R  283   2.326   4.177   6.662  0.4022  2.3691 -1.3487
    3DOPE   H2S  284   2.378   4.015   6.619  0.4249  0.0464 -2.8179
    3DOPE    C3  285   2.733   3.827   6.835 -0.5019  0.8233 -0.4065
    3DOPE    HX  286   2.659   3.753   6.871 -0.6282  2.1500  2.2834
    3DOPE    HY  287   2.821   3.816   6.901 -0.9042  3.1345  0.6217
    3DOPE   O31  288   2.752   3.807   6.692  0.1388  0.1816  0.0590
    3DOPE   C31  289   2.878   3.792   6.653 -0.2593  0.3430 -0.2549
    3DOPE   O32  290   2.977   3.789   6.724 -0.1386 -0.3557 -0.0467
    3DOPE   C32  291   2.886   3.806   6.502 -0.1725 -0.6289  0.1620
    3DOPE   H2X  292   2.843   3.716   6.454  0.8311 -0.1077 -1.8357
    3DOPE   H2Y  293   2.839   3.901   6.467  1.5025 -0.4689 -1.8238
    3DOPE   C23  294   2.497   4.161   6.514 -0.4571 -0.5324  0.3200
    3DOPE   H3R  295   2.567   4.247   6.528 -2.5990  1.6358 -1.3585
    3DOPE   H3S  296   2.422   4.202   6.443  0.9950 -0.7001 -1.3896
    3DOPE   C24  297   2.571   4.051   6.446  0.3962  0.4252 -0.2204
    3DOPE   H4R  298   2.498   3.968   6.441 -2.8377  2.9356  1.4759
    3DOPE   H4S  299   2.658   4.024   6.510  0.6299 -0.7192 -0.9930
    3DOPE   C25  300   2.609   4.085   6.299 -0.1013  0.2723 -0.1065
    3DOPE   H5R  301   2.691   4.160   6.301  0.1865 -0.0419 -0.0087
    3DOPE   H5S  302   2.521   4.133   6.251  0.3846  1.1403 -0.1528
    3DOPE   C26  303   2.650   3.964   6.219  0.5867 -0.2457 -0.0852
    3DOPE   H6R  304   2.571   3.888   6.238 -0.8710  1.2732  0.1136
    3DOPE   H6S  305   2.744   3.922   6.261 -0.1554 -1.1167  0.7652
    3DOPE   C27  306   2.654   4.007   6.068 -0.3950  0.2180 -0.2023
    3DOPE   H7R  307   2.741   4.076   6.066 -0.5802  0.4903 -2.9774
    3DOPE   H7S  308   2.562   4.065   6.045 -2.0517 -1.0553  2.6906
    3DOPE   C28  309   2.664   3.885   5.970 -0.3755 -0.4752  0.2366
    3DOPE   H8R  310   2.670   3.915   5.863 -0.0489  1.0996  0.6735
    3DOPE   H8S  311   2.564   3.837   5.978  0.1731 -1.8662 -0.8525
    3DOPE   C29  312   2.761   3.779   6.006 -0.4901  0.2924 -0.0474
    3DOPE   H9R  313   2.743   3.714   6.093 -0.3932  0.9475  0.4651
    3DOPE  C210  314   2.882   3.753   5.938  0.6386  1.3350 -0.4170
    3DOPE  H10R  315   2.944   3.670   5.974 -1.8080 -1.0588 -1.3741
    3DOPE  C211  316   2.936   3.814   5.818  0.5860  0.7123 -0.3476
    3DOPE  H11R  317   2.899   3.912   5.783  1.4763  0.5256 -1.8776
    3DOPE  H11S  318   2.906   3.742   5.739  1.4429  0.5070 -0.4994
    3DOPE  C212  319   3.085   3.842   5.833 -0.2294 -0.1653  0.0931
    3DOPE  H12R  320   3.139   3.752   5.870 -1.0973 -0.6600  0.1751
    3DOPE  H12S  321   3.092   3.930   5.901 -4.2798  1.0179 -0.7766
    3DOPE  C213  322   3.153   3.877   5.701  0.1018 -0.3416  0.0022
    3DOPE  H13R  323   3.093   3.957   5.651 -0.2041 -1.0838 -0.8384
    3DOPE  H13S  324   3.131   3.789   5.638 -0.3019 -0.3231  0.1137
    3DOPE  C214  325   3.296   3.922   5.703 -0.2631 -0.3735 -0.3546
    3DOPE  H14R  326   3.364   3.843   5.743  1.0774  0.3487 -1.1314
    3DOPE  H14S  327   3.296   4.018   5.758 -4.3647  2.0572 -3.9907
    3DOPE  C215  328   3.353   3.957   5.563 -0.8234 -0.3916  0.6828
    3DOPE  H15R  329   3.313   4.057   5.535  2.1133  1.1907  1.6477
    3DOPE  H15S  330   3.327   3.880   5.488  0.4370  0.2604 -0.4807
    3DOPE  C216  331   3.509   3.975   5.555  0.0618  0.3343 -0.2900
    3DOPE  H16R  332   3.562   3.888   5.600  0.2749  1.1461  1.0871
    3DOPE  H16S  333   3.545   4.057   5.621  1.1532 -1.0961  0.9618
    3DOPE  C217  334   3.566   4.003   5.414  0.0409  0.0526 -0.1430
    3DOPE  H17R  335   3.560   3.909   5.355 -1.2154  1.1234 -1.8104
    3DOPE  H17S  336   3.677   4.014   5.417  0.1611 -1.0705  0.0316
    3DOPE  C218  337   3.499   4.120   5.335  0.4736 -0.3462 -0.2193
    3DOPE  H18R  338   3.537   4.129   5.231  0.3592 -0.2471 -0.2526
    3DOPE  H18S  339   3.521   4.219   5.381 -0.3935 -0.8049  1.2689
    3DOPE  H18T  340   3.389   4.113   5.346  0.5331  0.9557  1.6248
    3DOPE   C33  341   3.034   3.821   6.454  0.4419 -0.1088 -0.5304
    3DOPE   H3X  342   3.092   3.736   6.497  0.9136  0.4757 -0.0032
    3DOPE   H3Y  343   3.074   3.920   6.486 -2.2866  0.7029  0.6491
    3DOPE   C34  344   3.047   3.830   6.303 -0.6605  0.1998  0.4034
    3DOPE   H4X  345   3.012   3.745   6.241 -1.2202  1.7198 -1.4650
    3DOPE   H4Y  346   2.994   3.923   6.271 -1.8551 -1.0634 -1.4702
    3DOPE   C35  347   3.197   3.842   6.258 -0.4026 -0.4451  0.0942
    3DOPE   H5X  348   3.198   3.826   6.148  1.7329  2.9450 -0.5077
    3DOPE   H5Y  349   3.259   3.766   6.310  0.3447  0.0948  0.0032
    3DOPE   C36  350   3.252   3.984   6.267  0.1390 -0.1253  1.0280
    3DOPE   H6X  351   3.235   4.016   6.372  0.2718  0.2188  0.9466
    3DOPE   H6Y  352   3.188   4.051   6.206  0.6323 -0.9253 -0.4165
    3DOPE   C37  353   3.391   3.998   6.222  0.0988 -0.2383 -0.0009
    3DOPE   H7X  354   3.416   4.104   6.248 -1.9677  1.2837 -3.4524
    3DOPE   H7Y  355   3.462   3.921   6.259  0.4991  0.6717  1.2145
    3DOPE   C38  356   3.411   3.981   6.067 -0.5914 -0.2154  0.8405
    3DOPE   H8X  357   3.310   3.964   6.024 -0.0825  0.2127 -0.5756
    3DOPE   H8Y  358   3.461   3.890   6.028  1.3629  1.9548 -2.1652
    3DOPE   C39  359   3.477   4.100   6.001 -0.0610 -0.1690 -0.6348
    3DOPE   H9X  360   3.587   4.098   5.994 -0.0379 -0.4395 -0.2552
    3DOPE  C310  361   3.420   4.212   5.952  0.5383  0.0112  0.0159
    3DOPE  H10X  362   3.481   4.280   5.890  0.4625 -1.7436 -2.1076
    3DOPE  C311  363   3.271   4.233   5.956 -0.3977  0.2645 -0.3523
    3DOPE  H11X  364   3.220   4.136   5.973  0.8682 -0.2381  0.7165
    3DOPE  H11Y  365   3.244   4.300   6.040  3.1157  2.7522 -0.9678
    3DOPE  C312  366   3.222   4.304   5.826  0.1417 -0.2389 -0.2421
    3DOPE  H12X  367   3.252   4.267   5.726 -2.1512 -1.1686 -0.6555
    3DOPE  H12Y  368   3.253   4.410   5.835  0.4398 -0.4137  1.0498
    3DOPE  C313  369   3.071   4.304   5.826 -0.3239  0.3106 -0.0320
    3DOPE  H13X  370   3.031   4.200   5.826 -1.4644  0.7241 -0.8302
    3DOPE  H13Y  371   3.037   4.345   5.923 -0.4546 -1.8665  0.8935
    3DOPE  C314  372   3.007   4.376   5.709  0.1008 -0.1263  0.9532
    3DOPE  H14X  373   3.090   4.391   5.637 -0.4332  1.3671  0.6198
    3DOPE  H14Y  374   2.970   4.477   5.736 -1.6704 -0.5716  0.3195
    3DOPE  C315  375   2.895   4.296   5.647 -0.0539  0.6763 -0.3191
    3DOPE  H15X  376   2.943   4.199   5.622 -0.5657 -0.2609  2.0855
    3DOPE  H15Y  377   2.850   4.342   5.556  2.0128  1.5179 -0.9760
    3DOPE  C316  378   2.780   4.278   5.748 -0.2379 -0.2525  0.3309
    3DOPE  H16X  379   2.759   4.381   5.784  0.8219  0.2188 -0.3444
    3DOPE  H16Y  380   2.816   4.214   5.831  0.8903  0.7921  0.6741
    3DOPE  C317  381   2.648   4.217   5.701 -0.1209  0.1401 -0.2319
    3DOPE  H17X  382   2.685   4.130   5.643  0.3088 -0.1546  0.4738
    3DOPE  H17Y  383   2.583   4.191   5.787 -1.0373  0.4413 -0.8212
    3DOPE  C318  384   2.573   4.304   5.601  0.2073  0.0623 -0.0887
    3DOPE  H18X  385   2.612   4.311   5.497 -0.0182 -0.6123 -0.2274
    3DOPE  H18Y  386   2.475   4.254   5.585 -0.1747  0.6934  0.2669
    3DOPE  H18Z  387   2.550   4.404   5.643  3.7237  1.0812 -0.2952
    4DOPE     N  388   4.735   2.279   6.934 -0.3287  0.5164  0.6400
    4DOPE   HN1  389   4.789   2.193   6.956  0.9750  0.5226 -2.0324
    4DOPE   HN2  390   4.795   2.358   6.963 -1.9765  0.8927  3.3225
    4DOPE   HN3  391   4.647   2.275   6.990  0.5036 -0.0543  1.9550
    4DOPE   C12  392   4.713   2.280   6.781 -0.8437 -0.2820 -0.8300
    4DOPE  H12A  393   4.806   2.319   6.734  0.3596 -2.0137 -0.0161
    4DOPE  H12B  394   4.632   2.352   6.756 -1.1533 -0.6079 -0.7849
    4DOPE   C11  395   4.691   2.140   6.720  0.6043 -0.2137 -0.4818
    4DOPE  H11A  396   4.704   2.144   6.610  0.5910 -1.1530 -0.5213
    4DOPE  H11B  397   4.593   2.097   6.748 -0.3442  1.7271 -0.6178
    4DOPE     P  398   4.798   1.926   6.847  0.3887 -0.1765 -0.5231
    4DOPE   O13  399   4.731   1.957   6.981 -0.0462  0.1556 -0.3463
    4DOPE   O14  400   4.931   1.864   6.849 -0.1081 -0.7059 -0.0408
    4DOPE   O11  401   4.700   1.837   6.765  0.1059 -0.2987 -0.3084
    4DOPE   O12  402   4.805   2.057   6.764  0.6056  0.3847 -0.3408
    4DOPE    C1  403   4.756   1.759   6.653  0.1094 -0.2710 -0.2787
    4DOPE    HA  404   4.727   1.652   6.657  0.1343 -0.2516  0.8981
    4DOPE    HB  405   4.866   1.767   6.642  0.1580  0.0280  0.3465
    4DOPE    C2  406   4.711   1.803   6.508  0.2673  0.2873 -0.7358
    4DOPE    HS  407   4.757   1.730   6.438 -0.3473 -2.8737  1.8591
    4DOPE   O21  408   4.752   1.936   6.476 -0.4994 -0.4935  0.9223
    4DOPE   C21  409   4.878   1.965   6.448 -0.4517  0.5010 -0.9668
    4DOPE   O22  410   4.970   1.884   6.450  0.0665  0.5898  0.6663
    4DOPE   C22  411   4.885   2.114   6.412  0.3973  0.2622  0.1496
    4DOPE   H2R  412   4.886   2.165   6.510 -1.1258  0.3775  0.1314
    4DOPE   H2S  413   4.792   2.140   6.357  0.7017  1.1212  0.0276
    4DOPE    C3  414   4.560   1.790   6.491  0.0034 -0.3162  0.1083
    4DOPE    HX  415   4.513   1.862   6.562  1.6894  1.8571 -0.8307
    4DOPE    HY  416   4.528   1.689   6.524  2.0104 -1.5657 -1.4858
    4DOPE   O31  417   4.526   1.831   6.358  0.2615  0.0069 -0.7606
    4DOPE   C31  418   4.524   1.731   6.265 -0.2516  0.2824 -0.1647
    4DOPE   O32  419   4.549   1.615   6.296 -0.0667 -0.2493 -0.5025
    4DOPE   C32  420   4.524   1.788   6.128  0.3021 -0.1408  0.1543
    4DOPE   H2X  421   4.461   1.879   6.132  0.5284  0.0360 -0.3140
    4DOPE   H2Y  422   4.626   1.827   6.110 -0.1198 -0.0801 -2.5425
    4DOPE   C23  423   4.996   2.153   6.312 -0.3261  0.0945 -0.1019
    4DOPE   H3R  424   4.982   2.096   6.217 -1.8301  0.8875 -0.3933
    4DOPE   H3S  425   5.096   2.127   6.353  0.0966  2.1076  0.2848
    4DOPE   C24  426   5.004   2.310   6.287 -0.3823 -0.3898  0.4921
    4DOPE   H4R  427   5.017   2.376   6.375  2.5702  1.0882 -0.9351
    4DOPE   H4S  428   4.909   2.330   6.232 -1.2981  1.2842  2.5293
    4DOPE   C25  429   5.119   2.351   6.187 -0.2984  0.3257  0.3551
    4DOPE   H5R  430   5.218   2.307   6.214 -0.6684  0.1042  1.3941
    4DOPE   H5S  431   5.129   2.460   6.204 -1.2490  0.5986 -0.7002
    4DOPE   C26  432   5.090   2.341   6.036  0.1740 -0.3692 -0.1415
    4DOPE   H6R  433   5.016   2.421   6.014  0.6937  0.2812  0.4245
    4DOPE   H6S  434   5.048   2.239   6.021  1.1002 -1.2548  2.7368
    4DOPE   C27  435   5.208   2.384   5.953  0.1498 -0.3183 -0.1651
    4DOPE   H7R  436   5.280   2.300   5.963  0.7131  0.1899  0.1264
    4DOPE   H7S  437   5.259   2.476   5.990 -0.4560  0.2439 -0.7151
    4DOPE   C28  438   5.190   2.402   5.796 -0.4692 -0.2027 -0.1866
    4DOPE   H8R  439   5.149   2.307   5.756 -0.6690 -0.9590  1.7034
    4DOPE   H8S  440   5.296   2.415   5.764 -1.0277 -0.5007 -2.3239
    4DOPE   C29  441   5.104   2.519   5.774 -0.0288 -0.2660  0.1064
    4DOPE   H9R  442   5.001   2.510   5.814  0.4719  1.0557  1.8007
    4DOPE  C210  443   5.135   2.637   5.713  0.4568  0.3289  0.5089
    4DOPE  H10R  444   5.054   2.711   5.715 -1.4024 -1.6156  1.7609
    4DOPE  C211  445   5.270   2.679   5.655  0.0213  0.8579  0.8876
    4DOPE  H11R  446   5.249   2.673   5.546 -0.4328 -1.4285  1.0407
    4DOPE  H11S  447   5.348   2.604   5.677 -0.6652  0.0237  0.5655
    4DOPE  C212  448   5.310   2.819   5.704  0.2182 -0.1621 -0.4877
    4DOPE  H12R  449   5.362   2.814   5.802 -2.8252 -2.3016  1.2070
    4DOPE  H12S  450   5.216   2.877   5.718  1.6531  2.1796  0.1639
    4DOPE  C213  451   5.400   2.909   5.609 -0.3267  0.2709 -0.3157
    4DOPE  H13R  452   5.360   2.912   5.505 -0.7539  0.6013 -0.1426
    4DOPE  H13S  453   5.502   2.864   5.606 -0.6386 -0.4577 -0.2118
    4DOPE  C214  454   5.417   3.053   5.662  0.2727 -0.5677  0.5577
    4DOPE  H14R  455   5.489   3.051   5.747 -0.8371 -0.2746  1.5282
    4DOPE  H14S  456   5.324   3.096   5.704  0.5372  1.6988 -1.0281
    4DOPE  C215  457   5.447   3.150   5.543  0.2356 -0.2303  0.2463
    4DOPE  H15R  458   5.447   3.249   5.594 -1.8934 -0.3465  0.5666
    4DOPE  H15S  459   5.361   3.148   5.473  1.9174 -1.9427 -1.9215
    4DOPE  C216  460   5.585   3.141   5.467  0.2824 -0.3463 -0.0014
    4DOPE  H16R  461   5.607   3.037   5.437  2.6732  0.2235 -0.4232
    4DOPE  H16S  462   5.672   3.159   5.534  1.7881 -0.5596 -1.8403
    4DOPE  C217  463   5.581   3.215   5.328 -0.1472 -0.5091 -0.7426
    4DOPE  H17R  464   5.584   3.318   5.369  0.2322 -1.5347  2.0174
    4DOPE  H17S  465   5.480   3.199   5.283 -0.6533 -0.0810  0.1966
    4DOPE  C218  466   5.703   3.183   5.241 -0.3354 -0.1457  0.4660
    4DOPE  H18R  467   5.714   3.254   5.156  2.7485  0.4319  1.1856
    4DOPE  H18S  468   5.699   3.080   5.199 -0.9082  0.0420  0.0519
    4DOPE  H18T  469   5.801   3.189   5.293 -0.4817  1.1080  0.6283
    4DOPE   C33  470   4.484   1.687   6.022 -0.2808 -0.1869  0.1149
    4DOPE   H3X  471   4.374   1.682   6.028 -0.1805 -3.0557  1.1965
    4DOPE   H3Y  472   4.532   1.591   6.049  0.1822 -0.1471 -0.5312
    4DOPE   C34  473   4.536   1.718   5.884 -0.3839 -0.2505  0.5728
    4DOPE   H4X  474   4.503   1.818   5.849 -0.7146 -0.9923 -1.3727
    4DOPE   H4Y  475   4.647   1.723   5.885 -0.1832 -1.2441 -2.8084
    4DOPE   C35  476   4.488   1.604   5.788 -0.5861 -0.1277 -0.4059
    4DOPE   H5X  477   4.380   1.586   5.807  0.1703 -0.6240  5.3588
    4DOPE   H5Y  478   4.542   1.510   5.811  1.2119  0.8618 -0.4498
    4DOPE   C36  479   4.512   1.645   5.643  0.4739 -0.3059  0.4692
    4DOPE   H6X  480   4.619   1.645   5.612 -0.0697 -1.0186 -1.5758
    4DOPE   H6Y  481   4.476   1.750   5.629  0.7656 -0.1707  0.7281
    4DOPE   C37  482   4.443   1.555   5.542 -0.3135 -0.5976 -1.3383
    4DOPE   H7X  483   4.483   1.453   5.558  0.7823  0.2643  2.1468
    4DOPE   H7Y  484   4.333   1.553   5.560  0.2350  0.3657  3.5061
    4DOPE   C38  485   4.487   1.595   5.400 -0.1442  0.1222  0.5091
    4DOPE   H8X  486   4.477   1.517   5.322 -0.2096  1.5143 -0.9080
    4DOPE   H8Y  487   4.596   1.618   5.399 -0.1732  0.4197 -2.5778
    4DOPE   C39  488   4.416   1.720   5.348  0.2196  0.3304 -0.2149
    4DOPE   H9X  489   4.446   1.807   5.408 -0.4990 -1.0444  2.3012
    4DOPE  C310  490   4.310   1.726   5.265  0.6401  0.2486  0.3658
    4DOPE  H10X  491   4.264   1.821   5.235 -1.2157 -0.7772 -0.2019
    4DOPE  C311  492   4.234   1.612   5.208  0.9955 -0.2328  1.5209
    4DOPE  H11X  493   4.283   1.512   5.208 -0.2383 -0.8663  0.2032
    4DOPE  H11Y  494   4.142   1.596   5.267  0.2732  1.3412  0.8858
    4DOPE  C312  495   4.216   1.627   5.055 -0.1125 -0.1875 -0.4401
    4DOPE  H12X  496   4.320   1.616   5.018 -0.3157 -1.3603 -0.7058
    4DOPE  H12Y  497   4.182   1.727   5.021 -1.5230 -0.6131 -0.3311
    4DOPE  C313  498   4.130   1.521   4.992  0.8135  0.1133 -0.8303
    4DOPE  H13X  499   4.158   1.421   5.032  1.4771 -1.5650 -4.9773
    4DOPE  H13Y  500   4.024   1.533   5.024  0.5098 -1.6576 -1.0528
    4DOPE  C314  501   4.128   1.523   4.843 -0.4193  0.1578 -0.0708
    4DOPE  H14X  502   4.126   1.626   4.801 -0.6566 -0.6204 -2.0860
    4DOPE  H14Y  503   4.040   1.463   4.812 -2.1166  2.2475  0.4723
    4DOPE  C315  504   4.249   1.442   4.783 -0.1838 -0.1529 -0.9662
    4DOPE  H15X  505   4.248   1.342   4.832  0.9793 -0.0191 -0.6436
    4DOPE  H15Y  506   4.339   1.499   4.814 -0.6977  0.8560 -1.2795
    4DOPE  C316  507   4.241   1.439   4.636 -0.1268  0.0178 -0.0185
    4DOPE  H16X  508   4.326   1.378   4.600  1.2382 -0.1573  3.1870
    4DOPE  H16Y  509   4.266   1.540   4.597 -0.8941  0.7122  1.2365
    4DOPE  C317  510   4.119   1.380   4.568 -0.4852  0.5139 -0.0033
    4DOPE  H17X  511   4.025   1.433   4.594 -0.4002  0.7570 -0.1952
    4DOPE  H17Y  512   4.144   1.376   4.460  2.4953 -0.0389  0.6126
    4DOPE  C318  513   4.087   1.229   4.612 -0.1936 -0.0446 -0.3060
    4DOPE  H18X  514   4.034   1.235   4.709  1.1650  1.4557  0.4120
    4DOPE  H18Y  515   4.017   1.184   4.539  0.4355 -1.5350 -0.0316
    4DOPE  H18Z  516   4.178   1.165   4.610 -1.1055 -1.3931  0.0281
    5DOPE     N  517   0.785   3.657   6.881  0.0030  0.4947 -0.5495
    5DOPE   HN1  518   0.724   3.580   6.845  1.0788 -0.2684 -0.8098
    5DOPE   HN2  519   0.719   3.735   6.902  1.5259  1.9229 -0.8797
    5DOPE   HN3  520   0.846   3.680   6.800  0.9410 -0.7431 -0.2282
    5DOPE   C12  521   0.890   3.600   6.987  0.2926 -0.6522  0.1660
    5DOPE  H12A  522   0.835   3.590   7.083 -0.6261  1.1667 -0.1178
    5DOPE  H12B  523   0.961   3.682   7.011 -1.1938  0.6491  0.2775
    5DOPE   C11  524   0.960   3.469   6.941  0.3009  0.1820 -0.7998
    5DOPE  H11A  525   1.042   3.454   7.015 -2.1899  0.2646  2.1935
    5DOPE  H11B  526   1.007   3.484   6.842 -0.2920  1.0011 -0.9650
    5DOPE     P  527   0.857   3.233   7.026 -0.1551 -0.1160 -0.2632
    5DOPE   O13  528   0.720   3.181   7.016  0.0949  0.5915 -0.2508
    5DOPE   O14  529   0.913   3.275   7.156  0.0530  0.2241 -0.3509
    5DOPE   O11  530   0.963   3.139   6.967  0.2592 -0.9807  0.2196
    5DOPE   O12  531   0.864   3.357   6.927  0.0829  0.2683  0.2634
    5DOPE    C1  532   0.944   3.079   6.832 -0.4758  0.1535  0.6065
    5DOPE    HA  533   0.885   3.152   6.772  1.5785 -0.2909 -2.1295
    5DOPE    HB  534   0.881   2.988   6.836  2.3113 -1.9395 -0.2521
    5DOPE    C2  535   1.080   3.053   6.767 -0.5467 -0.2294 -0.3059
    5DOPE    HS  536   1.137   2.980   6.828  1.4042 -0.4100 -2.2441
    5DOPE   O21  537   1.150   3.177   6.742 -0.4777 -0.2988 -0.2146
    5DOPE   C21  538   1.249   3.214   6.829 -0.1029 -0.5598  0.6212
    5DOPE   O22  539   1.296   3.132   6.909 -0.4374 -0.3445 -0.3800
    5DOPE   C22  540   1.301   3.358   6.810  0.9666  0.2962  0.4364
    5DOPE   H2R  541   1.303   3.406   6.911  0.1291  0.3966  0.4117
    5DOPE   H2S  542   1.237   3.401   6.730 -0.0178 -0.7782  0.6189
    5DOPE    C3  543   1.073   2.984   6.627  0.5825  0.4752  0.2466
    5DOPE    HX  544   1.044   2.877   6.631  2.5063 -0.1077 -0.4629
    5DOPE    HY  545   1.182   2.976   6.612  0.6767  2.0940 -0.1657
    5DOPE   O31  546   0.997   3.058   6.529 -0.6675 -0.1460  0.1716
    5DOPE   C31  547   1.003   3.014   6.397  0.8066  0.3160 -0.5530
    5DOPE   O32  548   1.027   2.895   6.375 -0.1399 -0.3403  0.1035
    5DOPE   C32  549   0.984   3.126   6.306 -0.3143 -0.4370  0.3948
    5DOPE   H2X  550   0.884   3.173   6.316  0.5376  1.8811 -1.1984
    5DOPE   H2Y  551   1.046   3.213   6.337 -0.8264 -0.6031  1.9858
    5DOPE   C23  552   1.449   3.355   6.750  0.5386  0.5398 -0.3531
    5DOPE   H3R  553   1.516   3.323   6.832 -1.8201  0.1661  1.5249
    5DOPE   H3S  554   1.470   3.456   6.708  1.0686  0.1871 -0.9709
    5DOPE   C24  555   1.473   3.259   6.628 -0.0008 -0.4160 -0.0594
    5DOPE   H4R  556   1.465   3.152   6.658  0.7385 -0.3589  0.3826
    5DOPE   H4S  557   1.579   3.273   6.595  0.0699  0.6841  0.5943
    5DOPE   C25  558   1.379   3.288   6.513 -0.3770  0.6259  0.2180
    5DOPE   H5R  559   1.387   3.396   6.488  0.5075  1.2502  2.8546
    5DOPE   H5S  560   1.271   3.285   6.541 -0.7482  1.6387 -0.9718
    5DOPE   C26  561   1.413   3.216   6.383  0.2404  0.5323  0.4357
    5DOPE   H6R  562   1.378   3.115   6.412 -1.8210  0.7481 -1.1049
    5DOPE   H6S  563   1.522   3.199   6.371  0.1726 -0.2898  0.9020
    5DOPE   C27  564   1.349   3.276   6.258 -0.7040  0.0068 -0.4770
    5DOPE   H7R  565   1.391   3.377   6.238 -0.5071 -0.2798 -1.5782
    5DOPE   H7S  566   1.241   3.291   6.280 -1.0722 -0.9247 -1.5318
    5DOPE   C28  567   1.381   3.194   6.136 -0.3699 -0.1602 -0.2924
    5DOPE   H8R  568   1.358   3.088   6.159  1.2622 -0.5860 -0.4628
    5DOPE   H8S  569   1.492   3.189   6.137 -0.1622  2.6153  1.1587
    5DOPE   C29  570   1.328   3.231   5.999  0.2430  0.0694  0.4831
    5DOPE   H9R  571   1.321   3.147   5.928 -0.7698  1.4934 -1.1885
    5DOPE  C210  572   1.282   3.348   5.942 -0.0355 -0.1450 -0.0843
    5DOPE  H10R  573   1.268   3.345   5.833 -0.8643  0.5875 -0.0097
    5DOPE  C211  574   1.272   3.482   6.012  0.0405  0.0491 -0.4825
    5DOPE  H11R  575   1.337   3.500   6.100 -1.5873 -1.1479  1.0336
    5DOPE  H11S  576   1.166   3.502   6.039  0.2257 -0.7209  0.9077
    5DOPE  C212  577   1.303   3.594   5.908  0.2517  0.5488  0.4435
    5DOPE  H12R  578   1.270   3.690   5.952 -0.4860  0.5412 -0.0826
    5DOPE  H12S  579   1.248   3.576   5.814 -1.7862  0.0471  1.6708
    5DOPE  C213  580   1.454   3.599   5.888  0.5795 -0.0033  0.6421
    5DOPE  H13R  581   1.497   3.497   5.885  1.5209  0.3685  1.1071
    5DOPE  H13S  582   1.500   3.643   5.979  2.0866 -0.2732  0.0342
    5DOPE  C214  583   1.497   3.693   5.769 -0.7088  0.2406 -0.1353
    5DOPE  H14R  584   1.457   3.794   5.792  0.1736  0.3488  0.9444
    5DOPE  H14S  585   1.447   3.666   5.673 -0.1870  0.3246 -0.4331
    5DOPE  C215  586   1.648   3.676   5.741 -0.2132 -0.3522  0.0120
    5DOPE  H15R  587   1.671   3.579   5.694  1.6341 -0.0326  0.2124
    5DOPE  H15S  588   1.701   3.694   5.837 -2.0062  0.7778  0.8457
    5DOPE  C216  589   1.679   3.794   5.648 -0.0879  1.0670 -0.9753
    5DOPE  H16R  590   1.789   3.802   5.643 -0.2214  2.3136 -4.1764
    5DOPE  H16S  591   1.651   3.889   5.700 -1.6336 -0.9501  2.1735
    5DOPE  C217  592   1.627   3.786   5.505  0.8009 -0.2536 -0.7961
    5DOPE  H17R  593   1.530   3.839   5.495 -0.1387 -1.5113  0.9763
    5DOPE  H17S  594   1.603   3.682   5.472 -0.6303 -0.3216  0.3381
    5DOPE  C218  595   1.716   3.846   5.399  0.0881 -0.2879  0.1741
    5DOPE  H18R  596   1.694   3.953   5.379  2.6019  0.7531  2.4347
    5DOPE  H18S  597   1.705   3.787   5.305  2.0561 -1.4612  0.6273
    5DOPE  H18T  598   1.823   3.836   5.426  0.1747  0.5413  0.1761
    5DOPE   C33  599   0.996   3.078   6.159 -0.0564 -0.2055 -0.4860
    5DOPE   H3X  600   0.926   2.993   6.146  0.1248 -0.5253  0.5812
    5DOPE   H3Y  601   1.098   3.036   6.143  0.1654  1.0126 -2.8042
    5DOPE   C34  602   0.971   3.177   6.047  0.0588  0.1762 -0.8045
    5DOPE   H4X  603   0.868   3.216   6.063 -0.0627 -0.8242  1.1318
    5DOPE   H4Y  604   1.045   3.259   6.054  1.4578 -0.9058 -2.2870
    5DOPE   C35  605   0.976   3.123   5.901  0.0358  0.5798  0.3037
    5DOPE   H5X  606   0.910   3.034   5.899 -0.6639  1.0683  0.8300
    5DOPE   H5Y  607   1.079   3.095   5.870 -0.5339  0.3500 -1.4540
    5DOPE   C36  608   0.936   3.234   5.797 -0.1978  0.0717  0.4074
    5DOPE   H6X  609   1.023   3.302   5.806 -0.3938  1.2027 -3.8315
    5DOPE   H6Y  610   0.844   3.292   5.821  0.5595  1.5614 -0.2041
    5DOPE   C37  611   0.915   3.174   5.662  0.6721 -0.4338  0.3329
    5DOPE   H7X  612   0.994   3.105   5.628 -0.1743 -2.1704  1.7172
    5DOPE   H7Y  613   0.824   3.112   5.679  0.8644 -1.0101 -0.6702
    5DOPE   C38  614   0.884   3.279   5.555 -0.2379 -0.2118 -0.9817
    5DOPE   H8X  615   0.969   3.351   5.551 -0.2474 -0.0512  0.8536
    5DOPE   H8Y  616   0.803   3.346   5.590 -0.6983 -1.0870 -0.3273
    5DOPE   C39  617   0.855   3.205   5.427  0.1951 -0.3190  0.1353
    5DOPE   H9X  618   0.747   3.180   5.428  0.1492 -0.1953 -0.9506
    5DOPE  C310  619   0.936   3.160   5.328 -0.1957  0.7043 -0.0015
    5DOPE  H10X  620   0.890   3.121   5.237  0.7095 -2.2158  0.6824
    5DOPE  C311  621   1.086   3.166   5.337  0.1892  0.6326  0.0065
    5DOPE  H11X  622   1.112   3.253   5.272 -1.1017  1.5798  0.7054
    5DOPE  H11Y  623   1.111   3.174   5.445 -0.9331 -1.2544  0.4536
    5DOPE  C312  624   1.150   3.050   5.258 -0.0185  0.0709 -0.0695
    5DOPE  H12X  625   1.259   3.068   5.264  1.1009 -4.2437 -3.2537
    5DOPE  H12Y  626   1.112   3.043   5.154 -1.5796 -2.3652  0.5783
    5DOPE  C313  627   1.136   2.915   5.330 -1.0547  0.1672  0.3809
    5DOPE  H13X  628   1.165   2.928   5.436 -0.1740 -1.9055  0.4524
    5DOPE  H13Y  629   1.028   2.889   5.329 -1.2458  0.8093 -1.9729
    5DOPE  C314  630   1.217   2.807   5.254 -0.4905  0.1833 -0.2385
    5DOPE  H14X  631   1.324   2.838   5.256 -0.0161 -1.3437 -0.6776
    5DOPE  H14Y  632   1.175   2.802   5.151 -0.1799  2.1702 -0.4925
    5DOPE  C315  633   1.204   2.669   5.326  0.2210  0.5285 -1.3584
    5DOPE  H15X  634   1.095   2.647   5.331  0.3591 -0.1782 -1.3847
    5DOPE  H15Y  635   1.226   2.674   5.434 -3.2621 -2.2035 -0.3254
    5DOPE  C316  636   1.272   2.555   5.259  0.7833  0.9367 -0.1091
    5DOPE  H16X  637   1.296   2.485   5.341  2.0177  0.9292 -0.4572
    5DOPE  H16Y  638   1.372   2.577   5.216  1.0290 -4.1116 -2.9602
    5DOPE  C317  639   1.189   2.488   5.149 -0.0480  0.0411  0.4475
    5DOPE  H17X  640   1.091   2.450   5.183 -1.2647  0.8081 -1.9260
    5DOPE  H17Y  641   1.163   2.559   5.067 -0.4863 -0.9620 -0.3130
    5DOPE  C318  642   1.266   2.373   5.077  0.1597  0.1859 -0.2225
    5DOPE  H18X  643   1.193   2.339   5.001 -1.2351  0.4435  0.9472
    5DOPE  H18Y  644   1.364   2.408   5.038  1.0525 -0.9685  0.9285
    5DOPE  H18Z  645   1.292   2.287   5.142  0.7513 -1.6045 -2.7114
    6DOPE     N  646   1.594   4.341   7.146 -0.5112 -0.5151  0.0695
    6DOPE   HN1  647   1.575   4.441   7.125  0.0270 -0.1038  1.4376
    6DOPE   HN2  648   1.521   4.278   7.108  0.2531  0.2432 -2.8573
    6DOPE   HN3  649   1.596   4.324   7.249 -2.0344 -1.2389  0.0127
    6DOPE   C12  650   1.725   4.302   7.080 -0.6268  0.0764  0.2948
    6DOPE  H12A  651   1.728   4.192   7.092  0.5777  0.1480  0.7780
    6DOPE  H12B  652   1.800   4.361   7.137  0.3451 -0.3254 -0.5330
    6DOPE   C11  653   1.730   4.332   6.926 -0.1012  0.6071  0.2009
    6DOPE  H11A  654   1.832   4.301   6.896  0.2498  0.8821  1.0813
    6DOPE  H11B  655   1.724   4.443   6.919  1.1762  0.5535 -3.2345
    6DOPE     P  656   1.623   4.161   6.754  0.2089 -0.3784  0.0335
    6DOPE   O13  657   1.499   4.173   6.675 -0.5632  0.0812 -0.4367
    6DOPE   O14  658   1.661   4.033   6.808 -0.2185 -0.1537 -0.3649
    6DOPE   O11  659   1.741   4.210   6.658  0.0887  0.1872  0.0546
    6DOPE   O12  660   1.623   4.272   6.860 -0.0309  0.0840  0.4397
    6DOPE    C1  661   1.737   4.310   6.563 -0.2960  0.1186 -0.2439
    6DOPE    HA  662   1.804   4.389   6.602 -1.0135  1.0259 -0.8335
    6DOPE    HB  663   1.633   4.347   6.552 -0.8279 -1.1506  0.2825
    6DOPE    C2  664   1.759   4.261   6.412 -0.7470  0.4189 -0.2280
    6DOPE    HS  665   1.691   4.174   6.396 -1.4627  0.8354  0.4326
    6DOPE   O21  666   1.898   4.234   6.385  0.2901  0.0171  0.0846
    6DOPE   C21  667   1.936   4.118   6.434  0.3233  0.9252  0.1509
    6DOPE   O22  668   1.863   4.029   6.476 -0.2870  0.1949  0.0315
    6DOPE   C22  669   2.090   4.122   6.433 -0.1414 -0.4240 -0.5120
    6DOPE   H2R  670   2.123   4.097   6.536 -3.6377 -1.3450  0.5420
    6DOPE   H2S  671   2.124   4.223   6.403  0.8917 -0.4868  0.3935
    6DOPE    C3  672   1.708   4.372   6.318  0.5077 -0.5347 -0.3480
    6DOPE    HX  673   1.801   4.433   6.308  0.7908 -0.9555 -0.3339
    6DOPE    HY  674   1.626   4.430   6.365 -2.0699 -3.4886 -0.8612
    6DOPE   O31  675   1.673   4.327   6.181 -0.5014  0.1120 -0.2221
    6DOPE   C31  676   1.535   4.311   6.175  0.6342 -0.1616 -0.1550
    6DOPE   O32  677   1.467   4.290   6.273  0.0745  0.0150 -0.4305
    6DOPE   C32  678   1.488   4.302   6.021  0.0796  0.4321 -0.4912
    6DOPE   H2X  679   1.566   4.255   5.957  2.0499  0.7735  1.5310
    6DOPE   H2Y  680   1.406   4.227   6.023  1.4211 -1.3322 -3.6762
    6DOPE   C23  681   2.174   4.024   6.340 -0.2073  0.0834  0.6909
    6DOPE   H3R  682   2.281   4.045   6.360 -0.5657  1.3807  1.3976
    6DOPE   H3S  683   2.154   4.051   6.234 -1.0887  0.5904  0.9778
    6DOPE   C24  684   2.159   3.873   6.360  0.0056  0.3595  0.0340
    6DOPE   H4R  685   2.053   3.851   6.335 -0.0210  1.2504 -0.6852
    6DOPE   H4S  686   2.163   3.858   6.469 -0.6296 -1.5747 -0.1717
    6DOPE   C25  687   2.261   3.786   6.274 -0.4293  0.2261 -0.4275
    6DOPE   H5R  688   2.243   3.686   6.319 -0.0880 -0.2566 -1.3441
    6DOPE   H5S  689   2.368   3.813   6.286 -0.4855  1.1676 -1.8689
    6DOPE   C26  690   2.231   3.782   6.120 -0.6591  0.1626 -0.4881
    6DOPE   H6R  691   2.249   3.882   6.074 -0.7496 -0.6180 -2.2931
    6DOPE   H6S  692   2.125   3.754   6.100  0.4008 -2.2667 -3.6380
    6DOPE   C27  693   2.311   3.682   6.033 -0.1286  0.3330 -0.3148
    6DOPE   H7R  694   2.291   3.589   6.090  0.5387  1.1224  1.2530
    6DOPE   H7S  695   2.420   3.706   6.031  0.1218 -0.6435 -2.5473
    6DOPE   C28  696   2.256   3.660   5.888  0.2667 -0.3712 -0.4452
    6DOPE   H8R  697   2.147   3.639   5.894  0.1402  0.5130  0.7766
    6DOPE   H8S  698   2.297   3.566   5.845  0.8185 -0.3578  0.0461
    6DOPE   C29  699   2.283   3.779   5.811 -0.8772 -0.5646  0.4494
    6DOPE   H9R  700   2.265   3.871   5.868  2.3081  0.3246  0.1932
    6DOPE  C210  701   2.336   3.789   5.685  0.8330  0.8336  0.1119
    6DOPE  H10R  702   2.364   3.885   5.639  2.6117  0.9824  1.4092
    6DOPE  C211  703   2.368   3.670   5.598 -0.1301  0.4522  1.0028
    6DOPE  H11R  704   2.279   3.633   5.543  0.6686 -1.1195  0.6922
    6DOPE  H11S  705   2.395   3.584   5.662  0.3079 -0.0975  0.1000
    6DOPE  C212  706   2.480   3.705   5.499 -0.1956  0.2118  0.1940
    6DOPE  H12R  707   2.451   3.790   5.434 -1.6002 -0.7479 -0.4846
    6DOPE  H12S  708   2.508   3.626   5.426 -0.0475  1.2815 -0.9429
    6DOPE  C213  709   2.609   3.750   5.573 -0.2938  0.4261  0.4201
    6DOPE  H13R  710   2.625   3.679   5.657  0.1336  1.4330  1.2067
    6DOPE  H13S  711   2.593   3.845   5.627 -0.1087  0.4122  0.5021
    6DOPE  C214  712   2.726   3.767   5.479  0.1017 -0.8647  0.7952
    6DOPE  H14R  713   2.750   3.678   5.416  2.0355 -0.1040  0.3557
    6DOPE  H14S  714   2.816   3.783   5.543 -0.1321  1.6512  0.6022
    6DOPE  C215  715   2.709   3.903   5.405 -0.0750  0.7009  0.1612
    6DOPE  H15R  716   2.669   3.982   5.472  2.6338  1.9706  0.4143
    6DOPE  H15S  717   2.631   3.885   5.328 -1.4272  2.4362  1.0613
    6DOPE  C216  718   2.843   3.956   5.360 -0.0842  0.4274 -0.6056
    6DOPE  H16R  719   2.884   3.897   5.275 -0.7448 -3.0744  1.3114
    6DOPE  H16S  720   2.906   3.964   5.452  1.0800  1.2866 -1.4515
    6DOPE  C217  721   2.833   4.101   5.312  0.4390 -0.1247  0.3084
    6DOPE  H17R  722   2.776   4.164   5.383  0.6131  1.6843 -1.1001
    6DOPE  H17S  723   2.776   4.098   5.217 -0.3562 -0.7424  0.7974
    6DOPE  C218  724   2.965   4.178   5.289  0.3477  0.1995 -0.7298
    6DOPE  H18R  725   2.945   4.283   5.257 -1.8081  0.5533  1.4995
    6DOPE  H18S  726   3.010   4.127   5.202  1.3164 -0.8010  0.3129
    6DOPE  H18T  727   3.029   4.169   5.380 -2.6267  2.8386  1.8554
    6DOPE   C33  728   1.436   4.439   5.977 -0.2294 -0.3233 -0.6230
    6DOPE   H3X  729   1.364   4.482   6.050 -1.3313  0.5262 -2.1317
    6DOPE   H3Y  730   1.386   4.424   5.879  0.3579  0.0807 -0.9918
    6DOPE   C34  731   1.546   4.542   5.954  0.8791 -0.3330  0.5923
    6DOPE   H4X  732   1.494   4.636   5.924  0.3267 -0.4190  1.2538
    6DOPE   H4Y  733   1.604   4.570   6.045 -0.4218 -0.4304  1.4853
    6DOPE   C35  734   1.649   4.514   5.843 -0.0779 -0.2412 -0.5323
    6DOPE   H5X  735   1.610   4.482   5.744  2.4249  1.6201 -2.2579
    6DOPE   H5Y  736   1.716   4.438   5.888  1.7807  1.3999 -0.4077
    6DOPE   C36  737   1.740   4.634   5.800 -0.2976  0.0528 -0.3115
    6DOPE   H6X  738   1.819   4.670   5.869 -1.7423 -0.0434  1.4830
    6DOPE   H6Y  739   1.680   4.725   5.778 -0.2849  0.4103  1.0904
    6DOPE   C37  740   1.813   4.620   5.668  0.1939 -1.1001  0.9219
    6DOPE   H7X  741   1.907   4.561   5.675  1.5580  1.1427  3.4508
    6DOPE   H7Y  742   1.749   4.571   5.592  0.5029 -0.2158  0.0833
    6DOPE   C38  743   1.866   4.747   5.595  0.1752 -0.4451  0.2433
    6DOPE   H8X  744   1.950   4.793   5.652 -0.0576 -0.9270  0.9954
    6DOPE   H8Y  745   1.787   4.825   5.600  1.2635  0.7435 -0.4647
    6DOPE   C39  746   1.914   4.706   5.460  0.3329  0.0226 -0.0265
    6DOPE   H9X  747   1.840   4.718   5.379  0.0290 -1.2292  0.0430
    6DOPE  C310  748   2.033   4.653   5.429 -0.0209 -0.4244  0.6011
    6DOPE  H10X  749   2.056   4.648   5.322 -4.5164  0.9136 -0.6592
    6DOPE  C311  750   2.146   4.620   5.519 -0.5080  0.1341  0.1839
    6DOPE  H11X  751   2.133   4.679   5.613  1.4076  2.4735 -0.9094
    6DOPE  H11Y  752   2.143   4.509   5.527 -3.1191  0.1021 -0.2276
    6DOPE  C312  753   2.287   4.676   5.469 -0.3471 -1.0980 -0.0013
    6DOPE  H12X  754   2.366   4.647   5.541 -0.5039  0.7610  0.9798
    6DOPE  H12Y  755   2.286   4.787   5.465  0.9455 -1.0911 -0.5736
    6DOPE  C313  756   2.337   4.630   5.333 -0.4119 -0.3902 -0.4853
    6DOPE  H13X  757   2.300   4.528   5.310 -1.2130 -0.3783  0.6650
    6DOPE  H13Y  758   2.286   4.695   5.258 -0.3174 -0.3034 -0.4737
    6DOPE  C314  759   2.492   4.633   5.324  0.3227  0.1697 -0.2878
    6DOPE  H14X  760   2.530   4.577   5.411  0.0620 -2.4383 -1.7584
    6DOPE  H14Y  761   2.521   4.738   5.347  1.3918 -0.3098  0.6156
    6DOPE  C315  762   2.544   4.585   5.186  0.7086  0.3052 -0.4676
    6DOPE  H15X  763   2.652   4.565   5.199  0.5604 -1.8138 -1.9032
    6DOPE  H15Y  764   2.546   4.662   5.105 -0.6037  0.2852 -0.5469
    6DOPE  C316  765   2.491   4.449   5.137  0.1491  0.9552  0.7007
    6DOPE  H16X  766   2.541   4.423   5.041  0.7669 -1.0990  1.5174
    6DOPE  H16Y  767   2.382   4.462   5.119 -0.4270 -1.2029  2.2065
    6DOPE  C317  768   2.518   4.345   5.245 -0.0409  0.1862 -0.0152
    6DOPE  H17X  769   2.622   4.359   5.282  0.2528 -0.0567 -0.7372
    6DOPE  H17Y  770   2.441   4.356   5.324  0.9149 -3.0296  1.5549
    6DOPE  C318  771   2.505   4.196   5.203  0.2158  0.0934  0.3212
    6DOPE  H18X  772   2.588   4.163   5.136 -1.5572 -0.7661 -1.5521
    6DOPE  H18Y  773   2.510   4.130   5.292  1.9060 -0.3417 -0.0562
    6DOPE  H18Z  774   2.410   4.188   5.146 -0.0225  3.0465  0.1587
    7DOPE     N  775   4.479   6.561   6.717 -0.2474 -0.6534  0.6097
    7DOPE   HN1  776   4.440   6.641   6.770  1.7332  1.0024 -0.3007
    7DOPE   HN2  777   4.454   6.473   6.767  0.8241 -1.0803  0.4260
    7DOPE   HN3  778   4.583   6.570   6.714 -0.2733  0.5415  2.1013
    7DOPE   C12  779   4.422   6.559   6.576  0.3471 -0.0632 -0.1849
    7DOPE  H12A  780   4.429   6.454   6.540  1.1169 -0.1153  0.1044
    7DOPE  H12B  781   4.467   6.641   6.515 -0.1557  0.5595  0.2650
    7DOPE   C11  782   4.273   6.596   6.589  0.4981  0.9455  0.8701
    7DOPE  H11A  783   4.220   6.516   6.644  1.2513 -2.3156 -2.7419
    7DOPE  H11B  784   4.232   6.620   6.489  1.8794  0.6176  0.1921
    7DOPE     P  785   4.132   6.755   6.740 -0.3427  0.4817  0.0276
    7DOPE   O13  786   4.128   6.898   6.766  0.2957 -0.1926  0.1531
    7DOPE   O14  787   4.115   6.663   6.858  0.2991  0.4503 -0.0324
    7DOPE   O11  788   4.028   6.709   6.625 -1.0106  0.4014  0.1510
    7DOPE   O12  789   4.270   6.716   6.668  0.3915  0.5130  0.1600
    7DOPE    C1  790   3.967   6.816   6.545  0.2098  0.2712  0.3045
    7DOPE    HA  791   4.044   6.877   6.494  2.9652 -3.1253  0.0298
    7DOPE    HB  792   3.902   6.881   6.607 -0.2326 -0.8907  1.1025
    7DOPE    C2  793   3.874   6.754   6.439  0.3962  0.3543 -0.0827
    7DOPE    HS  794   3.814   6.677   6.492 -0.0512  0.3977 -0.5181
    7DOPE   O21  795   3.942   6.706   6.323  0.0419 -0.3501 -0.1802
    7DOPE   C21  796   3.960   6.575   6.295  0.3403 -0.2079  0.0039
    7DOPE   O22  797   3.912   6.484   6.357  0.0749 -0.6004  0.1621
    7DOPE   C22  798   4.018   6.558   6.156 -0.2638 -0.1719 -0.1572
    7DOPE   H2R  799   4.120   6.601   6.163  0.0385 -0.6386 -1.3771
    7DOPE   H2S  800   3.957   6.625   6.092 -2.3136 -1.2934  0.5433
    7DOPE    C3  801   3.774   6.860   6.380  0.9669 -0.0086  0.2482
    7DOPE    HX  802   3.826   6.955   6.356  0.4741 -0.5449 -3.5549
    7DOPE    HY  803   3.708   6.882   6.467 -0.9149 -0.0148 -1.1177
    7DOPE   O31  804   3.698   6.820   6.270  0.6461  0.3247  0.1441
    7DOPE   C31  805   3.580   6.758   6.285  0.2036  0.8007 -0.4393
    7DOPE   O32  806   3.538   6.707   6.388  0.5229  0.2308 -0.3954
    7DOPE   C32  807   3.504   6.752   6.157 -0.2098  0.7295 -0.5696
    7DOPE   H2X  808   3.410   6.694   6.172  0.0878  0.0894 -1.0963
    7DOPE   H2Y  809   3.472   6.855   6.131  0.0108  1.3381  1.4025
    7DOPE   C23  810   4.017   6.410   6.109  0.0691  0.0214 -0.6800
    7DOPE   H3R  811   3.919   6.360   6.127  0.1217  0.1970  0.1327
    7DOPE   H3S  812   4.083   6.367   6.187 -1.1056  1.3987  1.1427
    7DOPE   C24  813   4.070   6.398   5.969  0.1892  0.0806  0.2311
    7DOPE   H4R  814   4.157   6.465   5.955  0.0720  0.1850  0.0104
    7DOPE   H4S  815   4.003   6.436   5.889 -0.3821 -2.5282 -0.6278
    7DOPE   C25  816   4.110   6.251   5.929  0.5384  0.3515  0.3731
    7DOPE   H5R  817   4.016   6.193   5.944  0.3001  0.7971  0.6356
    7DOPE   H5S  818   4.189   6.216   5.999  0.8796 -1.9693 -1.0535
    7DOPE   C26  819   4.145   6.251   5.782  0.2437 -0.1091  0.5105
    7DOPE   H6R  820   4.219   6.172   5.758 -1.3598 -0.9588 -1.9185
    7DOPE   H6S  821   4.195   6.349   5.765 -0.0804  0.1544  1.0478
    7DOPE   C27  822   4.024   6.254   5.688  0.8803  0.4712  0.1943
    7DOPE   H7R  823   3.993   6.357   5.661 -1.9262 -0.3442 -0.0150
    7DOPE   H7S  824   3.933   6.219   5.741  0.2449  0.5282 -0.8251
    7DOPE   C28  825   4.050   6.165   5.567  0.3244 -0.3627  0.3605
    7DOPE   H8R  826   4.148   6.196   5.525 -0.7050  2.5011 -0.1845
    7DOPE   H8S  827   3.969   6.176   5.492  0.4368 -1.7233  0.0102
    7DOPE   C29  828   4.044   6.025   5.618  0.3134 -1.0410  0.3685
    7DOPE   H9R  829   3.950   6.013   5.674  0.3057 -3.1088 -0.0358
    7DOPE  C210  830   4.128   5.926   5.606 -0.6159 -0.4699 -0.6714
    7DOPE  H10R  831   4.106   5.831   5.657 -1.1529 -1.2615 -2.2924
    7DOPE  C211  832   4.258   5.930   5.533  0.4218  0.6349  0.5898
    7DOPE  H11R  833   4.346   5.949   5.597  0.6248  0.0650  0.4936
    7DOPE  H11S  834   4.248   6.014   5.461 -2.8529 -0.2759 -0.2420
    7DOPE  C212  835   4.281   5.795   5.460  0.1855 -0.3317 -0.0159
    7DOPE  H12R  836   4.333   5.805   5.363  0.2838  2.2182  0.2279
    7DOPE  H12S  837   4.182   5.758   5.425  0.6621  0.1430 -1.9839
    7DOPE  C213  838   4.344   5.697   5.551  0.6849  0.6807 -0.2763
    7DOPE  H13R  839   4.283   5.697   5.644 -0.3335  0.9553 -0.9205
    7DOPE  H13S  840   4.451   5.715   5.574  1.0417  0.3200 -1.5733
    7DOPE  C214  841   4.311   5.557   5.495 -0.0251 -0.1775 -0.5899
    7DOPE  H14R  842   4.349   5.548   5.390  0.5364 -3.2471 -0.2187
    7DOPE  H14S  843   4.202   5.546   5.483  0.0530 -1.3210 -0.3012
    7DOPE  C215  844   4.357   5.448   5.578  0.0941  0.2105  0.0140
    7DOPE  H15R  845   4.315   5.449   5.681 -1.9171 -1.5501 -0.7133
    7DOPE  H15S  846   4.466   5.468   5.585 -0.2035  3.0636 -1.9414
    7DOPE  C216  847   4.347   5.305   5.520 -0.0806 -0.3231  0.0520
    7DOPE  H16R  848   4.241   5.277   5.500 -0.5491  1.2377  0.2185
    7DOPE  H16S  849   4.397   5.239   5.594 -0.1685 -2.1607 -1.4462
    7DOPE  C217  850   4.417   5.295   5.387 -0.3424 -0.0901 -0.4353
    7DOPE  H17R  851   4.510   5.354   5.398 -1.1394  0.7911  2.9263
    7DOPE  H17S  852   4.355   5.356   5.319 -2.9383 -0.1746  1.6846
    7DOPE  C218  853   4.435   5.155   5.333 -0.5418 -0.2649 -0.7732
    7DOPE  H18R  854   4.367   5.077   5.374 -0.8341  1.5691  2.5439
    7DOPE  H18S  855   4.537   5.117   5.355 -0.7941 -0.7886 -0.4926
    7DOPE  H18T  856   4.428   5.155   5.222  0.6738 -1.5736 -0.8713
    7DOPE   C33  857   3.589   6.695   6.035  0.2888 -0.2484 -0.2553
    7DOPE   H3X  858   3.683   6.755   6.031  0.3567 -0.0112  2.7540
    7DOPE   H3Y  859   3.527   6.720   5.946  0.5095  0.0731 -0.3230
    7DOPE   C34  860   3.617   6.547   6.063  0.8549  0.3160  0.5168
    7DOPE   H4X  861   3.669   6.517   6.156  0.4168  0.3226  0.7610
    7DOPE   H4Y  862   3.516   6.504   6.077  1.6196 -0.8986  2.7373
    7DOPE   C35  863   3.683   6.469   5.943 -0.2678  0.1151  0.2302
    7DOPE   H5X  864   3.662   6.362   5.965 -2.7587  1.0145  2.8088
    7DOPE   H5Y  865   3.792   6.488   5.954 -0.2074  2.4569 -3.1322
    7DOPE   C36  866   3.642   6.534   5.810  0.5336 -0.5856  0.7182
    7DOPE   H6X  867   3.678   6.638   5.799 -0.5617 -0.1472  1.1862
    7DOPE   H6Y  868   3.532   6.542   5.812  0.3794 -1.7105 -0.8298
    7DOPE   C37  869   3.680   6.454   5.686 -0.0141 -0.3369 -0.0143
    7DOPE   H7X  870   3.661   6.526   5.604  1.4792 -1.5247 -1.4529
    7DOPE   H7Y  871   3.790   6.439   5.685  0.1566  0.6385  1.3496
    7DOPE   C38  872   3.615   6.315   5.664  0.6099  0.9526  0.3865
    7DOPE   H8X  873   3.628   6.245   5.749  1.2759 -1.9142 -1.9055
    7DOPE   H8Y  874   3.679   6.266   5.588  1.4333  0.6117  1.2848
    7DOPE   C39  875   3.461   6.318   5.625 -0.1871 -0.3886  0.6480
    7DOPE   H9X  876   3.400   6.349   5.711  1.1027  0.2110  1.3741
    7DOPE  C310  877   3.408   6.285   5.503  0.4000  0.2532  0.0630
    7DOPE  H10X  878   3.299   6.288   5.499  0.2840 -1.0208  1.4139
    7DOPE  C311  879   3.478   6.239   5.374  0.3970  1.1704 -0.9293
    7DOPE  H11X  880   3.584   6.267   5.392  1.2925 -1.4957 -1.5552
    7DOPE  H11Y  881   3.481   6.129   5.362 -1.1590  1.0255 -0.2678
    7DOPE  C312  882   3.422   6.301   5.244 -0.4236  0.0126 -0.0832
    7DOPE  H12X  883   3.429   6.412   5.246 -0.2021  0.0110 -0.7216
    7DOPE  H12Y  884   3.315   6.281   5.223  0.1805  0.2626 -4.2312
    7DOPE  C313  885   3.499   6.259   5.114  0.1872  0.2618  0.2922
    7DOPE  H13X  886   3.603   6.250   5.151 -0.1810 -0.6136  1.1708
    7DOPE  H13Y  887   3.454   6.164   5.076  0.7540  0.6230 -1.3580
    7DOPE  C314  888   3.501   6.373   5.007  0.1733 -0.6630  0.7068
    7DOPE  H14X  889   3.549   6.462   5.051  1.2617 -1.3818  1.0129
    7DOPE  H14Y  890   3.399   6.411   4.983 -0.4649 -2.0479  1.1027
    7DOPE  C315  891   3.568   6.320   4.886 -0.3034  0.6587  0.2499
    7DOPE  H15X  892   3.524   6.219   4.870 -0.4717  0.5813  1.1559
    7DOPE  H15Y  893   3.675   6.303   4.911 -0.4759 -0.3044  0.3897
    7DOPE  C316  894   3.566   6.403   4.766  1.2673 -0.1839 -0.2305
    7DOPE  H16X  895   3.635   6.490   4.772  1.7846 -0.6681  1.0239
    7DOPE  H16Y  896   3.463   6.441   4.752  0.7058 -1.6103 -0.0945
    7DOPE  C317  897   3.607   6.321   4.643  0.2937 -0.5054 -0.1651
    7DOPE  H17X  898   3.701   6.268   4.666  1.3807  0.7393 -1.5045
    7DOPE  H17Y  899   3.527   6.247   4.625 -0.1424 -0.0654 -0.0663
    7DOPE  C318  900   3.636   6.418   4.523  0.1528  0.3119  0.1437
    7DOPE  H18X  901   3.561   6.500   4.515  0.0953  0.0792 -2.1899
    7DOPE  H18Y  902   3.736   6.460   4.545  0.1366 -0.3125  1.5604
    7DOPE  H18Z  903   3.625   6.362   4.428 -1.1199 -1.3014  1.1834
    8DOPE     N  904   4.388   5.854   7.170 -0.5042  0.3735  0.0073
    8DOPE   HN1  905   4.441   5.941   7.191 -0.6984  0.5108 -0.0687
    8DOPE   HN2  906   4.386   5.799   7.259  2.2255 -2.2636 -1.3984
    8DOPE   HN3  907   4.437   5.814   7.089 -2.8373  0.8503 -1.7612
    8DOPE   C12  908   4.248   5.877   7.127  0.6736  0.3608 -0.1106
    8DOPE  H12A  909   4.239   5.963   7.057 -0.6803  0.6691  0.4074
    8DOPE  H12B  910   4.197   5.915   7.218  1.7251 -0.0814  0.6841
    8DOPE   C11  911   4.182   5.753   7.069 -0.2820 -0.4559  0.3176
    8DOPE  H11A  912   4.076   5.782   7.053  0.6560  1.9566 -2.5190
    8DOPE  H11B  913   4.184   5.673   7.146 -1.5809  0.4697  1.3608
    8DOPE     P  914   4.182   5.647   6.828  0.1081 -0.3135 -0.1251
    8DOPE   O13  915   4.040   5.671   6.828  0.6071 -0.8179 -0.3582
    8DOPE   O14  916   4.220   5.506   6.822 -0.2978  0.8524  0.1187
    8DOPE   O11  917   4.248   5.722   6.708 -0.0932 -0.0531 -0.4017
    8DOPE   O12  918   4.254   5.719   6.951  0.0445  0.1761  0.0858
    8DOPE    C1  919   4.234   5.870   6.709  0.0380  0.7045 -0.6508
    8DOPE    HA  920   4.319   5.926   6.754 -2.0028  2.0860  1.7977
    8DOPE    HB  921   4.146   5.916   6.759  0.5025  1.9081 -0.8883
    8DOPE    C2  922   4.235   5.923   6.565 -0.2581 -0.2257 -0.1853
    8DOPE    HS  923   4.239   6.034   6.573 -1.6352 -0.0032 -1.9077
    8DOPE   O21  924   4.117   5.878   6.505 -0.6762 -0.0612  0.3302
    8DOPE   C21  925   4.071   5.966   6.418  0.6268  0.8402  0.1965
    8DOPE   O22  926   4.111   6.078   6.396  0.0267 -0.5306  0.1212
    8DOPE   C22  927   3.939   5.909   6.364 -0.3729  0.6423 -0.0067
    8DOPE   H2R  928   3.867   5.893   6.447 -1.3805 -1.3798 -1.1788
    8DOPE   H2S  929   3.968   5.806   6.331  0.2385  1.6108 -2.8024
    8DOPE    C3  930   4.362   5.891   6.490  0.4490  0.4018 -0.4023
    8DOPE    HX  931   4.351   5.784   6.464  0.8350  0.0316  0.8661
    8DOPE    HY  932   4.448   5.904   6.559 -0.9811 -2.3990  2.1018
    8DOPE   O31  933   4.369   5.968   6.365  1.2244  0.0089  0.2260
    8DOPE   C31  934   4.430   6.089   6.382  0.0458  0.5721 -0.2949
    8DOPE   O32  935   4.475   6.136   6.483  0.3663 -0.2666 -0.5215
    8DOPE   C32  936   4.437   6.156   6.250 -0.1161  0.3226 -0.1004
    8DOPE   H2X  937   4.509   6.099   6.188 -1.3375 -1.2517 -0.1424
    8DOPE   H2Y  938   4.336   6.147   6.205 -0.1670 -0.2589  0.1175
    8DOPE   C23  939   3.895   5.992   6.244 -0.3297 -0.5270 -0.3254
    8DOPE   H3R  940   3.847   5.938   6.160 -0.8367  0.5097 -0.7227
    8DOPE   H3S  941   3.975   6.047   6.190 -1.2856  1.3918  0.1221
    8DOPE   C24  942   3.791   6.097   6.284  0.0935  0.4420  0.9023
    8DOPE   H4R  943   3.848   6.186   6.320 -1.1509  0.5479  2.7528
    8DOPE   H4S  944   3.721   6.058   6.361 -1.9127  0.8536 -0.6256
    8DOPE   C25  945   3.706   6.144   6.170 -0.0673 -0.0607 -0.1729
    8DOPE   H5R  946   3.768   6.160   6.079  0.3539 -1.9079 -0.2474
    8DOPE   H5S  947   3.686   6.252   6.189 -0.4991 -0.4314  1.6485
    8DOPE   C26  948   3.580   6.061   6.144  1.1312  0.3176  0.3883
    8DOPE   H6R  949   3.514   6.080   6.232 -0.0744  1.0036 -0.6246
    8DOPE   H6S  950   3.599   5.952   6.146  0.9651  0.1486 -2.7380
    8DOPE   C27  951   3.497   6.088   6.014  0.0355 -0.0512 -0.2574
    8DOPE   H7R  952   3.544   6.026   5.935 -2.9300 -0.4638 -1.8414
    8DOPE   H7S  953   3.499   6.192   5.976 -2.6626  0.5026  0.8685
    8DOPE   C28  954   3.354   6.042   6.032  0.2660  0.4433  0.1639
    8DOPE   H8R  955   3.353   5.946   6.089 -2.7401  0.5528  0.5077
    8DOPE   H8S  956   3.307   6.020   5.934 -2.5363 -0.2797  1.5381
    8DOPE   C29  957   3.263   6.125   6.118 -0.0481  0.5647  0.2518
    8DOPE   H9R  958   3.301   6.214   6.170 -0.1650 -0.6797  2.6255
    8DOPE  C210  959   3.129   6.102   6.137 -0.2108  0.0132 -0.9569
    8DOPE  H10R  960   3.082   6.174   6.206  1.4147 -0.5363  0.7854
    8DOPE  C211  961   3.042   5.997   6.089 -0.1964  0.2905  0.1355
    8DOPE  H11R  962   2.960   5.962   6.156  1.3450 -2.7816  0.5844
    8DOPE  H11S  963   3.107   5.909   6.070  0.5475  0.9103 -0.1843
    8DOPE  C212  964   2.984   6.025   5.950  0.4303 -0.6710 -0.1529
    8DOPE  H12R  965   3.066   6.028   5.875 -0.9829 -1.2583 -1.7976
    8DOPE  H12S  966   2.923   6.118   5.953  0.7169 -0.4454 -1.0519
    8DOPE  C213  967   2.883   5.915   5.909  0.5862 -0.7547 -0.2389
    8DOPE  H13R  968   2.794   5.903   5.974 -1.5107 -0.7772 -2.9139
    8DOPE  H13S  969   2.933   5.817   5.914 -1.8298 -2.0057  1.5912
    8DOPE  C214  970   2.833   5.921   5.770  0.8166  0.1755  0.0400
    8DOPE  H14R  971   2.922   5.904   5.705 -0.0176 -4.3774 -0.2711
    8DOPE  H14S  972   2.800   6.025   5.752  4.8468  1.8693  1.3331
    8DOPE  C215  973   2.727   5.815   5.738  0.3666 -0.0493 -0.2138
    8DOPE  H15R  974   2.636   5.841   5.796 -0.7752  2.7118 -2.9830
    8DOPE  H15S  975   2.772   5.716   5.758 -3.0993 -1.6889  0.0717
    8DOPE  C216  976   2.674   5.808   5.592 -0.0157  0.1716  0.2382
    8DOPE  H16R  977   2.601   5.890   5.573 -1.3275 -1.5502 -3.0280
    8DOPE  H16S  978   2.611   5.719   5.572 -1.7512  1.5752 -0.8371
    8DOPE  C217  979   2.791   5.815   5.487  0.5327  0.1689 -0.0036
    8DOPE  H17R  980   2.863   5.737   5.521  0.0993 -0.5744 -0.7721
    8DOPE  H17S  981   2.842   5.914   5.492  1.0500 -0.0010 -1.5187
    8DOPE  C218  982   2.741   5.778   5.346  0.6887 -0.4989 -0.6297
    8DOPE  H18R  983   2.656   5.707   5.333  0.0780 -0.3111  1.7916
    8DOPE  H18S  984   2.824   5.743   5.281  2.0910  0.8264  0.3810
    8DOPE  H18T  985   2.712   5.869   5.291 -0.7320 -0.1402  0.6510
    8DOPE   C33  986   4.472   6.301   6.282  0.4243  0.0204 -0.1457
    8DOPE   H3X  987   4.570   6.298   6.334  0.4389 -2.8262 -0.2296
    8DOPE   H3Y  988   4.394   6.341   6.350  1.5513 -2.4415  2.7861
    8DOPE   C34  989   4.501   6.378   6.152  0.2391  0.3821 -0.4808
    8DOPE   H4X  990   4.607   6.363   6.123  1.2345  3.5067  1.1104
    8DOPE   H4Y  991   4.426   6.339   6.080  1.3554 -3.4889  0.2261
    8DOPE   C35  992   4.490   6.530   6.173 -0.1603 -0.3907  0.6371
    8DOPE   H5X  993   4.575   6.556   6.239  1.0363 -1.6667 -0.3342
    8DOPE   H5Y  994   4.404   6.551   6.240 -1.1769 -1.5338 -0.2495
    8DOPE   C36  995   4.475   6.612   6.049 -0.0080 -0.2144 -0.6033
    8DOPE   H6X  996   4.369   6.605   6.018 -1.4944  4.9814  2.1338
    8DOPE   H6Y  997   4.543   6.583   5.966 -0.3328  0.0027 -0.9458
    8DOPE   C37  998   4.489   6.764   6.080 -0.4285  1.0088 -0.0687
    8DOPE   H7X  999   4.597   6.790   6.092 -0.4445  0.3317  1.7928
    8DOPE   H7Y 1000   4.464   6.817   5.985 -2.9004 -0.3269 -0.2219
    8DOPE   C38 1001   4.404   6.808   6.199 -0.3146  0.0765  0.0133
    8DOPE   H8X 1002   4.442   6.759   6.291 -1.1246 -0.6633 -0.0246
    8DOPE   H8Y 1003   4.298   6.783   6.177 -0.9525  2.7866 -0.2453
    8DOPE   C39 1004   4.437   6.956   6.217  0.7179 -0.0221  0.7984
    8DOPE   H9X 1005   4.536   6.994   6.186  0.4128 -0.1940 -0.4383
    8DOPE  C310 1006   4.353   7.046   6.263  0.0936  1.6113 -0.3821
    8DOPE  H10X 1007   4.372   7.154   6.264  1.9859  1.3209  1.7507
    8DOPE  C311 1008   4.207   7.021   6.307  0.5679  0.5532  0.0674
    8DOPE  H11X 1009   4.178   6.914   6.311 -0.3457  0.8024  0.6115
    8DOPE  H11Y 1010   4.201   7.056   6.413 -2.4893  0.3166  0.0670
    8DOPE  C312 1011   4.097   7.085   6.227  0.9517 -0.3622 -0.3418
    8DOPE  H12X 1012   4.118   7.194   6.224 -0.1927 -0.0305  1.9516
    8DOPE  H12Y 1013   3.998   7.066   6.274  1.1634  0.1240  0.3150
    8DOPE  C313 1014   4.090   7.047   6.076 -0.0621  0.1227  0.0454
    8DOPE  H13X 1015   4.037   7.127   6.020 -1.0155  0.2975  1.1609
    8DOPE  H13Y 1016   4.193   7.039   6.034  0.2530  2.0249  0.3928
    8DOPE  C314 1017   4.024   6.911   6.057  0.6873  0.1730  0.1476
    8DOPE  H14X 1018   3.918   6.925   6.085  0.8030 -0.4383  0.9103
    8DOPE  H14Y 1019   4.058   6.829   6.124  0.5696 -0.7009 -0.8333
    8DOPE  C315 1020   4.033   6.862   5.908  0.3518  0.4410  0.3020
    8DOPE  H15X 1021   4.003   6.945   5.841 -2.1978 -0.4688  0.1838
    8DOPE  H15Y 1022   3.964   6.776   5.896 -1.0745  1.5809  0.0739
    8DOPE  C316 1023   4.171   6.800   5.876 -0.3689  0.0625  0.3263
    8DOPE  H16X 1024   4.202   6.732   5.959  0.2635  0.0009  0.0445
    8DOPE  H16Y 1025   4.245   6.883   5.884  0.0824 -0.2058 -0.8970
    8DOPE  C317 1026   4.213   6.740   5.740 -0.6058 -0.0899  0.1121
    8DOPE  H17X 1027   4.321   6.716   5.745  0.0534  2.6798  0.6308
    8DOPE  H17Y 1028   4.156   6.645   5.729  0.6912 -0.9800  0.7997
    8DOPE  C318 1029   4.186   6.831   5.623  0.7930  0.0649  0.2536
    8DOPE  H18X 1030   4.082   6.836   5.583  1.5341  0.1663 -1.8068
    8DOPE  H18Y 1031   4.250   6.796   5.539 -0.5265 -0.2961 -0.6369
    8DOPE  H18Z 1032   4.216   6.934   5.651  0.0090  0.0438  1.2451
    9DOPE     N 1033   0.480   3.063   6.920 -0.0136 -0.1291 -0.0629
    9DOPE   HN1 1034   0.519   2.969   6.940  1.3262  0.4809  0.3263
    9DOPE   HN2 1035   0.558   3.119   6.960  0.2109 -0.8335  0.5038
    9DOPE   HN3 1036   0.392   3.083   6.973 -0.0759 -1.8045  0.5155
    9DOPE   C12 1037   0.480   3.081   6.765 -0.1695 -0.5752 -0.7645
    9DOPE  H12A 1038   0.450   2.984   6.720 -2.0227 -0.3496 -0.0839
    9DOPE  H12B 1039   0.586   3.104   6.742  0.0338 -1.0672 -0.3343
    9DOPE   C11 1040   0.382   3.192   6.732 -0.0287  0.1343  0.1228
    9DOPE  H11A 1041   0.285   3.169   6.780 -0.1852  0.1929 -0.1590
    9DOPE  H11B 1042   0.369   3.210   6.623  1.6520  0.1012 -0.1145
    9DOPE     P 1043   0.472   3.447   6.706  0.1869 -0.1414 -0.1257
    9DOPE   O13 1044   0.601   3.493   6.767 -0.1014 -0.3687 -0.4572
    9DOPE   O14 1045   0.350   3.533   6.713  0.0488 -0.0093 -0.1145
    9DOPE   O11 1046   0.491   3.394   6.558 -0.2196  0.4518  0.2691
    9DOPE   O12 1047   0.427   3.318   6.789 -0.6107 -0.2425  0.2112
    9DOPE    C1 1048   0.612   3.319   6.535 -0.2205 -0.1499  0.2469
    9DOPE    HA 1049   0.607   3.252   6.446 -0.2726 -0.5740  0.5662
    9DOPE    HB 1050   0.651   3.253   6.615  0.3490  0.9940  0.9390
    9DOPE    C2 1051   0.728   3.421   6.499  0.2729 -0.3763  0.5494
    9DOPE    HS 1052   0.697   3.516   6.548 -0.3883  0.1701 -0.8492
    9DOPE   O21 1053   0.750   3.429   6.355  0.1124  0.0402  0.3902
    9DOPE   C21 1054   0.768   3.548   6.297 -0.4232 -0.4042 -0.4004
    9DOPE   O22 1055   0.742   3.650   6.353  0.1767 -0.3642 -0.4358
    9DOPE   C22 1056   0.820   3.524   6.159  0.5936  0.7925 -0.5864
    9DOPE   H2R 1057   0.768   3.436   6.116  3.1103  0.0511 -2.3344
    9DOPE   H2S 1058   0.927   3.496   6.174  0.0528 -0.9251  0.2225
    9DOPE    C3 1059   0.866   3.378   6.574  0.0772  0.0235  0.0585
    9DOPE    HX 1060   0.863   3.268   6.558 -0.5897  0.2746 -1.8345
    9DOPE    HY 1061   0.862   3.387   6.685  0.6307 -1.7071  0.2466
    9DOPE   O31 1062   0.986   3.430   6.512  0.5533  0.6056  0.0268
    9DOPE   C31 1063   1.015   3.558   6.552 -0.0482 -0.6454 -0.4051
    9DOPE   O32 1064   0.959   3.610   6.642  0.2143 -0.1631 -0.2681
    9DOPE   C32 1065   1.126   3.618   6.465 -0.7137 -0.3203  0.0778
    9DOPE   H2X 1066   1.193   3.541   6.422 -0.1091  0.3904 -0.2875
    9DOPE   H2Y 1067   1.081   3.684   6.388  0.6129  1.6697  0.9046
    9DOPE   C23 1068   0.825   3.649   6.065 -0.2239  0.2730 -1.1392
    9DOPE   H3R 1069   0.907   3.718   6.094 -1.0473  1.3532 -1.2677
    9DOPE   H3S 1070   0.731   3.709   6.075 -1.7449 -2.1543  0.0823
    9DOPE   C24 1071   0.852   3.622   5.917 -0.0705  0.1995 -0.4096
    9DOPE   H4R 1072   0.775   3.550   5.882 -1.6979  2.1801 -1.1066
    9DOPE   H4S 1073   0.959   3.593   5.914 -0.0867 -0.2401  1.5426
    9DOPE   C25 1074   0.859   3.754   5.832  0.3530 -0.0757  1.6049
    9DOPE   H5R 1075   0.953   3.802   5.864  0.5966  0.9460 -0.4965
    9DOPE   H5S 1076   0.785   3.834   5.849  2.5566  2.7021 -0.8932
    9DOPE   C26 1077   0.873   3.735   5.678 -0.3381  0.7027  0.5043
    9DOPE   H6R 1078   0.853   3.827   5.620  1.3558  1.0209  0.3952
    9DOPE   H6S 1079   0.802   3.654   5.650  0.7450  0.0824 -0.5107
    9DOPE   C27 1080   1.011   3.686   5.629  0.1139  0.1518 -0.1404
    9DOPE   H7R 1081   1.048   3.599   5.687  0.1916  2.1029  2.9675
    9DOPE   H7S 1082   1.076   3.771   5.658 -1.3682  1.1741  0.3443
    9DOPE   C28 1083   1.001   3.666   5.481  0.7816  0.2778 -0.5057
    9DOPE   H8R 1084   0.967   3.761   5.435 -2.1714  0.0889  1.0659
    9DOPE   H8S 1085   0.930   3.584   5.457 -1.6166  1.3066  2.5196
    9DOPE   C29 1086   1.143   3.622   5.452 -0.1276  1.1524  0.2551
    9DOPE   H9R 1087   1.161   3.515   5.465  2.9182  0.8051 -4.4002
    9DOPE  C210 1088   1.237   3.700   5.410  0.5725  0.1288  0.3423
    9DOPE  H10R 1089   1.323   3.653   5.361 -1.1337 -0.2411 -2.4837
    9DOPE  C211 1090   1.214   3.850   5.389  0.2747 -0.0572  0.0517
    9DOPE  H11R 1091   1.299   3.902   5.439  0.8249 -1.0575  0.1706
    9DOPE  H11S 1092   1.129   3.882   5.453 -0.5758  1.3368 -1.6846
    9DOPE  C212 1093   1.205   3.898   5.244  0.4686  0.6692 -0.5514
    9DOPE  H12R 1094   1.112   3.860   5.197  0.6905 -2.4051  1.2439
    9DOPE  H12S 1095   1.290   3.880   5.175 -0.4460  1.4404 -1.9301
    9DOPE  C213 1096   1.185   4.053   5.232  0.3456 -1.4768 -0.9383
    9DOPE  H13R 1097   1.273   4.103   5.278 -0.5483 -1.9770  1.4745
    9DOPE  H13S 1098   1.086   4.075   5.277  0.2414 -1.6594 -1.0755
    9DOPE  C214 1099   1.167   4.113   5.090 -0.1036 -0.0606 -0.3611
    9DOPE  H14R 1100   1.144   4.221   5.099 -0.3450  0.0694 -2.1639
    9DOPE  H14S 1101   1.072   4.066   5.054 -0.2140 -0.2720  0.1940
    9DOPE  C215 1102   1.280   4.078   4.993 -0.4105 -0.0936 -0.0157
    9DOPE  H15R 1103   1.264   3.971   4.968  0.0038 -0.2716  0.4726
    9DOPE  H15S 1104   1.379   4.073   5.044 -1.1873  1.6251  1.7948
    9DOPE  C216 1105   1.290   4.169   4.869 -0.6515 -0.0885  0.2723
    9DOPE  H16R 1106   1.365   4.134   4.794 -1.0171  0.0997 -0.1861
    9DOPE  H16S 1107   1.319   4.273   4.897  0.4061 -0.3366  0.1481
    9DOPE  C217 1108   1.158   4.165   4.795  0.3661  0.6571 -0.2538
    9DOPE  H17R 1109   1.081   4.225   4.848  0.4334  0.6957 -0.1981
    9DOPE  H17S 1110   1.124   4.060   4.792  0.4986  0.6221 -0.6060
    9DOPE  C218 1111   1.171   4.219   4.653  0.0813  0.0005 -0.0622
    9DOPE  H18R 1112   1.217   4.138   4.592 -1.8122 -0.7921 -0.5374
    9DOPE  H18S 1113   1.221   4.317   4.661  2.0018 -1.0208  1.1680
    9DOPE  H18T 1114   1.069   4.222   4.609  0.1155 -1.0316 -0.2436
    9DOPE   C33 1115   1.220   3.716   6.546  0.2454  0.0046 -0.1886
    9DOPE   H3X 1116   1.244   3.682   6.649  0.8583  4.9336  1.5448
    9DOPE   H3Y 1117   1.167   3.813   6.553  1.9323  0.9278  0.3016
    9DOPE   C34 1118   1.345   3.753   6.478 -0.2869 -0.7230  0.3190
    9DOPE   H4X 1119   1.415   3.801   6.550 -2.8559  1.1645  1.7416
    9DOPE   H4Y 1120   1.394   3.657   6.450  0.8213  0.5184 -2.2865
    9DOPE   C35 1121   1.334   3.844   6.354 -0.4182 -0.3354 -0.5157
    9DOPE   H5X 1122   1.301   3.942   6.396 -0.5969 -0.8421  0.5617
    9DOPE   H5Y 1123   1.266   3.810   6.274 -1.2676  1.5148 -0.6360
    9DOPE   C36 1124   1.480   3.879   6.298 -0.5785  0.3559 -0.1220
    9DOPE   H6X 1125   1.532   3.782   6.310  1.1440  1.0697 -1.4454
    9DOPE   H6Y 1126   1.530   3.954   6.363  0.3901  0.0325 -0.4770
    9DOPE   C37 1127   1.489   3.907   6.147 -0.5228  1.2828  0.0353
    9DOPE   H7X 1128   1.410   3.836   6.117 -2.8868  2.6468  2.5512
    9DOPE   H7Y 1129   1.455   4.011   6.126  0.6310  1.3245 -1.8476
    9DOPE   C38 1130   1.631   3.870   6.083  0.6272 -0.2238 -0.0482
    9DOPE   H8X 1131   1.621   3.890   5.974  0.0905  3.7356  0.6030
    9DOPE   H8Y 1132   1.638   3.762   6.108 -1.3067 -0.2160  0.6715
    9DOPE   C39 1133   1.747   3.939   6.145  0.1656  0.2054  0.5699
    9DOPE   H9X 1134   1.741   3.967   6.251 -0.4197  0.8267  0.3800
    9DOPE  C310 1135   1.862   3.976   6.078  0.2343 -0.6436  0.8497
    9DOPE  H10X 1136   1.936   4.031   6.137 -1.4948  1.6031  1.0353
    9DOPE  C311 1137   1.896   3.957   5.924 -1.1281 -0.0004 -0.5421
    9DOPE  H11X 1138   2.006   3.938   5.919 -0.9640 -0.4765  2.8271
    9DOPE  H11Y 1139   1.843   3.872   5.876 -1.1792 -0.1913 -0.1474
    9DOPE  C312 1140   1.861   4.087   5.843 -0.4403 -0.3887  0.1500
    9DOPE  H12X 1141   1.757   4.119   5.869  0.5240  2.9257  0.4176
    9DOPE  H12Y 1142   1.868   4.076   5.733  1.9732  2.3887 -0.1046
    9DOPE  C313 1143   1.943   4.213   5.884  0.0476 -0.0468 -0.1339
    9DOPE  H13X 1144   1.927   4.277   5.794 -0.1404  0.2055  0.0779
    9DOPE  H13Y 1145   1.895   4.244   5.979 -0.3615 -4.2573  1.2419
    9DOPE  C314 1146   2.095   4.195   5.900 -0.8361  0.2433  0.3094
    9DOPE  H14X 1147   2.137   4.165   5.802 -0.2577  0.6634  0.4263
    9DOPE  H14Y 1148   2.122   4.110   5.967  1.6621  0.3545 -0.4428
    9DOPE  C315 1149   2.173   4.323   5.942  0.0470  0.1660 -0.4128
    9DOPE  H15X 1150   2.180   4.325   6.053  1.0067 -1.3714 -0.4210
    9DOPE  H15Y 1151   2.104   4.405   5.910 -1.3577 -1.0314 -0.5448
    9DOPE  C316 1152   2.313   4.323   5.884 -0.2301 -0.3474  0.3222
    9DOPE  H16X 1153   2.327   4.335   5.775 -0.6383  0.7470  0.3713
    9DOPE  H16Y 1154   2.358   4.225   5.909  1.1477 -0.1693 -1.2995
    9DOPE  C317 1155   2.409   4.426   5.949  0.2713  0.0833 -0.5496
    9DOPE  H17X 1156   2.411   4.420   6.060  1.4493  1.8899 -0.4390
    9DOPE  H17Y 1157   2.513   4.388   5.941  0.4864  0.4684  0.3439
    9DOPE  C318 1158   2.395   4.570   5.900  0.0397 -0.4593 -0.7363
    9DOPE  H18X 1159   2.453   4.638   5.965  0.8732 -0.2250 -1.7045
    9DOPE  H18Y 1160   2.438   4.573   5.797  1.9905  0.5822  0.0622
    9DOPE  H18Z 1161   2.289   4.603   5.905 -0.2886 -1.3563 -1.4317
   10DOPE     N 1162   0.618   5.457   7.218  0.7391 -0.2357 -0.2081
   10DOPE   HN1 1163   0.619   5.559   7.202 -1.5223 -0.1313 -0.0788
   10DOPE   HN2 1164   0.540   5.434   7.284  0.6460  2.6107  0.7862
   10DOPE   HN3 1165   0.708   5.435   7.266 -0.1731 -2.1819  0.7468
   10DOPE   C12 1166   0.605   5.385   7.087  0.0578 -0.3664  0.3380
   10DOPE  H12A 1167   0.513   5.423   7.037 -0.4083 -2.2093 -0.2975
   10DOPE  H12B 1168   0.584   5.277   7.103 -1.4856 -0.3571 -1.3190
   10DOPE   C11 1169   0.729   5.409   6.987  0.2920 -0.0283  0.0271
   10DOPE  H11A 1170   0.727   5.513   6.947  1.1322  0.1116  0.3271
   10DOPE  H11B 1171   0.718   5.343   6.899 -0.9912  0.1322  0.0490
   10DOPE     P 1172   0.933   5.253   7.057  0.3367  0.0969 -0.3733
   10DOPE   O13 1173   0.838   5.141   7.045  0.1029 -0.3746  0.4127
   10DOPE   O14 1174   1.014   5.249   7.182 -0.3888  0.5840  0.4625
   10DOPE   O11 1175   1.042   5.253   6.940  0.1182 -0.5925  0.1444
   10DOPE   O12 1176   0.860   5.391   7.045 -0.1611  0.4650 -0.2364
   10DOPE    C1 1177   1.087   5.382   6.884  0.2424  0.7562 -0.9760
   10DOPE    HA 1178   1.197   5.384   6.868  0.0855  1.3941 -2.0600
   10DOPE    HB 1179   1.077   5.460   6.962 -2.4281 -0.6606  0.2463
   10DOPE    C2 1180   1.016   5.404   6.754  0.3550 -0.4701  0.2344
   10DOPE    HS 1181   0.918   5.445   6.783  1.3698  1.9913  0.4005
   10DOPE   O21 1182   1.007   5.279   6.678 -0.1692 -0.0243  0.3590
   10DOPE   C21 1183   0.886   5.228   6.653  0.0037  0.6359  0.3641
   10DOPE   O22 1184   0.778   5.270   6.687 -0.1199 -0.2273 -0.4843
   10DOPE   C22 1185   0.900   5.101   6.570  0.4097 -0.1276  0.7936
   10DOPE   H2R 1186   0.842   5.031   6.633  0.2379 -1.9253 -1.2446
   10DOPE   H2S 1187   1.007   5.073   6.560 -0.1492 -1.8818 -0.9126
   10DOPE    C3 1188   1.091   5.509   6.673  0.0121  0.3195  0.1561
   10DOPE    HX 1189   1.193   5.468   6.656  0.8746  1.7033  1.7049
   10DOPE    HY 1190   1.106   5.597   6.738  0.3111  0.7567 -0.4916
   10DOPE   O31 1191   1.019   5.549   6.552 -0.0440  0.1334  0.4407
   10DOPE   C31 1192   0.923   5.640   6.569 -0.2877 -0.3185 -0.2442
   10DOPE   O32 1193   0.896   5.699   6.676  0.2324 -0.1207  0.2911
   10DOPE   C32 1194   0.845   5.657   6.438  0.2245  0.3519 -0.1244
   10DOPE   H2X 1195   0.859   5.759   6.396  1.5632  1.3715  2.5658
   10DOPE   H2Y 1196   0.868   5.587   6.354 -1.6236 -1.7213  1.0012
   10DOPE   C23 1197   0.828   5.106   6.434  0.1640 -0.0218  0.5673
   10DOPE   H3R 1198   0.728   5.155   6.440  0.8495  1.6628 -0.8343
   10DOPE   H3S 1199   0.821   5.004   6.389  0.8188  0.4117 -0.5643
   10DOPE   C24 1200   0.911   5.176   6.327 -0.0900 -0.7914  0.4738
   10DOPE   H4R 1201   0.999   5.110   6.311  0.3583  0.0410 -0.5831
   10DOPE   H4S 1202   0.947   5.278   6.354 -0.9911  0.1038 -1.5189
   10DOPE   C25 1203   0.836   5.188   6.192  0.2797  0.0439 -0.8058
   10DOPE   H5R 1204   0.730   5.201   6.223  0.3150  3.5231 -1.8151
   10DOPE   H5S 1205   0.844   5.084   6.152  1.6200 -0.1015 -0.2148
   10DOPE   C26 1206   0.875   5.309   6.108 -0.0975 -0.4101 -0.1288
   10DOPE   H6R 1207   0.981   5.304   6.076  0.1678 -2.9967  0.9166
   10DOPE   H6S 1208   0.844   5.396   6.170 -0.2347  0.3145 -1.1938
   10DOPE   C27 1209   0.794   5.321   5.974  0.0647 -0.6803  0.0721
   10DOPE   H7R 1210   0.685   5.316   5.997  0.0127 -1.1697 -0.2762
   10DOPE   H7S 1211   0.810   5.233   5.909 -0.7635 -1.1012  0.4178
   10DOPE   C28 1212   0.842   5.442   5.898  0.4061  0.6337  0.1519
   10DOPE   H8R 1213   0.794   5.439   5.798 -2.2263  0.6194  1.3141
   10DOPE   H8S 1214   0.953   5.442   5.892  0.4553  2.5122  0.3586
   10DOPE   C29 1215   0.802   5.577   5.956  0.2861  0.4419 -0.6688
   10DOPE   H9R 1216   0.695   5.579   5.982  0.7702 -1.4491  1.9049
   10DOPE  C210 1217   0.878   5.682   5.988 -0.3521 -0.5630 -0.0749
   10DOPE  H10R 1218   0.829   5.772   6.028 -0.4455 -0.9849  0.7741
   10DOPE  C211 1219   1.030   5.687   5.970  0.0288 -0.0040  0.4100
   10DOPE  H11R 1220   1.074   5.593   5.931 -1.1352 -0.3966 -0.0076
   10DOPE  H11S 1221   1.081   5.703   6.067 -1.1793  1.1445  0.8815
   10DOPE  C212 1222   1.081   5.795   5.865  0.2219  1.1511  0.0288
   10DOPE  H12R 1223   1.191   5.805   5.877  0.2997  1.3463 -0.7740
   10DOPE  H12S 1224   1.044   5.894   5.899 -2.7018  0.0488  0.3465
   10DOPE  C213 1225   1.038   5.773   5.720  0.6364  0.0516 -0.1706
   10DOPE  H13R 1226   0.928   5.762   5.727  0.7102 -0.4010  0.3732
   10DOPE  H13S 1227   1.078   5.684   5.667 -0.0804  0.3826 -1.3045
   10DOPE  C214 1228   1.070   5.898   5.635 -0.7333 -0.1259  0.0789
   10DOPE  H14R 1229   1.175   5.926   5.657  0.7301 -3.3176 -2.0864
   10DOPE  H14S 1230   1.001   5.981   5.662  0.7705  0.8007  1.2433
   10DOPE  C215 1231   1.053   5.885   5.485 -0.5704  0.3449 -0.5873
   10DOPE  H15R 1232   1.041   5.990   5.451  0.2666  0.8497  0.6118
   10DOPE  H15S 1233   0.959   5.829   5.464 -0.8809  0.3705  0.6696
   10DOPE  C216 1234   1.169   5.804   5.412  0.6750 -0.1632 -0.0642
   10DOPE  H16R 1235   1.159   5.695   5.432  0.7530 -0.2013 -0.2392
   10DOPE  H16S 1236   1.271   5.815   5.455  0.7301 -1.9834  0.3766
   10DOPE  C217 1237   1.167   5.841   5.262  0.1521  0.4535 -0.1002
   10DOPE  H17R 1238   1.150   5.949   5.244  1.7525  0.4809 -1.7798
   10DOPE  H17S 1239   1.075   5.792   5.224 -1.1534  2.8711 -0.2574
   10DOPE  C218 1240   1.286   5.801   5.179 -0.2126  0.2505  0.0223
   10DOPE  H18R 1241   1.372   5.859   5.220 -0.4067  1.2531 -0.9363
   10DOPE  H18S 1242   1.269   5.828   5.073 -0.1264  2.5603  0.5253
   10DOPE  H18T 1243   1.306   5.693   5.193 -1.0734 -0.1842 -1.7960
   10DOPE   C33 1244   0.696   5.632   6.468 -0.0791 -0.0964 -0.0106
   10DOPE   H3X 1245   0.664   5.690   6.557 -0.4594 -1.8148  1.0206
   10DOPE   H3Y 1246   0.693   5.524   6.497  0.4407 -0.1050  0.0146
   10DOPE   C34 1247   0.614   5.661   6.340  0.1907 -0.6043  0.4420
   10DOPE   H4X 1248   0.653   5.756   6.297 -0.0630 -0.0123  1.4888
   10DOPE   H4Y 1249   0.645   5.581   6.269  2.3997 -1.4063  2.1882
   10DOPE   C35 1250   0.464   5.667   6.356 -0.4626 -0.6486  0.3938
   10DOPE   H5X 1251   0.449   5.758   6.418 -3.0235 -2.0036  1.9522
   10DOPE   H5Y 1252   0.443   5.566   6.396 -2.0302  1.0861  4.5283
   10DOPE   C36 1253   0.394   5.703   6.221 -1.4111  0.4881 -0.4386
   10DOPE   H6X 1254   0.434   5.803   6.197  1.0508 -0.8746 -2.5292
   10DOPE   H6Y 1255   0.284   5.707   6.240 -1.1137  2.2268  1.2112
   10DOPE   C37 1256   0.414   5.610   6.102 -0.1737 -0.1610  0.1844
   10DOPE   H7X 1257   0.518   5.571   6.098 -0.7486 -1.7507 -0.7133
   10DOPE   H7Y 1258   0.343   5.525   6.115 -0.7823  0.3995  0.5445
   10DOPE   C38 1259   0.379   5.677   5.966 -0.5623  0.2742  0.7082
   10DOPE   H8X 1260   0.294   5.746   5.985 -1.3598 -0.1427 -1.0865
   10DOPE   H8Y 1261   0.347   5.611   5.883 -1.2495  1.5309 -0.0587
   10DOPE   C39 1262   0.490   5.762   5.910 -0.1567 -0.3032 -0.6176
   10DOPE   H9X 1263   0.515   5.848   5.973 -0.8498  0.7145 -1.6845
   10DOPE  C310 1264   0.554   5.751   5.794  0.0578  1.3762  0.0359
   10DOPE  H10X 1265   0.642   5.811   5.765  3.6053 -3.3974 -0.3832
   10DOPE  C311 1266   0.524   5.637   5.698  0.3621  0.0244 -0.8089
   10DOPE  H11X 1267   0.529   5.536   5.745  0.8607 -1.0987 -3.1443
   10DOPE  H11Y 1268   0.421   5.644   5.655 -0.5997 -0.9072  1.2018
   10DOPE  C312 1269   0.625   5.619   5.584 -0.1689 -1.4429  0.3639
   10DOPE  H12X 1270   0.612   5.516   5.543  0.3429 -1.5026  0.3358
   10DOPE  H12Y 1271   0.729   5.630   5.623 -0.0355  1.3950 -0.5768
   10DOPE  C313 1272   0.606   5.709   5.463 -0.7724 -0.3914 -0.4358
   10DOPE  H13X 1273   0.588   5.816   5.486 -0.8220 -0.3099 -0.8443
   10DOPE  H13Y 1274   0.693   5.703   5.394 -0.6603 -0.9831 -0.2507
   10DOPE  C314 1275   0.496   5.656   5.369  0.6032 -0.2911 -0.9971
   10DOPE  H14X 1276   0.400   5.652   5.424 -0.0444 -4.7000 -2.0885
   10DOPE  H14Y 1277   0.528   5.553   5.345  1.8284 -0.9255  2.7090
   10DOPE  C315 1278   0.472   5.748   5.247  0.4262  0.1141 -0.1113
   10DOPE  H15X 1279   0.423   5.836   5.293  0.5691 -0.5379  1.3748
   10DOPE  H15Y 1280   0.396   5.686   5.195  0.2413  1.3007 -1.2935
   10DOPE  C316 1281   0.584   5.758   5.141 -0.5018 -0.0806  0.1604
   10DOPE  H16X 1282   0.608   5.659   5.098 -0.9640  0.5127 -1.5453
   10DOPE  H16Y 1283   0.677   5.789   5.194  0.3700 -1.7615 -0.3122
   10DOPE  C317 1284   0.560   5.861   5.035  0.5582  0.9045 -0.1067
   10DOPE  H17X 1285   0.641   5.857   4.958 -0.2195 -0.3882 -0.8854
   10DOPE  H17Y 1286   0.469   5.817   4.990  1.0172 -2.4288  1.9174
   10DOPE  C318 1287   0.524   6.008   5.074  0.6999  0.1557 -0.1174
   10DOPE  H18X 1288   0.506   6.063   4.979 -0.4322  0.9862  0.5533
   10DOPE  H18Y 1289   0.441   6.021   5.147  0.5536 -0.6333 -0.1409
   10DOPE  H18Z 1290   0.608   6.066   5.118  0.3539 -1.4540  2.9269
   11DOPE     N 1291   0.551   2.696   7.312 -0.1778 -1.0735  0.0784
   11DOPE   HN1 1292   0.508   2.751   7.389 -1.4993 -0.1255 -1.2944
   11DOPE   HN2 1293   0.597   2.613   7.355 -1.4082 -1.3926  0.8209
   11DOPE   HN3 1294   0.633   2.751   7.279  0.3193 -0.2829  2.4690
   11DOPE   C12 1295   0.453   2.652   7.204  0.0056  0.0200 -0.5228
   11DOPE  H12A 1296   0.438   2.744   7.143  3.4829 -0.0754 -1.7165
   11DOPE  H12B 1297   0.359   2.619   7.254 -1.1275 -0.5626 -2.9089
   11DOPE   C11 1298   0.525   2.545   7.112  0.6976 -0.4579  0.1608
   11DOPE  H11A 1299   0.441   2.505   7.052  1.2603 -0.5537 -0.5899
   11DOPE  H11B 1300   0.566   2.460   7.171  0.5038  1.3077  2.9791
   11DOPE     P 1301   0.609   2.700   6.903  0.4658  0.4379 -0.7305
   11DOPE   O13 1302   0.723   2.672   6.813 -0.1113  0.2918 -0.3302
   11DOPE   O14 1303   0.595   2.837   6.947  0.3821 -0.0142  0.8826
   11DOPE   O11 1304   0.476   2.654   6.834 -0.7309  0.1607 -0.5204
   11DOPE   O12 1305   0.631   2.602   7.029 -0.4524  0.5676  0.3911
   11DOPE    C1 1306   0.465   2.545   6.740  0.4713 -0.3854  0.5369
   11DOPE    HA 1307   0.363   2.501   6.747 -0.5016  1.4792 -1.0426
   11DOPE    HB 1308   0.535   2.462   6.765 -0.4410 -0.9326  1.3424
   11DOPE    C2 1309   0.485   2.591   6.599 -0.5750  0.2647 -0.0094
   11DOPE    HS 1310   0.580   2.649   6.591 -0.3364 -0.0262  0.6482
   11DOPE   O21 1311   0.360   2.656   6.551 -0.1474 -0.3775 -0.2786
   11DOPE   C21 1312   0.384   2.759   6.467  0.1675 -0.1982 -0.7741
   11DOPE   O22 1313   0.492   2.806   6.434 -0.4401 -0.1730  0.1691
   11DOPE   C22 1314   0.251   2.790   6.390 -0.2826  0.0763 -0.1160
   11DOPE   H2R 1315   0.177   2.816   6.468  1.3799  3.5632  0.5232
   11DOPE   H2S 1316   0.225   2.700   6.331  0.5382  0.3721 -0.9655
   11DOPE    C3 1317   0.519   2.466   6.503  0.7299  0.7873 -0.2766
   11DOPE    HX 1318   0.427   2.405   6.488  0.7582  0.0493  2.1787
   11DOPE    HY 1319   0.599   2.410   6.555  0.7630  0.3564 -0.7793
   11DOPE   O31 1320   0.557   2.503   6.364 -0.0665 -0.4055 -0.3344
   11DOPE   C31 1321   0.684   2.535   6.339  0.1992  0.5871 -0.1578
   11DOPE   O32 1322   0.776   2.556   6.417 -0.1158  0.2611 -0.5598
   11DOPE   C32 1323   0.693   2.549   6.196 -0.7710 -0.0586  0.6518
   11DOPE   H2X 1324   0.628   2.473   6.149 -0.0561 -1.1279  1.3606
   11DOPE   H2Y 1325   0.663   2.653   6.170  1.5287  0.2602 -1.1431
   11DOPE   C23 1326   0.260   2.914   6.297 -0.1327  1.0555 -0.0299
   11DOPE   H3R 1327   0.332   2.893   6.215  0.8265 -0.1596  1.0799
   11DOPE   H3S 1328   0.309   2.988   6.364  1.2961 -0.9159  1.1848
   11DOPE   C24 1329   0.122   2.971   6.243  0.3396 -0.1550  0.3410
   11DOPE   H4R 1330   0.135   3.076   6.210  0.4229 -0.7795 -1.7448
   11DOPE   H4S 1331   0.045   2.980   6.323  1.6565  3.3381  1.3766
   11DOPE   C25 1332   0.058   2.888   6.135  0.1755  0.3148 -0.2474
   11DOPE   H5R 1333   0.063   2.781   6.167  3.2615  0.6165  0.6128
   11DOPE   H5S 1334   0.127   2.911   6.051 -0.4768  1.6850 -0.4365
   11DOPE   C26 1335  -0.080   2.938   6.105  0.3864  0.0035 -0.1253
   11DOPE   H6R 1336  -0.072   3.046   6.078 -4.3816  0.7067  0.4927
   11DOPE   H6S 1337  -0.133   2.942   6.203  1.5304  0.6574  0.4983
   11DOPE   C27 1338  -0.164   2.863   6.007  0.0977  0.2567  0.5913
   11DOPE   H7R 1339  -0.271   2.890   5.998 -0.7168 -1.6144  3.4655
   11DOPE   H7S 1340  -0.165   2.759   6.048  0.6812  0.1022  0.2260
   11DOPE   C28 1341  -0.083   2.874   5.872  1.0524 -0.2882  0.2737
   11DOPE   H8R 1342   0.014   2.822   5.892  0.5632 -0.1828  3.5293
   11DOPE   H8S 1343  -0.068   2.982   5.853  0.3285 -0.5108 -1.7949
   11DOPE   C29 1344  -0.166   2.809   5.765  0.6474  0.6120  0.5562
   11DOPE   H9R 1345  -0.267   2.779   5.797  1.2601 -0.7966  1.2706
   11DOPE  C210 1346  -0.126   2.760   5.650 -0.5440 -0.2579 -0.2203
   11DOPE  H10R 1347  -0.194   2.722   5.572  0.8341 -1.0698 -1.0753
   11DOPE  C211 1348   0.018   2.767   5.616  0.3091  0.1073  0.0479
   11DOPE  H11R 1349   0.083   2.700   5.675 -0.9611 -1.8204 -0.6716
   11DOPE  H11S 1350   0.049   2.868   5.651 -0.7521 -0.2674  2.2083
   11DOPE  C212 1351   0.050   2.728   5.466 -0.0531 -0.3940  0.0044
   11DOPE  H12R 1352   0.159   2.741   5.450  0.3959 -1.9235  1.5112
   11DOPE  H12S 1353  -0.002   2.806   5.406  1.5843  0.7081 -0.0457
   11DOPE  C213 1354   0.023   2.588   5.424 -0.0153 -0.1329  0.7938
   11DOPE  H13R 1355  -0.086   2.570   5.415  0.1128 -0.4400 -0.4582
   11DOPE  H13S 1356   0.068   2.520   5.499  0.6641 -0.3077  0.2431
   11DOPE  C214 1357   0.096   2.558   5.294  0.2108 -0.4527 -0.0802
   11DOPE  H14R 1358   0.076   2.454   5.261  1.2332 -0.7553  0.2307
   11DOPE  H14S 1359   0.202   2.551   5.326 -0.3123 -3.2461  1.3334
   11DOPE  C215 1360   0.057   2.655   5.180 -0.3489  0.0495  0.2137
   11DOPE  H15R 1361   0.098   2.758   5.187  1.1055 -0.4430 -0.5645
   11DOPE  H15S 1362  -0.054   2.661   5.178 -0.3544  0.2476  0.8640
   11DOPE  C216 1363   0.112   2.615   5.035  0.6269  0.1812  0.2150
   11DOPE  H16R 1364   0.223   2.613   5.035  0.7169  0.4694  3.1936
   11DOPE  H16S 1365   0.076   2.690   4.963 -0.2843  0.9170  1.4011
   11DOPE  C217 1366   0.071   2.472   4.978  0.1711  0.0129 -0.1137
   11DOPE  H17R 1367  -0.037   2.488   4.954 -0.0718 -1.4454 -0.0581
   11DOPE  H17S 1368   0.081   2.387   5.048 -1.9579 -0.0823  0.1416
   11DOPE  C218 1369   0.141   2.439   4.840  0.0974 -0.0511  0.5776
   11DOPE  H18R 1370   0.129   2.512   4.758 -1.2927 -2.0464 -1.1247
   11DOPE  H18S 1371   0.103   2.341   4.804  1.3021 -1.3277  2.5511
   11DOPE  H18T 1372   0.249   2.415   4.841  0.0028 -0.7477 -1.5617
   11DOPE   C33 1373   0.837   2.529   6.142 -0.2174 -0.7275  0.7618
   11DOPE   H3X 1374   0.858   2.420   6.138  1.8498 -0.3350 -0.4544
   11DOPE   H3Y 1375   0.908   2.579   6.211  0.0277  0.4628 -0.3107
   11DOPE   C34 1376   0.846   2.603   6.011  0.0472 -0.3816  0.1601
   11DOPE   H4X 1377   0.817   2.707   6.037 -4.4471 -2.1327  3.4173
   11DOPE   H4Y 1378   0.947   2.583   5.970  1.2336 -1.8584  3.4946
   11DOPE   C35 1379   0.745   2.563   5.899 -0.0263 -0.4768 -0.5386
   11DOPE   H5X 1380   0.647   2.613   5.913 -0.7734 -2.3265  1.5507
   11DOPE   H5Y 1381   0.741   2.452   5.897 -0.3921 -0.5456  1.4854
   11DOPE   C36 1382   0.796   2.606   5.767  0.0964  0.2440 -0.1402
   11DOPE   H6X 1383   0.897   2.558   5.760  0.5401  1.1816 -0.2541
   11DOPE   H6Y 1384   0.808   2.716   5.770  1.1149  0.1395  0.0705
   11DOPE   C37 1385   0.724   2.547   5.655 -0.0825  0.4809  0.3368
   11DOPE   H7X 1386   0.743   2.438   5.652 -2.7569 -0.0645  0.0872
   11DOPE   H7Y 1387   0.615   2.568   5.663  0.2381  3.2467 -1.2761
   11DOPE   C38 1388   0.769   2.599   5.514  0.4649  0.3414 -0.2134
   11DOPE   H8X 1389   0.874   2.564   5.502  0.1040 -0.1294 -2.3929
   11DOPE   H8Y 1390   0.785   2.709   5.526  0.4876  0.5501 -1.9338
   11DOPE   C39 1391   0.668   2.568   5.400  0.3781 -0.2399 -0.0387
   11DOPE   H9X 1392   0.590   2.642   5.377 -1.0208 -1.0769  1.6889
   11DOPE  C310 1393   0.668   2.454   5.314 -0.2269 -0.8347 -0.9659
   11DOPE  H10X 1394   0.583   2.447   5.245 -0.4689  1.6335 -1.0000
   11DOPE  C311 1395   0.764   2.339   5.322  0.2647  0.5369 -0.1942
   11DOPE  H11X 1396   0.850   2.352   5.391  1.9626 -2.1329 -1.6599
   11DOPE  H11Y 1397   0.706   2.251   5.358  1.5289  1.3129  4.3413
   11DOPE  C312 1398   0.816   2.295   5.181  0.5532  0.1901 -0.3042
   11DOPE  H12X 1399   0.889   2.370   5.142 -1.4056  1.7750 -1.1213
   11DOPE  H12Y 1400   0.728   2.290   5.113  0.4232  0.9741 -0.2046
   11DOPE  C313 1401   0.883   2.155   5.169  0.3785  0.5207  0.1300
   11DOPE  H13X 1402   0.948   2.138   5.257  2.2524 -1.8838 -1.5574
   11DOPE  H13Y 1403   0.807   2.074   5.173  1.3761 -0.4322  0.3423
   11DOPE  C314 1404   0.960   2.138   5.039 -0.0938 -0.0330  0.5702
   11DOPE  H14X 1405   1.063   2.177   5.054  0.0148  0.3724 -1.0558
   11DOPE  H14Y 1406   0.911   2.202   4.963 -0.5905 -0.2083  0.7415
   11DOPE  C315 1407   0.977   1.995   4.989  0.6935 -0.1509  0.2951
   11DOPE  H15X 1408   0.873   1.965   4.962  0.6070  1.5865 -1.4922
   11DOPE  H15Y 1409   1.011   1.927   5.071 -1.2729 -1.1624  0.3484
   11DOPE  C316 1410   1.084   1.976   4.879  0.4036 -0.1907 -0.2041
   11DOPE  H16X 1411   1.088   2.068   4.818  1.4892 -0.2520 -0.2431
   11DOPE  H16Y 1412   1.050   1.898   4.809  2.4432  0.3677 -1.9140
   11DOPE  C317 1413   1.223   1.942   4.944 -0.2518 -0.8538 -0.1753
   11DOPE  H17X 1414   1.270   2.041   4.964  1.2596 -1.1253 -2.0923
   11DOPE  H17Y 1415   1.196   1.888   5.037 -1.1442 -1.5718 -0.8451
   11DOPE  C318 1416   1.320   1.866   4.866  0.5099 -0.0194  0.1937
   11DOPE  H18X 1417   1.288   1.760   4.864  0.6032 -0.0950  1.5385
   11DOPE  H18Y 1418   1.329   1.907   4.763  1.2477  1.2628  0.7341
   11DOPE  H18Z 1419   1.416   1.863   4.923  0.2528  2.0168  0.8216
   12DOPE     N 1420   3.460   6.269   7.427 -0.8616 -0.6421 -0.0028
   12DOPE   HN1 1421   3.517   6.258   7.513 -0.0008  0.9552 -0.3333
   12DOPE   HN2 1422   3.526   6.255   7.348 -0.2728  2.6667 -0.2210
   12DOPE   HN3 1423   3.424   6.364   7.409 -1.4015 -0.9367 -0.5078
   12DOPE   C12 1424   3.347   6.169   7.412  0.9692 -0.0258  0.3096
   12DOPE  H12A 1425   3.301   6.183   7.312  4.4670 -0.5185 -1.5538
   12DOPE  H12B 1426   3.274   6.182   7.494  2.5421 -2.5341  2.2599
   12DOPE   C11 1427   3.408   6.028   7.418  0.7105  0.3138 -0.0585
   12DOPE  H11A 1428   3.315   5.971   7.401 -0.6165  2.0581  1.0324
   12DOPE  H11B 1429   3.466   6.002   7.510 -0.8846 -0.1808  0.8374
   12DOPE     P 1430   3.515   5.858   7.256 -0.0819  0.0682 -0.0849
   12DOPE   O13 1431   3.410   5.772   7.311 -0.5372  0.2792  0.1916
   12DOPE   O14 1432   3.655   5.814   7.285 -0.0622 -1.2430  0.2309
   12DOPE   O11 1433   3.496   5.874   7.102 -0.1309  0.2879  0.0048
   12DOPE   O12 1434   3.495   6.009   7.311  0.0318  0.4033 -0.1350
   12DOPE    C1 1435   3.393   5.956   7.044 -0.4619 -0.5103  0.2307
   12DOPE    HA 1436   3.412   6.064   7.062 -1.1787 -0.1816 -0.9431
   12DOPE    HB 1437   3.298   5.935   7.098 -1.4504  1.4613 -0.6450
   12DOPE    C2 1438   3.366   5.931   6.892 -0.3030 -0.2544  0.0170
   12DOPE    HS 1439   3.284   5.997   6.856 -0.3184 -2.2294 -4.0242
   12DOPE   O21 1440   3.338   5.791   6.870  0.4347  0.0395  0.1741
   12DOPE   C21 1441   3.221   5.749   6.913 -0.3427  0.1466 -0.6726
   12DOPE   O22 1442   3.137   5.807   6.974  0.5165 -0.0623 -0.4690
   12DOPE   C22 1443   3.208   5.603   6.865  0.7049  0.2704 -1.6086
   12DOPE   H2R 1444   3.168   5.552   6.956 -3.7508  2.4514 -2.0591
   12DOPE   H2S 1445   3.300   5.550   6.831  0.1452 -2.7090  1.0316
   12DOPE    C3 1446   3.490   5.973   6.801 -0.5681  0.1228 -0.9646
   12DOPE    HX 1447   3.580   5.938   6.856  1.5323  4.1129 -1.4886
   12DOPE    HY 1448   3.494   6.084   6.804 -0.5650  0.1624  2.4569
   12DOPE   O31 1449   3.490   5.931   6.664  0.4502  0.5051  0.1023
   12DOPE   C31 1450   3.526   5.805   6.623  0.6760 -0.3574  0.6616
   12DOPE   O32 1451   3.564   5.715   6.693 -0.1988  0.6711  0.0753
   12DOPE   C32 1452   3.520   5.804   6.466  0.0866  1.0683  0.1285
   12DOPE   H2X 1453   3.438   5.864   6.421 -0.1201  0.0581 -0.8833
   12DOPE   H2Y 1454   3.616   5.852   6.439 -0.5586  1.0061 -2.4694
   12DOPE   C23 1455   3.093   5.577   6.763 -0.4877 -0.4800  0.1495
   12DOPE   H3R 1456   3.115   5.624   6.665  1.8849 -1.5365  0.1000
   12DOPE   H3S 1457   3.002   5.630   6.799 -0.7501  0.0417 -1.2166
   12DOPE   C24 1458   3.068   5.429   6.753 -0.0876  0.5260 -0.3276
   12DOPE   H4R 1459   3.033   5.388   6.850  0.8778 -2.7368 -1.2400
   12DOPE   H4S 1460   3.162   5.375   6.729  0.9789  1.9310  0.4888
   12DOPE   C25 1461   2.952   5.384   6.664  0.1691 -0.1659 -0.7705
   12DOPE   H5R 1462   2.960   5.415   6.558  1.5453 -0.4036 -0.7428
   12DOPE   H5S 1463   2.856   5.424   6.704  0.9696  0.0790  1.0189
   12DOPE   C26 1464   2.960   5.237   6.654  0.0310  0.2725  0.6334
   12DOPE   H6R 1465   2.939   5.190   6.752 -0.5353  0.5096  0.6260
   12DOPE   H6S 1466   3.067   5.210   6.640  0.0135 -0.3606  1.5782
   12DOPE   C27 1467   2.859   5.177   6.551 -0.7267 -0.2524  0.3080
   12DOPE   H7R 1468   2.883   5.224   6.453  0.0220  1.1875  1.1554
   12DOPE   H7S 1469   2.762   5.208   6.595  0.7355  1.0287  2.8632
   12DOPE   C28 1470   2.860   5.024   6.539 -0.1218  0.2390 -0.5203
   12DOPE   H8R 1471   2.953   4.980   6.498  0.5506  2.8503 -2.0854
   12DOPE   H8S 1472   2.779   5.004   6.465  1.5854 -1.9897 -1.8806
   12DOPE   C29 1473   2.820   4.955   6.666  0.1453  0.3032  0.4314
   12DOPE   H9R 1474   2.891   4.959   6.750 -1.2626  2.3333  1.6226
   12DOPE  C210 1475   2.697   4.901   6.688  0.2308  0.0112 -0.2680
   12DOPE  H10R 1476   2.676   4.860   6.788  4.2801  1.2499  1.3124
   12DOPE  C211 1477   2.571   4.892   6.600 -0.0347  0.2361  0.1342
   12DOPE  H11R 1478   2.570   4.977   6.528 -1.1333  0.0243 -0.1270
   12DOPE  H11S 1479   2.488   4.915   6.670  0.9834  2.5008  0.6716
   12DOPE  C212 1480   2.531   4.764   6.532 -0.0178 -0.1213  0.1216
   12DOPE  H12R 1481   2.529   4.683   6.608  0.1603  1.9645  2.5047
   12DOPE  H12S 1482   2.611   4.724   6.466 -1.1549 -0.2054 -1.2554
   12DOPE  C213 1483   2.396   4.777   6.468  0.1151  0.0033 -0.0308
   12DOPE  H13R 1484   2.403   4.860   6.395  0.5152  1.0390  1.1657
   12DOPE  H13S 1485   2.319   4.806   6.543  1.0827 -1.4657  1.6186
   12DOPE  C214 1486   2.359   4.643   6.407  0.0232  0.2601 -0.4451
   12DOPE  H14R 1487   2.358   4.567   6.488  1.8929 -1.8242 -2.2524
   12DOPE  H14S 1488   2.444   4.618   6.340 -0.2528 -0.4317 -0.5442
   12DOPE  C215 1489   2.224   4.652   6.339  0.3276  0.3621  0.3129
   12DOPE  H15R 1490   2.222   4.733   6.263 -0.4760 -0.2570 -0.3527
   12DOPE  H15S 1491   2.145   4.685   6.410 -3.5243  1.1875 -3.8785
   12DOPE  C216 1492   2.176   4.534   6.257 -0.4566 -0.1151  0.5458
   12DOPE  H16R 1493   2.203   4.444   6.316  1.0685  1.2474  2.0866
   12DOPE  H16S 1494   2.233   4.542   6.162 -0.5043 -0.1875  0.5113
   12DOPE  C217 1495   2.027   4.527   6.225 -0.4137 -0.1871 -0.2585
   12DOPE  H17R 1496   1.983   4.512   6.327 -2.9597 -2.0512 -1.5225
   12DOPE  H17S 1497   2.012   4.429   6.174  0.1491  0.5769 -1.9577
   12DOPE  C218 1498   1.960   4.652   6.169 -1.4115 -0.8975  0.5658
   12DOPE  H18R 1499   2.017   4.690   6.081 -1.5598  4.1026  2.3005
   12DOPE  H18S 1500   1.967   4.740   6.237  1.9005 -1.5855  1.3007
   12DOPE  H18T 1501   1.856   4.628   6.142 -1.7750  1.3014 -0.2147
   12DOPE   C33 1502   3.515   5.658   6.418  0.3145 -0.5360  0.0112
   12DOPE   H3X 1503   3.588   5.593   6.473  1.3966 -0.9143 -1.7860
   12DOPE   H3Y 1504   3.548   5.661   6.312  0.4469 -0.1262  0.0624
   12DOPE   C34 1505   3.381   5.588   6.421 -0.8154  0.3981  0.0122
   12DOPE   H4X 1506   3.398   5.479   6.414 -1.7961  0.2922 -0.9864
   12DOPE   H4Y 1507   3.337   5.587   6.523 -1.2767 -0.4053 -0.1863
   12DOPE   C35 1508   3.275   5.623   6.310 -0.5279  0.1400 -0.2230
   12DOPE   H5X 1509   3.318   5.580   6.217 -0.5937  0.6626 -0.5023
   12DOPE   H5Y 1510   3.263   5.734   6.306  1.3041  0.3462 -0.7965
   12DOPE   C36 1511   3.138   5.559   6.337  0.6787 -0.4065 -0.0779
   12DOPE   H6X 1512   3.100   5.614   6.426  1.1857 -0.5315  0.2140
   12DOPE   H6Y 1513   3.130   5.450   6.355 -1.3165 -0.1019  1.2017
   12DOPE   C37 1514   3.047   5.614   6.222  0.3342  0.5212  0.1257
   12DOPE   H7X 1515   2.998   5.708   6.256  0.3600  0.6311 -0.1342
   12DOPE   H7Y 1516   3.114   5.644   6.138 -0.2708 -0.7216 -0.8409
   12DOPE   C38 1517   2.940   5.526   6.157 -0.6322 -0.4597  0.4136
   12DOPE   H8X 1518   2.888   5.589   6.082 -0.7337 -1.7780 -0.6849
   12DOPE   H8Y 1519   2.865   5.495   6.233 -1.1274  2.3415  1.1478
   12DOPE   C39 1520   2.997   5.393   6.096 -0.6210 -0.1117 -0.3455
   12DOPE   H9X 1521   3.047   5.323   6.165 -1.1204 -0.8052 -0.6759
   12DOPE  C310 1522   3.021   5.366   5.962 -0.4032 -0.8811  0.6429
   12DOPE  H10X 1523   3.062   5.272   5.923  0.5076  0.1696 -1.0661
   12DOPE  C311 1524   2.990   5.465   5.849  0.0588  0.0157  0.3437
   12DOPE  H11X 1525   2.982   5.400   5.760 -0.6619 -0.9564  1.0994
   12DOPE  H11Y 1526   2.895   5.513   5.878  0.1191 -1.8794  4.3485
   12DOPE  C312 1527   3.099   5.577   5.836 -0.2317  0.2670 -0.3732
   12DOPE  H12X 1528   3.199   5.533   5.855 -0.6245 -0.8044 -0.6767
   12DOPE  H12Y 1529   3.072   5.652   5.913 -0.0785  1.2935 -1.3017
   12DOPE  C313 1530   3.101   5.648   5.693  0.5988  0.0954 -0.0351
   12DOPE  H13X 1531   3.130   5.579   5.611 -0.7892 -0.3156 -0.2141
   12DOPE  H13Y 1532   2.997   5.672   5.662 -0.4735 -1.2940  2.2432
   12DOPE  C314 1533   3.191   5.778   5.684 -0.3101  0.2711 -0.1943
   12DOPE  H14X 1534   3.167   5.848   5.766  2.9497 -1.5490  2.5884
   12DOPE  H14Y 1535   3.166   5.825   5.587 -0.1060  2.2397  0.6668
   12DOPE  C315 1536   3.341   5.752   5.679  0.0599  0.4279  0.4852
   12DOPE  H15X 1537   3.364   5.683   5.595  3.0136  0.8381  0.8453
   12DOPE  H15Y 1538   3.379   5.701   5.771  0.2331 -1.2466 -0.4703
   12DOPE  C316 1539   3.428   5.869   5.662 -0.2153 -0.7182  0.5203
   12DOPE  H16X 1540   3.405   5.950   5.734 -0.7784 -1.2899  0.9978
   12DOPE  H16Y 1541   3.421   5.904   5.557 -0.8806 -2.0467  0.0980
   12DOPE  C317 1542   3.571   5.827   5.668 -0.8283 -0.4556 -0.0035
   12DOPE  H17X 1543   3.601   5.794   5.770  0.5928  1.1168  0.1274
   12DOPE  H17Y 1544   3.576   5.738   5.602 -1.2990  0.4359 -1.2673
   12DOPE  C318 1545   3.674   5.936   5.633  0.0349 -0.1932 -0.1241
   12DOPE  H18X 1546   3.662   5.980   5.532 -1.2829  0.3914  0.2576
   12DOPE  H18Y 1547   3.646   6.025   5.694 -1.7744 -0.8410  0.0552
   12DOPE  H18Z 1548   3.777   5.903   5.658 -0.1423 -0.9389 -0.3814
   13DOPE     N 1549   2.697   1.048   6.878 -0.0170  0.1364  0.6246
   13DOPE   HN1 1550   2.655   1.141   6.898 -1.0318 -0.6566  2.3849
   13DOPE   HN2 1551   2.801   1.054   6.878  0.1621 -2.0860 -0.2992
   13DOPE   HN3 1552   2.686   1.033   6.775 -1.1427  1.0356  0.5823
   13DOPE   C12 1553   2.638   0.930   6.945  0.3680  0.7988 -0.0628
   13DOPE  H12A 1554   2.529   0.931   6.922  0.0739  1.3877  1.2665
   13DOPE  H12B 1555   2.646   0.945   7.055  0.8257 -0.2120  0.0621
   13DOPE   C11 1556   2.708   0.790   6.905  0.8922 -0.5900 -0.5109
   13DOPE  H11A 1557   2.817   0.804   6.921  0.1760  3.4427  2.2527
   13DOPE  H11B 1558   2.683   0.775   6.798 -0.5807 -1.1064 -0.1145
   13DOPE     P 1559   2.521   0.618   6.969  0.1008  0.1673 -0.0589
   13DOPE   O13 1560   2.416   0.692   7.040  0.3798  0.3604  0.4785
   13DOPE   O14 1561   2.543   0.481   7.021  0.1876  0.2155 -0.0940
   13DOPE   O11 1562   2.497   0.620   6.814 -0.1162 -0.4448 -0.0571
   13DOPE   O12 1563   2.655   0.696   6.992  0.2914 -0.1315 -0.3353
   13DOPE    C1 1564   2.515   0.503   6.729  0.2848  0.2514 -0.1112
   13DOPE    HA 1565   2.473   0.533   6.630 -1.1020 -0.8686  0.0951
   13DOPE    HB 1566   2.456   0.423   6.778  0.2205 -0.0205 -0.6286
   13DOPE    C2 1567   2.666   0.460   6.711 -0.0536  0.7784  0.0058
   13DOPE    HS 1568   2.703   0.432   6.811  3.4095 -1.6491 -1.7650
   13DOPE   O21 1569   2.736   0.569   6.663  0.0558 -0.3664 -0.1172
   13DOPE   C21 1570   2.852   0.586   6.723 -0.1148 -0.0241 -0.2064
   13DOPE   O22 1571   2.894   0.523   6.816 -0.0073  0.7191  0.4740
   13DOPE   C22 1572   2.940   0.686   6.655 -0.8389  0.4246  0.0885
   13DOPE   H2R 1573   2.980   0.746   6.740  1.1180 -0.9932  0.2425
   13DOPE   H2S 1574   2.887   0.760   6.590  0.2283  2.1085  1.0510
   13DOPE    C3 1575   2.674   0.341   6.605  0.1190 -1.3243 -0.1437
   13DOPE    HX 1576   2.653   0.389   6.508 -0.5621 -0.3663  0.4626
   13DOPE    HY 1577   2.597   0.263   6.619  0.6292 -2.1206 -1.5034
   13DOPE   O31 1578   2.809   0.279   6.602  0.1738  0.3737 -0.1827
   13DOPE   C31 1579   2.836   0.200   6.699 -0.4911 -0.6744 -1.1830
   13DOPE   O32 1580   2.769   0.182   6.804 -0.1277 -0.3740 -0.1381
   13DOPE   C32 1581   2.985   0.150   6.691 -0.0905 -0.5006 -0.5852
   13DOPE   H2X 1582   3.049   0.225   6.640  0.3727 -1.2071 -1.0680
   13DOPE   H2Y 1583   3.020   0.154   6.797  0.2970 -2.3464 -0.6022
   13DOPE   C23 1584   3.074   0.629   6.610 -1.0791  0.3756  0.5761
   13DOPE   H3R 1585   3.135   0.570   6.682  2.2287  1.1890 -1.3291
   13DOPE   H3S 1586   3.145   0.714   6.598  0.2019 -0.3619  2.4566
   13DOPE   C24 1587   3.068   0.553   6.473  0.0331  0.1469 -0.0867
   13DOPE   H4R 1588   3.016   0.611   6.394 -1.0977 -1.6232 -0.7011
   13DOPE   H4S 1589   3.007   0.462   6.490 -0.0739  0.1109 -0.6404
   13DOPE   C25 1590   3.201   0.492   6.423 -0.0880  0.2415  0.0013
   13DOPE   H5R 1591   3.247   0.446   6.512 -1.8554  0.4845  1.0822
   13DOPE   H5S 1592   3.263   0.578   6.390  0.7487 -1.0011 -1.8618
   13DOPE   C26 1593   3.188   0.404   6.295 -0.5225 -1.0194 -1.0327
   13DOPE   H6R 1594   3.124   0.327   6.342 -1.4045  0.6262  0.6174
   13DOPE   H6S 1595   3.293   0.371   6.283  0.3974  0.7106  1.3541
   13DOPE   C27 1596   3.120   0.464   6.173  0.3827 -0.1002  0.7579
   13DOPE   H7R 1597   3.187   0.542   6.130  0.2225 -0.6270 -0.4797
   13DOPE   H7S 1598   3.033   0.521   6.214 -0.2441 -2.2815  2.6762
   13DOPE   C28 1599   3.062   0.364   6.075 -0.0116 -0.4589  0.1574
   13DOPE   H8R 1600   2.977   0.406   6.017  0.7716 -0.9154 -1.3423
   13DOPE   H8S 1601   3.005   0.290   6.135 -1.3790  0.8072  0.4947
   13DOPE   C29 1602   3.161   0.289   5.996 -0.5243 -0.1314  0.0528
   13DOPE   H9R 1603   3.233   0.222   6.045 -2.3669 -2.8295 -0.7174
   13DOPE  C210 1604   3.168   0.268   5.861  0.3556  0.0240 -0.7845
   13DOPE  H10R 1605   3.243   0.199   5.818 -0.9971 -2.3429  0.4158
   13DOPE  C211 1606   3.064   0.309   5.761 -0.2471  0.0649 -0.2973
   13DOPE  H11R 1607   2.997   0.388   5.802  0.2557  0.5871 -0.4605
   13DOPE  H11S 1608   2.999   0.220   5.751  0.2042 -0.0496 -2.5979
   13DOPE  C212 1609   3.106   0.354   5.621 -0.2801 -0.0490  0.0040
   13DOPE  H12R 1610   3.185   0.288   5.580  0.8490  0.2427  1.6281
   13DOPE  H12S 1611   3.156   0.454   5.622  0.5218 -0.4298  1.3470
   13DOPE  C213 1612   2.982   0.364   5.527 -0.0431  0.0312  0.1468
   13DOPE  H13R 1613   2.920   0.448   5.566  1.5130  0.5698  1.5703
   13DOPE  H13S 1614   2.943   0.262   5.544  1.4678 -0.3025  1.9487
   13DOPE  C214 1615   3.024   0.384   5.382  0.4860  0.0428 -0.2276
   13DOPE  H14R 1616   3.100   0.307   5.358  0.1884 -1.6620  3.5645
   13DOPE  H14S 1617   3.060   0.487   5.364 -2.5778  0.6902 -3.7941
   13DOPE  C215 1618   2.903   0.366   5.284 -0.1282  0.1466  0.5245
   13DOPE  H15R 1619   2.825   0.441   5.310 -0.2315 -0.2059  1.2815
   13DOPE  H15S 1620   2.856   0.267   5.297  0.1221 -0.2028 -1.0530
   13DOPE  C216 1621   2.950   0.374   5.137  0.3358  0.6203 -0.5754
   13DOPE  H16R 1622   2.879   0.320   5.071 -0.6284 -0.7853  1.5376
   13DOPE  H16S 1623   3.045   0.316   5.130 -0.5560 -0.6895 -2.7294
   13DOPE  C217 1624   2.965   0.519   5.094  0.1338  1.1670 -0.1380
   13DOPE  H17R 1625   3.037   0.531   5.011  0.2828 -1.6716 -0.5332
   13DOPE  H17S 1626   3.006   0.574   5.181  1.5158 -0.6142  0.3962
   13DOPE  C218 1627   2.836   0.591   5.065  0.1621  0.6618 -0.4037
   13DOPE  H18R 1628   2.782   0.548   4.978 -0.1230 -0.4618  0.3196
   13DOPE  H18S 1629   2.861   0.695   5.032  0.2079  0.4433 -1.0683
   13DOPE  H18T 1630   2.763   0.597   5.148  0.5915  0.5789 -0.0218
   13DOPE   C33 1631   2.989   0.012   6.624  0.1791 -0.1197  0.9104
   13DOPE   H3X 1632   2.921  -0.060   6.673 -2.5781  0.9012 -1.1809
   13DOPE   H3Y 1633   3.094  -0.023   6.633  1.0161  1.9484 -0.0800
   13DOPE   C34 1634   2.958   0.015   6.470  0.1880  0.5598 -0.3378
   13DOPE   H4X 1635   2.987   0.113   6.427  0.0864  0.9134  0.3921
   13DOPE   H4Y 1636   3.023  -0.056   6.413  0.6112 -1.1871  2.1508
   13DOPE   C35 1637   2.814  -0.033   6.444 -0.7333 -0.0044  0.4561
   13DOPE   H5X 1638   2.744  -0.001   6.524  1.9666  1.1911  2.5020
   13DOPE   H5Y 1639   2.813  -0.144   6.448  3.1988 -0.2811 -1.7957
   13DOPE   C36 1640   2.744  -0.009   6.310  0.0881 -0.3389  0.1040
   13DOPE   H6X 1641   2.648  -0.062   6.294 -0.2281  0.5722 -1.0872
   13DOPE   H6Y 1642   2.807  -0.053   6.230 -0.2937 -2.0676  0.6960
   13DOPE   C37 1643   2.726   0.144   6.279 -0.0407 -0.5157  0.1668
   13DOPE   H7X 1644   2.698   0.191   6.376 -0.2192  0.3118 -0.2780
   13DOPE   H7Y 1645   2.828   0.183   6.261  1.4261 -2.2303  3.7325
   13DOPE   C38 1646   2.618   0.178   6.166  0.0114  0.1732 -0.0877
   13DOPE   H8X 1647   2.580   0.282   6.174 -0.9373 -0.2782  1.7093
   13DOPE   H8Y 1648   2.536   0.108   6.195  1.0407 -0.4667  1.4079
   13DOPE   C39 1649   2.669   0.139   6.029  0.4321  0.4866 -0.7007
   13DOPE   H9X 1650   2.665   0.029   6.030 -0.8950  0.4140  3.2506
   13DOPE  C310 1651   2.671   0.212   5.915 -0.0762 -0.6476  0.4816
   13DOPE  H10X 1652   2.721   0.176   5.824 -0.2258 -0.7477  0.4392
   13DOPE  C311 1653   2.626   0.361   5.912 -0.5846 -0.6967  0.2267
   13DOPE  H11X 1654   2.527   0.371   5.862  0.4981  0.6549 -1.8287
   13DOPE  H11Y 1655   2.619   0.426   6.001 -1.4330  1.6571 -1.4460
   13DOPE  C312 1656   2.720   0.432   5.815 -0.7603  0.2408  0.1543
   13DOPE  H12X 1657   2.757   0.372   5.729 -0.8947 -0.0052  0.2667
   13DOPE  H12Y 1658   2.810   0.451   5.878  0.7117 -0.8608 -1.5326
   13DOPE  C313 1659   2.660   0.558   5.760  0.0663  0.3268 -0.3259
   13DOPE  H13X 1660   2.597   0.605   5.838 -0.4177 -0.5506 -0.1796
   13DOPE  H13Y 1661   2.744   0.628   5.739 -0.9766  2.2157  1.4958
   13DOPE  C314 1662   2.588   0.530   5.634 -0.2177 -0.2654  0.0448
   13DOPE  H14X 1663   2.497   0.470   5.654  0.4475 -1.4785 -0.4875
   13DOPE  H14Y 1664   2.654   0.468   5.570 -3.6381 -2.0175 -2.0765
   13DOPE  C315 1665   2.548   0.649   5.544  0.1316 -1.0648 -0.2513
   13DOPE  H15X 1666   2.629   0.725   5.532 -0.1159 -0.8732 -0.7627
   13DOPE  H15Y 1667   2.473   0.707   5.603 -0.1348 -2.3336  0.6877
   13DOPE  C316 1668   2.506   0.603   5.406 -0.2462  0.2680  0.1680
   13DOPE  H16X 1669   2.430   0.525   5.428 -0.5206  1.1156  2.6219
   13DOPE  H16Y 1670   2.593   0.561   5.352 -0.9070  1.3402 -1.8519
   13DOPE  C317 1671   2.424   0.696   5.311  0.2930 -0.9397 -0.0588
   13DOPE  H17X 1672   2.326   0.721   5.356 -0.6755 -1.0601 -2.0370
   13DOPE  H17Y 1673   2.469   0.798   5.304 -0.2698 -0.7987 -1.9804
   13DOPE  C318 1674   2.411   0.641   5.165 -0.1927  0.1270  0.0357
   13DOPE  H18X 1675   2.347   0.704   5.098  0.8231 -0.0482 -1.1376
   13DOPE  H18Y 1676   2.510   0.632   5.115  1.0676 -1.1057  2.5961
   13DOPE  H18Z 1677   2.371   0.538   5.173 -0.6453  0.3870  1.2857
   14DOPE     N 1678   6.714   5.417   7.234  0.3649 -0.4028  1.0274
   14DOPE   HN1 1679   6.730   5.387   7.136  1.0968  0.4242  0.8713
   14DOPE   HN2 1680   6.611   5.417   7.242  0.3199  0.0990  0.5194
   14DOPE   HN3 1681   6.763   5.508   7.246  2.5736 -1.3681 -0.1030
   14DOPE   C12 1682   6.745   5.302   7.328  0.3585 -0.3865 -0.1080
   14DOPE  H12A 1683   6.666   5.226   7.310  0.9682 -1.5224  1.7144
   14DOPE  H12B 1684   6.733   5.329   7.435  0.9969  1.9904 -0.5713
   14DOPE   C11 1685   6.884   5.253   7.297  0.5063  0.2368  0.1562
   14DOPE  H11A 1686   6.900   5.159   7.354 -0.1990  0.4703  0.7573
   14DOPE  H11B 1687   6.957   5.316   7.353  0.8586  0.0417 -0.0746
   14DOPE     P 1688   6.867   5.113   7.080 -0.4973  0.2921  0.5193
   14DOPE   O13 1689   6.804   5.012   7.166  0.0330 -0.6092 -0.1321
   14DOPE   O14 1690   6.973   5.062   6.987 -0.0052  0.0894  0.3294
   14DOPE   O11 1691   6.754   5.191   7.004 -0.1547 -0.6628 -0.0941
   14DOPE   O12 1692   6.916   5.237   7.157 -0.5680 -0.3894  0.1488
   14DOPE    C1 1693   6.679   5.140   6.890  0.4718  0.1876 -0.2981
   14DOPE    HA 1694   6.584   5.198   6.885 -0.2331 -0.9646 -0.5327
   14DOPE    HB 1695   6.652   5.032   6.894 -0.7484  0.4979  0.5050
   14DOPE    C2 1696   6.738   5.181   6.748 -0.2044  0.3012 -0.2156
   14DOPE    HS 1697   6.656   5.183   6.673  0.0216  2.3047 -0.4671
   14DOPE   O21 1698   6.858   5.106   6.717  0.2204 -0.5201  0.2397
   14DOPE   C21 1699   6.831   4.974   6.706 -0.1749  0.1284  0.0385
   14DOPE   O22 1700   6.720   4.929   6.693 -0.0477 -0.2581 -0.5265
   14DOPE   C22 1701   6.954   4.892   6.700 -0.2935  0.1602  0.3848
   14DOPE   H2R 1702   6.937   4.796   6.753 -0.8637 -0.4176 -0.8055
   14DOPE   H2S 1703   7.041   4.940   6.750  0.0243 -1.2680  1.2628
   14DOPE    C3 1704   6.794   5.325   6.746  0.1897  0.3927 -0.7940
   14DOPE    HX 1705   6.886   5.343   6.804  0.3996 -1.1464 -0.6123
   14DOPE    HY 1706   6.710   5.386   6.786 -1.3752 -1.3332 -1.2784
   14DOPE   O31 1707   6.811   5.369   6.609 -0.0386 -0.2071  0.4685
   14DOPE   C31 1708   6.934   5.369   6.560 -0.3057  0.0977 -0.1157
   14DOPE   O32 1709   7.040   5.338   6.611 -0.4423  0.3946 -0.6298
   14DOPE   C32 1710   6.919   5.395   6.413  0.2111  0.2975  0.0527
   14DOPE   H2X 1711   6.870   5.304   6.371 -1.0482  1.4578 -1.0584
   14DOPE   H2Y 1712   6.864   5.491   6.406  2.1230  1.6838  2.3876
   14DOPE   C23 1713   6.976   4.847   6.558 -0.4868  0.3027 -0.1700
   14DOPE   H3R 1714   6.880   4.804   6.525 -0.0200 -2.2449  1.5486
   14DOPE   H3S 1715   7.050   4.764   6.557 -1.0493 -0.3132 -3.8157
   14DOPE   C24 1716   7.021   4.963   6.464 -0.1992 -0.4507  0.6864
   14DOPE   H4R 1717   7.108   5.016   6.509 -1.8795  2.0745  1.1291
   14DOPE   H4S 1718   6.943   5.040   6.449 -0.2433 -0.1134  2.3658
   14DOPE   C25 1719   7.069   4.912   6.323 -0.0529 -0.1932  0.5612
   14DOPE   H5R 1720   6.985   4.848   6.288 -1.7252 -0.2259  4.2390
   14DOPE   H5S 1721   7.159   4.846   6.329 -0.5441 -1.0230 -0.6732
   14DOPE   C26 1722   7.106   5.022   6.215  0.6747 -0.2677 -0.0071
   14DOPE   H6R 1723   7.205   5.061   6.246 -0.1758  0.3256  2.1543
   14DOPE   H6S 1724   7.023   5.096   6.210  0.7684 -0.1966 -0.5906
   14DOPE   C27 1725   7.129   4.970   6.068  0.2688  0.6139 -0.1323
   14DOPE   H7R 1726   7.215   4.901   6.074 -1.5715 -2.0340 -1.9982
   14DOPE   H7S 1727   7.162   5.057   6.008  1.9118 -0.8765 -1.4868
   14DOPE   C28 1728   7.006   4.902   6.007  0.1112 -0.4394  0.3647
   14DOPE   H8R 1729   6.917   4.968   6.022 -0.4497 -1.3542  1.1932
   14DOPE   H8S 1730   6.988   4.808   6.063 -1.8042 -0.3848 -0.0639
   14DOPE   C29 1731   7.028   4.885   5.861  0.2563  1.1194  0.1660
   14DOPE   H9R 1732   7.060   4.781   5.845 -3.4235  0.0338 -1.1856
   14DOPE  C210 1733   7.019   4.980   5.764 -0.0020  0.2351  0.1550
   14DOPE  H10R 1734   7.036   4.955   5.658 -3.0729 -0.5375 -0.2531
   14DOPE  C211 1735   6.981   5.123   5.780  0.0638 -0.3041 -0.5666
   14DOPE  H11R 1736   6.964   5.138   5.889 -2.9724  0.7260 -1.1036
   14DOPE  H11S 1737   6.883   5.143   5.733  0.2206 -0.0583 -0.7912
   14DOPE  C212 1738   7.098   5.225   5.755 -0.3736  0.0676 -0.2390
   14DOPE  H12R 1739   7.181   5.203   5.825 -0.9527  0.5598  0.6074
   14DOPE  H12S 1740   7.057   5.325   5.780 -1.8487 -0.7591  0.7763
   14DOPE  C213 1741   7.148   5.217   5.610  0.5930 -0.3731  0.3076
   14DOPE  H13R 1742   7.065   5.239   5.539  0.7287  1.1637  0.5828
   14DOPE  H13S 1743   7.184   5.119   5.572 -1.6178 -0.4781 -1.7468
   14DOPE  C214 1744   7.271   5.318   5.588  0.3374  0.3044 -0.1613
   14DOPE  H14R 1745   7.319   5.278   5.496  0.1734  0.2178 -0.2105
   14DOPE  H14S 1746   7.339   5.328   5.675 -0.3168 -3.2901  0.9420
   14DOPE  C215 1747   7.208   5.445   5.542  0.8106 -0.2299 -0.0735
   14DOPE  H15R 1748   7.120   5.472   5.604 -1.1257  0.5786 -2.9541
   14DOPE  H15S 1749   7.150   5.429   5.449 -0.7274  0.5758  0.7014
   14DOPE  C216 1750   7.305   5.564   5.535 -0.4380 -0.0693 -1.0011
   14DOPE  H16R 1751   7.358   5.551   5.439  0.5918 -0.3529 -0.4098
   14DOPE  H16S 1752   7.381   5.557   5.616 -3.1945 -1.8601  1.6938
   14DOPE  C217 1753   7.243   5.709   5.532  0.3419  0.8125  0.3558
   14DOPE  H17R 1754   7.323   5.783   5.509  1.1706 -0.6614 -1.9315
   14DOPE  H17S 1755   7.193   5.737   5.627  0.9072  2.1153  0.2988
   14DOPE  C218 1756   7.146   5.713   5.412 -0.4713 -0.1924 -0.8216
   14DOPE  H18R 1757   7.096   5.614   5.401  0.5048 -0.4699 -3.3228
   14DOPE  H18S 1758   7.202   5.741   5.320 -1.1718 -1.1541 -1.5693
   14DOPE  H18T 1759   7.074   5.795   5.435  2.1158  1.4617  2.1721
   14DOPE   C33 1760   7.054   5.421   6.341 -0.2712  0.5603 -0.5668
   14DOPE   H3X 1761   7.116   5.329   6.347  0.4417  0.5600 -4.6380
   14DOPE   H3Y 1762   7.108   5.508   6.383 -0.2534 -0.1487  0.9301
   14DOPE   C34 1763   7.036   5.444   6.189  0.3780  0.4235  0.6859
   14DOPE   H4X 1764   7.134   5.433   6.139  0.6280  2.9893  0.4833
   14DOPE   H4Y 1765   6.973   5.361   6.148  1.2169 -0.4440  1.1155
   14DOPE   C35 1766   6.981   5.580   6.154  0.6289 -0.1400  0.1112
   14DOPE   H5X 1767   7.058   5.659   6.157 -0.6574  1.2182 -0.9425
   14DOPE   H5Y 1768   6.912   5.618   6.233  0.4645  1.2333 -0.6550
   14DOPE   C36 1769   6.901   5.572   6.025  0.0211 -0.0713  0.0850
   14DOPE   H6X 1770   6.814   5.508   6.053  1.5699 -1.3193  2.3576
   14DOPE   H6Y 1771   6.960   5.512   5.953  0.7624 -0.6234  1.1189
   14DOPE   C37 1772   6.849   5.710   5.968 -0.4305 -0.0308 -0.1461
   14DOPE   H7X 1773   6.765   5.754   6.026  0.2346  2.8759 -1.2426
   14DOPE   H7Y 1774   6.930   5.784   5.979 -0.6711  0.2196 -0.0302
   14DOPE   C38 1775   6.809   5.689   5.818 -0.0706 -0.4375  0.5938
   14DOPE   H8X 1776   6.900   5.657   5.762 -1.2628  0.7681 -2.2147
   14DOPE   H8Y 1777   6.791   5.787   5.770 -2.7616 -1.1804 -0.1037
   14DOPE   C39 1778   6.693   5.601   5.786  0.7840 -0.1662  0.6201
   14DOPE   H9X 1779   6.597   5.623   5.835  0.4467  0.1939 -0.1869
   14DOPE  C310 1780   6.706   5.488   5.712  0.6330  0.0453 -0.5016
   14DOPE  H10X 1781   6.616   5.426   5.703 -1.5354  2.3632  2.6984
   14DOPE  C311 1782   6.830   5.432   5.647  0.2673  0.2151  0.4746
   14DOPE  H11X 1783   6.924   5.477   5.686  0.3518  2.3237 -1.8843
   14DOPE  H11Y 1784   6.833   5.323   5.665 -1.3081  0.0686  0.0103
   14DOPE  C312 1785   6.836   5.469   5.499  0.1736  0.7766  0.7404
   14DOPE  H12X 1786   6.935   5.442   5.457 -0.4264 -0.0731 -0.1588
   14DOPE  H12Y 1787   6.828   5.579   5.485 -0.9137  0.5479 -0.7693
   14DOPE  C313 1788   6.733   5.403   5.404  0.1517 -0.0682  0.2393
   14DOPE  H13X 1789   6.754   5.294   5.395 -2.5844 -0.7790  1.3240
   14DOPE  H13Y 1790   6.630   5.430   5.437 -1.1632 -0.6007 -3.0000
   14DOPE  C314 1791   6.737   5.466   5.265  0.5826 -0.0493 -0.2070
   14DOPE  H14X 1792   6.717   5.576   5.265 -0.8575 -0.2970  0.1785
   14DOPE  H14Y 1793   6.661   5.421   5.199 -0.7962 -0.9516  1.8885
   14DOPE  C315 1794   6.872   5.451   5.191 -0.0709  0.5884  0.5250
   14DOPE  H15X 1795   6.958   5.454   5.261  0.5302 -1.7402 -0.0110
   14DOPE  H15Y 1796   6.890   5.534   5.119  0.6359 -1.1968 -1.4582
   14DOPE  C316 1797   6.883   5.315   5.118  0.3474  0.5358 -0.3992
   14DOPE  H16X 1798   6.856   5.345   5.015  0.3877 -0.0688 -0.5900
   14DOPE  H16Y 1799   6.811   5.240   5.158  1.3763 -0.0512  0.4094
   14DOPE  C317 1800   7.021   5.245   5.114  0.1308  0.3966 -0.3251
   14DOPE  H17X 1801   7.013   5.157   5.045  1.3817  2.6688 -3.6610
   14DOPE  H17Y 1802   7.099   5.306   5.063  0.5504 -1.5211 -2.1523
   14DOPE  C318 1803   7.077   5.204   5.250  0.5536 -0.2002  0.6372
   14DOPE  H18X 1804   7.182   5.168   5.245  0.6268  0.1409 -1.3998
   14DOPE  H18Y 1805   7.083   5.289   5.321  1.6283 -0.3197  0.6986
   14DOPE  H18Z 1806   7.033   5.110   5.291 -0.4017 -0.7230 -1.4220
   15DOPE     N 1807   1.093   1.263   6.884 -0.3311 -0.2266 -0.4953
   15DOPE   HN1 1808   1.005   1.284   6.936  1.1055  1.1322  1.5163
   15DOPE   HN2 1809   1.063   1.219   6.794 -0.2494 -0.8123 -0.2428
   15DOPE   HN3 1810   1.165   1.208   6.935  1.3829 -1.1220 -3.6390
   15DOPE   C12 1811   1.162   1.388   6.847  0.1969  0.4967 -0.2337
   15DOPE  H12A 1812   1.241   1.369   6.771 -0.0790 -1.7500 -0.0111
   15DOPE  H12B 1813   1.200   1.441   6.937 -1.1339 -0.2131  0.7978
   15DOPE   C11 1814   1.065   1.481   6.780  0.4475  0.2447  0.1309
   15DOPE  H11A 1815   1.009   1.437   6.696 -1.6058  3.4553 -0.3653
   15DOPE  H11B 1816   1.137   1.557   6.742  1.4300  0.7786  2.8053
   15DOPE     P 1817   0.873   1.650   6.838  0.3746  0.2482 -0.0744
   15DOPE   O13 1818   0.950   1.773   6.818 -0.2318  0.2918  0.5063
   15DOPE   O14 1819   0.761   1.647   6.936  0.0593 -0.3742  0.2294
   15DOPE   O11 1820   0.814   1.614   6.696 -0.0800  0.0640  0.2058
   15DOPE   O12 1821   0.977   1.534   6.872 -0.1304 -0.3504 -0.5447
   15DOPE    C1 1822   0.698   1.532   6.682  0.0188 -0.5622  0.2372
   15DOPE    HA 1823   0.628   1.551   6.766  0.5702  2.7629  0.0734
   15DOPE    HB 1824   0.722   1.424   6.687  1.7037 -0.2115  0.0573
   15DOPE    C2 1825   0.642   1.548   6.542  1.4332 -0.3974  0.9809
   15DOPE    HS 1826   0.570   1.465   6.527 -2.2070  2.7539 -0.7429
   15DOPE   O21 1827   0.745   1.556   6.443 -0.7625  0.1494  0.0076
   15DOPE   C21 1828   0.803   1.438   6.416  0.5229 -0.4244  1.0000
   15DOPE   O22 1829   0.767   1.327   6.454 -0.2324 -0.0262  0.0624
   15DOPE   C22 1830   0.925   1.468   6.340  0.3293 -1.2103  0.5840
   15DOPE   H2R 1831   1.004   1.490   6.415 -0.6571 -0.9981  1.5821
   15DOPE   H2S 1832   0.920   1.558   6.275  1.9885 -3.9496 -3.8569
   15DOPE    C3 1833   0.552   1.670   6.539 -0.1085  0.9580 -0.0208
   15DOPE    HX 1834   0.621   1.757   6.548  3.4374 -1.7355  0.7554
   15DOPE    HY 1835   0.489   1.664   6.630 -0.2183 -2.1974 -0.2060
   15DOPE   O31 1836   0.458   1.658   6.426  0.6499  0.2255  0.3583
   15DOPE   C31 1837   0.417   1.779   6.377  0.1344 -0.3555  1.0032
   15DOPE   O32 1838   0.439   1.885   6.429  0.5846  0.1547 -0.0013
   15DOPE   C32 1839   0.314   1.736   6.269 -0.5925  0.3544  0.0407
   15DOPE   H2X 1840   0.332   1.633   6.231  1.8974  0.7280  0.0458
   15DOPE   H2Y 1841   0.220   1.732   6.328 -0.2005  2.1584  0.8683
   15DOPE   C23 1842   0.988   1.357   6.254  0.8050 -0.1972  0.1166
   15DOPE   H3R 1843   0.986   1.261   6.308  0.3304 -0.2126  0.0837
   15DOPE   H3S 1844   1.094   1.382   6.231  1.3631  0.4123  2.9806
   15DOPE   C24 1845   0.920   1.339   6.116 -0.4351  0.1520 -0.1204
   15DOPE   H4R 1846   0.915   1.438   6.066 -1.1558  0.6331  0.8593
   15DOPE   H4S 1847   0.820   1.293   6.129 -0.1900 -1.0464 -2.2018
   15DOPE   C25 1848   0.984   1.237   6.020 -0.0060 -0.0046  0.4538
   15DOPE   H5R 1849   0.993   1.142   6.077  1.0200 -1.6576 -2.2636
   15DOPE   H5S 1850   1.079   1.268   5.971 -0.7323  1.0835 -0.3067
   15DOPE   C26 1851   0.894   1.197   5.899  0.1813 -0.7845  0.1151
   15DOPE   H6R 1852   0.807   1.146   5.947 -0.8265  0.9517  0.2321
   15DOPE   H6S 1853   0.941   1.119   5.835  0.6041 -0.1239 -0.3889
   15DOPE   C27 1854   0.863   1.315   5.808 -0.0762 -0.1020 -0.1661
   15DOPE   H7R 1855   0.963   1.358   5.785  0.3302 -0.3438  1.0749
   15DOPE   H7S 1856   0.806   1.399   5.851 -0.8578  0.0659 -1.4904
   15DOPE   C28 1857   0.808   1.279   5.670 -0.4280 -0.4121 -0.2516
   15DOPE   H8R 1858   0.715   1.223   5.692 -1.8335  2.3304  1.2274
   15DOPE   H8S 1859   0.882   1.210   5.622 -0.3425 -1.2601  1.0481
   15DOPE   C29 1860   0.799   1.399   5.584  0.2109 -0.0522 -0.1244
   15DOPE   H9R 1861   0.820   1.499   5.623 -0.7422  0.2879 -0.4674
   15DOPE  C210 1862   0.754   1.399   5.457  0.1475 -0.0343 -0.2694
   15DOPE  H10R 1863   0.744   1.494   5.403 -1.1544 -0.4224 -0.7648
   15DOPE  C211 1864   0.710   1.277   5.377  0.9156  0.0521 -0.6200
   15DOPE  H11R 1865   0.730   1.178   5.425  1.6387  1.1495  1.4731
   15DOPE  H11S 1866   0.758   1.263   5.278  0.7294 -2.8412 -0.3865
   15DOPE  C212 1867   0.559   1.278   5.329 -0.7975  0.2334  0.4424
   15DOPE  H12R 1868   0.552   1.190   5.263  0.9762  1.2078 -1.1278
   15DOPE  H12S 1869   0.546   1.367   5.264  1.5293  1.8631  2.0432
   15DOPE  C213 1870   0.451   1.283   5.436 -0.1059  0.9529 -0.3241
   15DOPE  H13R 1871   0.479   1.359   5.512  0.8896  0.4151 -0.1457
   15DOPE  H13S 1872   0.460   1.187   5.490 -1.3143  0.3347 -1.1891
   15DOPE  C214 1873   0.317   1.308   5.376 -0.0741  0.2649  0.2989
   15DOPE  H14R 1874   0.329   1.381   5.293  1.7094  0.8733  1.0342
   15DOPE  H14S 1875   0.255   1.360   5.452 -0.3952  0.2427  0.0556
   15DOPE  C215 1876   0.257   1.181   5.316  0.1724 -0.0787  0.2277
   15DOPE  H15R 1877   0.228   1.113   5.398  0.3329 -0.6797 -0.2052
   15DOPE  H15S 1878   0.321   1.134   5.238  1.9385  2.5838 -0.0693
   15DOPE  C216 1879   0.132   1.222   5.225 -0.6659 -0.2113 -0.6618
   15DOPE  H16R 1880   0.166   1.297   5.151 -1.2596  1.3937  0.6376
   15DOPE  H16S 1881   0.064   1.278   5.292 -0.3323 -0.4716 -0.0947
   15DOPE  C217 1882   0.061   1.093   5.175 -0.2555 -0.6410 -0.5660
   15DOPE  H17R 1883   0.021   1.033   5.259 -2.9130 -2.1967 -2.7838
   15DOPE  H17S 1884   0.123   1.021   5.117  3.0140  0.8010  0.9171
   15DOPE  C218 1885  -0.065   1.131   5.099 -0.7453  0.3318 -0.0410
   15DOPE  H18R 1886  -0.121   1.036   5.088  1.2554 -1.0308  0.8622
   15DOPE  H18S 1887  -0.045   1.189   5.006  0.0928  1.9769  1.1017
   15DOPE  H18T 1888  -0.111   1.192   5.181  0.0085  1.2934 -0.3200
   15DOPE   C33 1889   0.287   1.834   6.155  0.1341  0.0822  0.1568
   15DOPE   H3X 1890   0.335   1.818   6.056 -0.1101 -1.7944  0.3027
   15DOPE   H3Y 1891   0.308   1.935   6.196 -0.7018  0.3468 -0.0573
   15DOPE   C34 1892   0.133   1.833   6.130 -0.8513 -0.1828 -0.1935
   15DOPE   H4X 1893   0.102   1.727   6.117  0.1751 -0.6038  0.6323
   15DOPE   H4Y 1894   0.090   1.866   6.226 -0.3748 -2.6443  0.9408
   15DOPE   C35 1895   0.107   1.933   6.025  0.5058  0.2578 -0.8880
   15DOPE   H5X 1896   0.155   1.915   5.927 -0.9831  0.1387 -1.6190
   15DOPE   H5Y 1897   0.147   2.031   6.059  2.2318 -0.9752  0.8269
   15DOPE   C36 1898  -0.041   1.924   5.989  0.0545 -0.0751  0.5283
   15DOPE   H6X 1899  -0.107   1.932   6.078  0.9752 -0.3042  1.2507
   15DOPE   H6Y 1900  -0.066   1.819   5.960 -0.9438 -0.2104  1.7611
   15DOPE   C37 1901  -0.075   2.028   5.881 -0.3863 -0.8803  0.2395
   15DOPE   H7X 1902  -0.084   2.131   5.921  1.3203  0.5652 -2.7805
   15DOPE   H7Y 1903   0.012   2.043   5.813 -1.0587  1.4915 -0.1690
   15DOPE   C38 1904  -0.194   2.002   5.788 -0.1103  0.0187 -0.5928
   15DOPE   H8X 1905  -0.211   2.087   5.718 -0.6652 -0.8663 -1.5599
   15DOPE   H8Y 1906  -0.289   1.999   5.847 -2.0366  1.5506 -3.3680
   15DOPE   C39 1907  -0.173   1.882   5.699  0.3593 -0.9651 -0.5103
   15DOPE   H9X 1908  -0.152   1.787   5.750  1.3252 -1.1415 -1.2122
   15DOPE  C310 1909  -0.187   1.869   5.565 -0.8733 -0.3480 -0.0447
   15DOPE  H10X 1910  -0.175   1.765   5.529  2.1738 -0.1881  0.2645
   15DOPE  C311 1911  -0.226   1.971   5.456 -0.6722 -0.0563 -0.8704
   15DOPE  H11X 1912  -0.302   1.934   5.384 -0.0599 -1.2636 -0.9104
   15DOPE  H11Y 1913  -0.268   2.062   5.505 -0.5024 -0.4692  0.0730
   15DOPE  C312 1914  -0.116   2.034   5.366  0.0520  0.4185 -0.1002
   15DOPE  H12X 1915  -0.152   2.125   5.314  2.3348  2.6740  2.0135
   15DOPE  H12Y 1916  -0.086   1.964   5.285  1.1667  0.4540  0.2648
   15DOPE  C313 1917   0.016   2.080   5.424  0.1670 -0.0479  0.4137
   15DOPE  H13X 1918  -0.006   2.177   5.474 -4.2466 -0.2004 -0.8173
   15DOPE  H13Y 1919   0.044   2.000   5.495 -0.7664 -0.5105  0.2744
   15DOPE  C314 1920   0.115   2.122   5.316 -0.0211  0.1236  0.7672
   15DOPE  H14X 1921   0.080   2.216   5.267 -1.4538  0.1353  1.7616
   15DOPE  H14Y 1922   0.129   2.037   5.246 -1.3833  0.5753 -0.0998
   15DOPE  C315 1923   0.261   2.152   5.367 -0.3347  0.7287  0.2917
   15DOPE  H15X 1924   0.287   2.077   5.444 -2.3761  0.5195  0.8406
   15DOPE  H15Y 1925   0.255   2.250   5.419 -2.3530 -0.1085  1.7588
   15DOPE  C316 1926   0.360   2.154   5.254 -0.2215 -1.4973  0.0761
   15DOPE  H16X 1927   0.363   2.051   5.212 -0.7715 -1.2731 -0.5346
   15DOPE  H16Y 1928   0.459   2.173   5.301 -0.7159  2.8572 -0.2212
   15DOPE  C317 1929   0.336   2.249   5.129 -0.0460  0.1790  0.2570
   15DOPE  H17X 1930   0.228   2.247   5.103  0.6592 -1.6370 -3.0454
   15DOPE  H17Y 1931   0.359   2.354   5.156  4.0989 -0.8038  1.3186
   15DOPE  C318 1932   0.431   2.207   5.013 -0.2359  0.3539 -0.2583
   15DOPE  H18X 1933   0.465   2.285   4.942  1.1064 -0.5312 -0.6291
   15DOPE  H18Y 1934   0.519   2.150   5.049  0.5997  0.9912 -1.2540
   15DOPE  H18Z 1935   0.389   2.129   4.946  0.8538 -1.2727  0.8815
   16DOPE     N 1936   0.213   3.641   6.927 -0.1145 -0.2576  0.2960
   16DOPE   HN1 1937   0.116   3.630   6.890 -0.8106 -1.0727  2.2253
   16DOPE   HN2 1938   0.222   3.744   6.944 -1.0310  0.2125 -1.7138
   16DOPE   HN3 1939   0.278   3.613   6.852 -1.5459  1.4509 -1.7067
   16DOPE   C12 1940   0.215   3.545   7.040 -0.0358  0.3889 -0.2879
   16DOPE  H12A 1941   0.152   3.590   7.120  0.4415 -2.0408  1.5837
   16DOPE  H12B 1942   0.316   3.533   7.083 -0.4749 -1.1240  0.4134
   16DOPE   C11 1943   0.161   3.405   7.005 -0.3526  0.0487 -0.9197
   16DOPE  H11A 1944   0.158   3.338   7.093 -0.7967 -3.7389 -3.5389
   16DOPE  H11B 1945   0.241   3.362   6.940  1.2185  1.2123  0.1851
   16DOPE     P 1946  -0.035   3.266   6.898 -0.1026  0.0553 -0.1024
   16DOPE   O13 1947  -0.169   3.297   6.854  1.2648 -0.0329 -0.1247
   16DOPE   O14 1948  -0.016   3.174   7.010 -0.4706  0.3469  0.3782
   16DOPE   O11 1949   0.044   3.223   6.772 -0.9211  0.3626 -0.8317
   16DOPE   O12 1950   0.033   3.407   6.939  0.6234 -0.0196  0.5948
   16DOPE    C1 1951   0.064   3.300   6.656 -0.5975  0.0362  0.7066
   16DOPE    HA 1952   0.161   3.269   6.611 -0.8624 -1.2051  0.9504
   16DOPE    HB 1953   0.081   3.408   6.671  0.6198 -0.3432  2.3053
   16DOPE    C2 1954  -0.049   3.281   6.554 -0.5364  0.0177  0.5164
   16DOPE    HS 1955  -0.138   3.322   6.605 -1.3431 -2.2981  1.0949
   16DOPE   O21 1956  -0.066   3.142   6.529  0.4297 -0.0231 -0.3385
   16DOPE   C21 1957  -0.184   3.090   6.508 -0.1177  0.1927 -0.1024
   16DOPE   O22 1958  -0.284   3.155   6.473 -0.1323  0.3704 -0.2960
   16DOPE   C22 1959  -0.195   2.950   6.562  0.7650  0.1988  0.4573
   16DOPE   H2R 1960  -0.153   2.950   6.664  0.2402 -0.0554  0.6759
   16DOPE   H2S 1961  -0.127   2.884   6.504  0.1041 -1.2477  1.2742
   16DOPE    C3 1962  -0.013   3.354   6.422 -0.7820  0.6804 -0.8690
   16DOPE    HX 1963  -0.011   3.461   6.449 -4.9365  1.0782 -1.5562
   16DOPE    HY 1964  -0.084   3.337   6.338  0.3128  1.5223 -1.9913
   16DOPE   O31 1965   0.112   3.306   6.377 -0.6003  0.2765  0.1613
   16DOPE   C31 1966   0.217   3.386   6.348 -0.2801  0.2194  0.0129
   16DOPE   O32 1967   0.212   3.504   6.364  0.0777 -0.5773 -0.7664
   16DOPE   C32 1968   0.326   3.308   6.286  0.3268 -0.0455  1.0497
   16DOPE   H2X 1969   0.381   3.264   6.372  0.0126 -1.0343  0.7659
   16DOPE   H2Y 1970   0.283   3.224   6.227 -1.8235  2.8520 -1.8490
   16DOPE   C23 1971  -0.338   2.894   6.551  0.2305 -1.1097 -0.1099
   16DOPE   H3R 1972  -0.406   2.974   6.587  0.3642 -0.9520 -0.2043
   16DOPE   H3S 1973  -0.345   2.812   6.626  2.1777 -0.8894  0.3655
   16DOPE   C24 1974  -0.369   2.847   6.412 -0.0319  0.0886  0.4366
   16DOPE   H4R 1975  -0.285   2.785   6.375 -1.7578 -1.8769 -0.4168
   16DOPE   H4S 1976  -0.381   2.937   6.346  2.1999  0.5354  0.5666
   16DOPE   C25 1977  -0.500   2.763   6.419  0.7497  0.3351  0.3113
   16DOPE   H5R 1978  -0.578   2.811   6.482  0.1109 -0.1975 -0.0560
   16DOPE   H5S 1979  -0.472   2.667   6.467  0.6912 -0.5801 -1.3913
   16DOPE   C26 1980  -0.556   2.723   6.284  0.1234  0.1103  0.2313
   16DOPE   H6R 1981  -0.481   2.665   6.225  2.3374 -0.0401  2.9794
   16DOPE   H6S 1982  -0.589   2.806   6.217  1.1200 -0.7718 -1.4276
   16DOPE   C27 1983  -0.677   2.626   6.307 -0.1774  0.8640  0.1424
   16DOPE   H7R 1984  -0.767   2.683   6.336  0.3850  0.7579  2.3018
   16DOPE   H7S 1985  -0.647   2.561   6.392 -0.2719  0.1253 -0.3779
   16DOPE   C28 1986  -0.699   2.544   6.183  0.1669 -0.7184 -0.3847
   16DOPE   H8R 1987  -0.754   2.450   6.204 -4.4383  2.0364  1.3210
   16DOPE   H8S 1988  -0.602   2.498   6.153 -0.0848 -1.0520 -0.6934
   16DOPE   C29 1989  -0.766   2.624   6.074  0.2839 -0.5280  0.2074
   16DOPE   H9R 1990  -0.873   2.640   6.093 -0.0514 -0.7134 -1.3694
   16DOPE  C210 1991  -0.721   2.650   5.949  0.8710  0.6598 -0.7130
   16DOPE  H10R 1992  -0.783   2.717   5.886  0.3899  0.5540 -0.3564
   16DOPE  C211 1993  -0.588   2.610   5.880  0.1635  0.6281  0.1539
   16DOPE  H11R 1994  -0.597   2.517   5.819  2.3678  0.7627 -0.4324
   16DOPE  H11S 1995  -0.513   2.593   5.960 -0.5851 -2.7352  0.3107
   16DOPE  C212 1996  -0.542   2.712   5.769  0.0962 -0.3831  0.0639
   16DOPE  H12R 1997  -0.439   2.683   5.738  0.0664  1.0638 -1.4966
   16DOPE  H12S 1998  -0.539   2.814   5.813  0.3975 -1.3357  2.4347
   16DOPE  C213 1999  -0.628   2.703   5.642 -0.4153 -0.0208 -0.2737
   16DOPE  H13R 2000  -0.733   2.725   5.673  0.2822 -0.2765  2.5049
   16DOPE  H13S 2001  -0.632   2.596   5.611  1.1602 -0.3279  0.4975
   16DOPE  C214 2002  -0.577   2.787   5.528 -0.2339 -0.2326  0.6670
   16DOPE  H14R 2003  -0.472   2.757   5.509 -0.6452 -2.0898  1.1327
   16DOPE  H14S 2004  -0.589   2.896   5.543  0.4494 -0.0583 -0.0056
   16DOPE  C215 2005  -0.657   2.749   5.394 -0.2309  0.6928  0.0756
   16DOPE  H15R 2006  -0.763   2.767   5.419 -0.3182 -2.4472  2.6062
   16DOPE  H15S 2007  -0.638   2.641   5.377  1.4429  0.7006  1.5602
   16DOPE  C216 2008  -0.607   2.836   5.275  0.3426 -0.4423 -0.4128
   16DOPE  H16R 2009  -0.503   2.810   5.249  0.1119  0.0895 -1.9630
   16DOPE  H16S 2010  -0.617   2.940   5.315  2.4783  0.0597 -1.0611
   16DOPE  C217 2011  -0.696   2.838   5.149  0.5651  0.4959 -0.4596
   16DOPE  H17R 2012  -0.647   2.890   5.064 -0.9332  0.8707 -1.1284
   16DOPE  H17S 2013  -0.792   2.889   5.169  0.8999  1.3334 -0.9417
   16DOPE  C218 2014  -0.737   2.701   5.090  0.4182 -0.3306 -0.1933
   16DOPE  H18R 2015  -0.647   2.648   5.051  1.8782  2.4060 -0.7664
   16DOPE  H18S 2016  -0.809   2.712   5.006 -1.4065  0.4035  1.3940
   16DOPE  H18T 2017  -0.773   2.635   5.172  1.1746  0.9396  1.2197
   16DOPE   C33 2018   0.419   3.382   6.189 -0.5327 -0.0993 -0.3434
   16DOPE   H3X 2019   0.505   3.313   6.172 -0.0458  0.3825  0.1162
   16DOPE   H3Y 2020   0.465   3.471   6.237 -0.1242 -0.4175 -0.1427
   16DOPE   C34 2021   0.367   3.413   6.044 -0.1709  0.3347 -0.6687
   16DOPE   H4X 2022   0.274   3.471   6.061  0.3461  0.4643  2.2180
   16DOPE   H4Y 2023   0.431   3.485   5.989 -0.7085  0.4065 -1.2129
   16DOPE   C35 2024   0.341   3.282   5.960 -0.8294 -0.6795 -0.2339
   16DOPE   H5X 2025   0.282   3.204   6.012  1.4611 -0.6527  2.6748
   16DOPE   H5Y 2026   0.434   3.233   5.924 -1.2499 -1.8850  0.2896
   16DOPE   C36 2027   0.269   3.321   5.830 -0.0630  0.1010 -1.2670
   16DOPE   H6X 2028   0.337   3.383   5.767 -0.0705 -0.8778 -2.2775
   16DOPE   H6Y 2029   0.184   3.386   5.862  0.2237 -0.4580  0.7329
   16DOPE   C37 2030   0.209   3.196   5.758 -0.1551  0.3466 -0.1532
   16DOPE   H7X 2031   0.284   3.138   5.701  0.2887  1.8185 -1.1243
   16DOPE   H7Y 2032   0.171   3.120   5.829 -0.6063 -1.2151 -1.9983
   16DOPE   C38 2033   0.102   3.238   5.656  0.0492 -0.5057 -0.4210
   16DOPE   H8X 2034   0.027   3.311   5.694 -0.2585 -1.2336  0.4030
   16DOPE   H8Y 2035   0.044   3.148   5.627 -1.2789  0.6326 -1.4985
   16DOPE   C39 2036   0.166   3.288   5.527  0.3752 -0.1790  0.0182
   16DOPE   H9X 2037   0.160   3.398   5.521  0.7509 -0.0676  1.2932
   16DOPE  C310 2038   0.200   3.205   5.422  0.2235 -0.2168 -0.2344
   16DOPE  H10X 2039   0.212   3.263   5.329 -1.9827  1.1982  0.2911
   16DOPE  C311 2040   0.195   3.055   5.409  0.0934 -0.5465 -0.1735
   16DOPE  H11X 2041   0.183   3.005   5.507  1.7349 -1.6411 -0.4804
   16DOPE  H11Y 2042   0.116   3.027   5.336 -0.4685  1.2242 -0.3068
   16DOPE  C312 2043   0.326   2.996   5.367  0.2048  0.7103  0.6709
   16DOPE  H12X 2044   0.367   3.046   5.277 -1.6002  1.3321  0.1553
   16DOPE  H12Y 2045   0.304   2.895   5.328  0.6481  1.0297 -0.4337
   16DOPE  C313 2046   0.428   2.999   5.471  0.3418 -0.0495 -0.1158
   16DOPE  H13X 2047   0.521   2.995   5.411 -0.8185  1.3200 -2.1404
   16DOPE  H13Y 2048   0.441   3.096   5.524 -1.2067  1.8438 -2.9159
   16DOPE  C314 2049   0.419   2.880   5.568  0.4576  0.2767 -0.1794
   16DOPE  H14X 2050   0.406   2.779   5.523 -2.4629  0.0205  1.0152
   16DOPE  H14Y 2051   0.325   2.880   5.628 -0.6047 -2.9191 -1.6077
   16DOPE  C315 2052   0.536   2.884   5.671  0.1471  0.4414 -0.1890
   16DOPE  H15X 2053   0.600   2.969   5.638 -0.6803  1.1504 -0.0159
   16DOPE  H15Y 2054   0.586   2.786   5.665  0.1460  0.2000  2.5177
   16DOPE  C316 2055   0.491   2.904   5.821  0.8117  0.3616  0.3543
   16DOPE  H16X 2056   0.443   2.807   5.846  1.6555 -0.1751 -0.0587
   16DOPE  H16Y 2057   0.412   2.982   5.828 -2.5803 -2.8944  1.5708
   16DOPE  C317 2058   0.610   2.946   5.910 -0.0192  0.1079 -0.3174
   16DOPE  H17X 2059   0.694   2.879   5.883 -1.8521 -1.2662 -3.1503
   16DOPE  H17Y 2060   0.636   3.053   5.891  0.4271  0.3786  1.6258
   16DOPE  C318 2061   0.573   2.934   6.062 -0.0994 -0.1530  0.1219
   16DOPE  H18X 2062   0.668   2.963   6.111 -0.2625  0.0685  0.3100
   16DOPE  H18Y 2063   0.497   3.006   6.099 -0.0949 -0.3869  0.5968
   16DOPE  H18Z 2064   0.550   2.831   6.098 -1.5529  1.0400  2.9423
   17DOPE     N 2065   1.176   5.425   7.340  0.4803 -0.9382  0.3695
   17DOPE   HN1 2066   1.107   5.366   7.290 -1.0217  0.3988  0.7744
   17DOPE   HN2 2067   1.168   5.406   7.442 -1.0986  1.2531  0.7139
   17DOPE   HN3 2068   1.156   5.527   7.330  0.3874 -1.0003 -0.1032
   17DOPE   C12 2069   1.313   5.386   7.295 -0.3984 -0.6945 -0.2802
   17DOPE  H12A 2070   1.337   5.280   7.315  0.1084 -0.3023  1.3788
   17DOPE  H12B 2071   1.392   5.437   7.355 -0.4321 -0.1071 -0.7257
   17DOPE   C11 2072   1.331   5.408   7.143 -0.3293  0.4002 -0.1966
   17DOPE  H11A 2073   1.259   5.339   7.093 -1.6666  0.7448  1.1722
   17DOPE  H11B 2074   1.430   5.361   7.125  1.1738  2.6362  1.6431
   17DOPE     P 2075   1.424   5.611   7.012  0.0846 -0.3654 -0.2264
   17DOPE   O13 2076   1.558   5.604   7.069 -0.1158 -0.4731  0.2431
   17DOPE   O14 2077   1.377   5.746   6.986  0.2016 -0.5327 -0.3878
   17DOPE   O11 2078   1.405   5.522   6.883  0.1968  0.6400  0.9694
   17DOPE   O12 2079   1.318   5.543   7.105 -0.3189 -0.2710  0.1776
   17DOPE    C1 2080   1.504   5.417   6.848  0.1593  0.4722 -1.1320
   17DOPE    HA 2081   1.446   5.334   6.803 -0.9099  1.2521 -1.2354
   17DOPE    HB 2082   1.540   5.362   6.938 -0.2857 -1.9834 -2.3695
   17DOPE    C2 2083   1.614   5.478   6.760  0.1159  0.5700  0.0999
   17DOPE    HS 2084   1.650   5.554   6.832  1.2092 -1.0224  1.2926
   17DOPE   O21 2085   1.552   5.547   6.655 -0.0253 -0.1733 -0.4937
   17DOPE   C21 2086   1.602   5.658   6.609 -0.3916  0.3233 -1.0550
   17DOPE   O22 2087   1.706   5.707   6.652  0.5665 -0.1776  0.1400
   17DOPE   C22 2088   1.529   5.698   6.483 -0.0793 -0.1580 -0.7179
   17DOPE   H2R 2089   1.485   5.799   6.500 -3.0237 -1.4275 -0.2327
   17DOPE   H2S 2090   1.442   5.630   6.478 -0.4540  0.2744 -0.2008
   17DOPE    C3 2091   1.722   5.376   6.704 -0.1081  0.1172 -0.2510
   17DOPE    HX 2092   1.661   5.296   6.656  0.5543  1.8554 -4.3475
   17DOPE    HY 2093   1.781   5.329   6.786  1.2797 -0.0153 -1.2862
   17DOPE   O31 2094   1.809   5.439   6.609  0.1582 -0.0033  0.0876
   17DOPE   C31 2095   1.917   5.502   6.650 -0.7423 -0.0943 -0.0857
   17DOPE   O32 2096   1.968   5.499   6.759 -0.2426  0.4544  0.1020
   17DOPE   C32 2097   1.988   5.567   6.529 -0.1849  0.2884  0.0994
   17DOPE   H2X 2098   1.989   5.493   6.446 -1.3423 -1.3910  1.5044
   17DOPE   H2Y 2099   1.930   5.659   6.511 -1.0738 -0.3889 -0.5462
   17DOPE   C23 2100   1.624   5.703   6.367  0.3112 -0.3783 -0.4691
   17DOPE   H3R 2101   1.714   5.767   6.382 -2.0383  3.0697  0.0545
   17DOPE   H3S 2102   1.574   5.755   6.282 -1.6845 -1.8824 -0.2739
   17DOPE   C24 2103   1.665   5.562   6.315  0.0413  0.0514 -0.5331
   17DOPE   H4R 2104   1.568   5.517   6.285  0.1933 -2.1089  1.8650
   17DOPE   H4S 2105   1.692   5.501   6.404  1.6947 -0.3451 -1.2695
   17DOPE   C25 2106   1.757   5.562   6.197  0.2602 -0.1993 -0.0639
   17DOPE   H5R 2107   1.848   5.612   6.235 -0.4808  0.4945  0.8720
   17DOPE   H5S 2108   1.710   5.623   6.117 -1.9934  0.3591  1.5636
   17DOPE   C26 2109   1.797   5.420   6.161  0.9845 -0.2575 -0.8099
   17DOPE   H6R 2110   1.705   5.373   6.119  0.4897  1.4325 -1.7096
   17DOPE   H6S 2111   1.826   5.366   6.253  0.9425 -0.5665 -0.9761
   17DOPE   C27 2112   1.900   5.406   6.059 -0.6717  0.2807  0.5481
   17DOPE   H7R 2113   1.857   5.446   5.965 -1.4073 -0.5978  0.5029
   17DOPE   H7S 2114   1.919   5.297   6.044 -2.3682 -0.1491  1.3124
   17DOPE   C28 2115   2.037   5.473   6.103 -0.1877  0.2991 -0.3240
   17DOPE   H8R 2116   2.055   5.444   6.209 -0.2021  2.5474  0.3498
   17DOPE   H8S 2117   2.041   5.584   6.097  1.5361  0.3183  0.5174
   17DOPE   C29 2118   2.141   5.411   6.021 -0.5287 -0.1084 -0.5118
   17DOPE   H9R 2119   2.132   5.303   6.034 -1.3372  0.2413  2.2985
   17DOPE  C210 2120   2.233   5.464   5.942  0.8299 -0.6785 -0.2658
   17DOPE  H10R 2121   2.299   5.391   5.894  1.0967  0.5337 -1.8565
   17DOPE  C211 2122   2.256   5.607   5.910  0.0003  0.0980 -0.1401
   17DOPE  H11R 2123   2.164   5.665   5.933 -0.1767  0.0046 -0.6134
   17DOPE  H11S 2124   2.274   5.618   5.801  0.9413 -1.3984 -0.1726
   17DOPE  C212 2125   2.363   5.654   6.012  0.1945  0.4056  1.0193
   17DOPE  H12R 2126   2.346   5.620   6.116 -0.5144 -0.1990  0.7172
   17DOPE  H12S 2127   2.353   5.764   6.016  0.8370  0.4327  2.7860
   17DOPE  C213 2128   2.509   5.628   5.970  0.2885  0.1492 -0.0803
   17DOPE  H13R 2129   2.584   5.690   6.024 -0.6610  2.1129 -0.9162
   17DOPE  H13S 2130   2.515   5.666   5.866  1.4516  0.5907  0.1252
   17DOPE  C214 2131   2.562   5.486   5.980  0.2379  0.4077  0.1270
   17DOPE  H14R 2132   2.669   5.488   5.951 -0.0424  1.9205 -0.9416
   17DOPE  H14S 2133   2.520   5.427   5.896 -0.8171 -1.4666  1.8661
   17DOPE  C215 2134   2.555   5.417   6.115 -0.4792 -0.3351  0.1812
   17DOPE  H15R 2135   2.450   5.415   6.149 -1.2174 -0.3550 -1.9552
   17DOPE  H15S 2136   2.601   5.483   6.192  0.6750 -2.6400  1.5711
   17DOPE  C216 2137   2.636   5.286   6.127  0.6662  0.8660 -0.3476
   17DOPE  H16R 2138   2.741   5.293   6.090  2.2367 -2.4439  2.8647
   17DOPE  H16S 2139   2.585   5.203   6.073  1.7729  0.5036 -0.8798
   17DOPE  C217 2140   2.657   5.235   6.270  0.2812 -0.3038  0.2593
   17DOPE  H17R 2141   2.710   5.313   6.327  2.5808 -0.3382 -1.6833
   17DOPE  H17S 2142   2.725   5.149   6.251 -2.0264 -2.3156  0.6023
   17DOPE  C218 2143   2.532   5.196   6.346  0.4666  0.1030 -0.4525
   17DOPE  H18R 2144   2.486   5.098   6.322  1.2593  0.1945 -2.4737
   17DOPE  H18S 2145   2.452   5.274   6.350 -0.3155 -0.6489  3.3171
   17DOPE  H18T 2146   2.563   5.190   6.453  0.2899  3.3629 -0.1085
   17DOPE   C33 2147   2.135   5.594   6.559  0.5535  0.7608 -0.8316
   17DOPE   H3X 2148   2.186   5.498   6.584 -0.2075 -0.0731 -2.3618
   17DOPE   H3Y 2149   2.147   5.661   6.646 -0.0289  0.1799 -0.2879
   17DOPE   C34 2150   2.227   5.642   6.446 -0.2522  0.7755 -0.1450
   17DOPE   H4X 2151   2.232   5.569   6.362  2.3838  1.2606 -0.5151
   17DOPE   H4Y 2152   2.190   5.740   6.410 -0.5818  0.9178  0.5509
   17DOPE   C35 2153   2.367   5.663   6.499 -0.3558 -0.0625 -0.1555
   17DOPE   H5X 2154   2.415   5.580   6.555  0.9075  1.5695  1.2727
   17DOPE   H5Y 2155   2.374   5.740   6.578 -0.2176  0.3251 -0.5418
   17DOPE   C36 2156   2.460   5.696   6.383 -0.2649 -0.3449  0.9941
   17DOPE   H6X 2157   2.447   5.804   6.363  0.4756 -0.3056  0.6876
   17DOPE   H6Y 2158   2.442   5.631   6.294 -0.2671  1.1010 -0.0823
   17DOPE   C37 2159   2.608   5.671   6.422 -0.0235 -0.9553  0.0362
   17DOPE   H7X 2160   2.624   5.692   6.530 -0.0886 -0.2638 -0.0857
   17DOPE   H7Y 2161   2.626   5.562   6.413 -0.1664 -0.9316 -0.5703
   17DOPE   C38 2162   2.714   5.744   6.333  0.2277 -0.7690  0.4718
   17DOPE   H8X 2163   2.708   5.718   6.225  0.2513  0.5529  0.1428
   17DOPE   H8Y 2164   2.815   5.709   6.364  1.3984  1.3059 -0.7818
   17DOPE   C39 2165   2.714   5.893   6.347 -0.1563 -0.1854  0.4698
   17DOPE   H9X 2166   2.621   5.935   6.306  0.0885 -1.2571 -1.2416
   17DOPE  C310 2167   2.803   5.969   6.413  0.2235 -0.1167  0.3701
   17DOPE  H10X 2168   2.771   6.074   6.415  0.4245 -0.0578  0.5245
   17DOPE  C311 2169   2.929   5.937   6.490 -0.1317 -0.3902 -0.0448
   17DOPE  H11X 2170   2.921   5.826   6.496 -2.6030 -0.2965 -0.3735
   17DOPE  H11Y 2171   3.027   5.967   6.447 -0.5527  0.0610 -0.6998
   17DOPE  C312 2172   2.939   5.999   6.625 -0.5698  0.0255  0.1072
   17DOPE  H12X 2173   3.033   5.959   6.669 -0.0258  0.5513 -0.5552
   17DOPE  H12Y 2174   2.863   5.955   6.693  0.5302  0.2899  1.5462
   17DOPE  C313 2175   2.939   6.148   6.654  0.2138 -0.1664  0.7362
   17DOPE  H13X 2176   2.835   6.180   6.631 -0.4947 -2.7980 -0.1000
   17DOPE  H13Y 2177   2.958   6.159   6.762  2.5655 -0.5310  0.4180
   17DOPE  C314 2178   3.036   6.232   6.578 -0.0371 -0.8259  0.2787
   17DOPE  H14X 2179   3.021   6.333   6.621  0.6019 -1.0147  0.9604
   17DOPE  H14Y 2180   3.006   6.232   6.471 -0.2742 -0.1004  0.3371
   17DOPE  C315 2181   3.188   6.205   6.592  0.1019  0.4896 -0.5114
   17DOPE  H15X 2182   3.213   6.126   6.519 -1.0972 -1.5994  1.2305
   17DOPE  H15Y 2183   3.201   6.159   6.692 -0.1829 -1.2586 -1.2451
   17DOPE  C316 2184   3.287   6.310   6.549  0.0229  0.1224 -0.7049
   17DOPE  H16X 2185   3.292   6.385   6.630 -0.3155 -1.1707  0.5606
   17DOPE  H16Y 2186   3.253   6.355   6.453 -1.6238  2.0220  0.7026
   17DOPE  C317 2187   3.430   6.255   6.521 -0.1579  0.0431 -0.2639
   17DOPE  H17X 2188   3.474   6.218   6.616 -1.9036 -0.6286  0.3224
   17DOPE  H17Y 2189   3.433   6.164   6.457  0.7998  0.0443 -0.2411
   17DOPE  C318 2190   3.530   6.352   6.457 -0.2469 -0.0530  0.0054
   17DOPE  H18X 2191   3.498   6.380   6.354 -0.0363  1.0556  0.2296
   17DOPE  H18Y 2192   3.534   6.446   6.516  2.3488  0.6465 -1.1446
   17DOPE  H18Z 2193   3.632   6.310   6.463 -0.2925 -0.3188 -0.8402
   18DOPE     N 2194   7.421   4.672   6.928  0.2587  0.4221  0.6034
   18DOPE   HN1 2195   7.384   4.756   6.976 -0.3657  0.3177  0.3219
   18DOPE   HN2 2196   7.439   4.602   7.003  0.8348  1.6921  1.6865
   18DOPE   HN3 2197   7.515   4.703   6.899 -1.1548  2.7320 -1.9304
   18DOPE   C12 2198   7.339   4.617   6.812 -0.1221  0.1375 -0.5060
   18DOPE  H12A 2199   7.383   4.662   6.721  4.7832 -1.6831  0.6632
   18DOPE  H12B 2200   7.240   4.661   6.840  0.1247  0.1344  0.4129
   18DOPE   C11 2201   7.335   4.461   6.808  0.2458  0.2922  0.6388
   18DOPE  H11A 2202   7.428   4.426   6.758  0.5241  0.9604  0.6779
   18DOPE  H11B 2203   7.247   4.434   6.746  0.9769 -0.3264 -0.1611
   18DOPE     P 2204   7.220   4.370   7.032 -0.1395 -0.0127  0.0187
   18DOPE   O13 2205   7.196   4.481   7.129  0.3292 -0.0728  0.1319
   18DOPE   O14 2206   7.246   4.236   7.088  0.2089  0.0929  0.2780
   18DOPE   O11 2207   7.095   4.375   6.943  0.1365 -0.0012  0.0007
   18DOPE   O12 2208   7.336   4.409   6.941  0.0979 -0.3852 -0.0279
   18DOPE    C1 2209   7.014   4.262   6.896 -0.1835  0.8499  0.2376
   18DOPE    HA 2210   6.911   4.297   6.875 -0.1697  0.6944 -0.0994
   18DOPE    HB 2211   6.997   4.190   6.980  0.5068 -1.8515 -1.8042
   18DOPE    C2 2212   7.075   4.181   6.779  0.7864  0.3300  0.3530
   18DOPE    HS 2213   7.176   4.154   6.816  0.1529  0.6950  2.4801
   18DOPE   O21 2214   7.077   4.249   6.652  0.5090  0.3135  0.3226
   18DOPE   C21 2215   7.173   4.210   6.568  0.1184 -0.3327 -0.0827
   18DOPE   O22 2216   7.282   4.160   6.603 -0.3396 -0.6348  0.2635
   18DOPE   C22 2217   7.144   4.258   6.430  0.0043  0.4259 -0.1484
   18DOPE   H2R 2218   7.078   4.347   6.430 -1.7261 -0.7849 -0.6599
   18DOPE   H2S 2219   7.087   4.170   6.393 -0.9874  0.1890  1.8227
   18DOPE    C3 2220   6.982   4.050   6.770 -0.3145 -0.0462 -0.0873
   18DOPE    HX 2221   6.879   4.091   6.760  0.6689  2.2949 -1.7384
   18DOPE    HY 2222   6.987   3.994   6.865  0.6949  1.1130  0.5831
   18DOPE   O31 2223   7.030   3.968   6.656 -0.3103  0.5211  0.0218
   18DOPE   C31 2224   7.137   3.885   6.684 -0.0099  0.4059  0.1322
   18DOPE   O32 2225   7.192   3.877   6.792 -0.0091 -0.2430 -0.1765
   18DOPE   C32 2226   7.187   3.798   6.563 -0.1386 -0.1637 -0.5341
   18DOPE   H2X 2227   7.284   3.750   6.589  0.5805  0.6198 -1.6726
   18DOPE   H2Y 2228   7.112   3.717   6.546 -1.3263  0.5716  0.9423
   18DOPE   C23 2229   7.267   4.279   6.335  0.2543  0.4564  0.3215
   18DOPE   H3R 2230   7.230   4.290   6.231  2.1411 -1.2464 -0.6008
   18DOPE   H3S 2231   7.333   4.189   6.338 -1.1102 -0.5685  2.9635
   18DOPE   C24 2232   7.339   4.407   6.374  0.0114 -0.1174 -0.2390
   18DOPE   H4R 2233   7.429   4.424   6.311  0.8551 -3.0278  0.0334
   18DOPE   H4S 2234   7.365   4.414   6.482  0.4570  2.5984 -0.4270
   18DOPE   C25 2235   7.251   4.542   6.358 -0.0117  0.3244 -0.1102
   18DOPE   H5R 2236   7.305   4.630   6.399  0.1887  0.4593 -0.6596
   18DOPE   H5S 2237   7.168   4.529   6.431 -0.3151 -1.0288 -0.6666
   18DOPE   C26 2238   7.211   4.561   6.215 -0.6215 -0.2509 -0.3539
   18DOPE   H6R 2239   7.163   4.661   6.219  2.5647  1.4646 -1.2119
   18DOPE   H6S 2240   7.137   4.492   6.169 -2.9884  0.3007  2.3220
   18DOPE   C27 2241   7.327   4.583   6.114  0.2958 -0.3487 -0.2970
   18DOPE   H7R 2242   7.387   4.493   6.089 -0.4692 -0.5559 -1.4719
   18DOPE   H7S 2243   7.392   4.663   6.155 -0.8054 -0.8053  2.5798
   18DOPE   C28 2244   7.277   4.623   5.972 -0.3907 -0.1914  0.2266
   18DOPE   H8R 2245   7.371   4.643   5.917  1.1277 -0.5897  2.5229
   18DOPE   H8S 2246   7.214   4.714   5.973  1.4331  1.2473 -2.6839
   18DOPE   C29 2247   7.200   4.521   5.900 -0.2197 -0.1264  0.1081
   18DOPE   H9R 2248   7.125   4.470   5.962  0.9910  0.5007  2.1955
   18DOPE  C210 2249   7.212   4.493   5.773 -0.0265  0.7369  0.5078
   18DOPE  H10R 2250   7.151   4.409   5.737 -1.6949  1.5376  1.3667
   18DOPE  C211 2251   7.297   4.535   5.660 -0.0435  0.1621 -0.2840
   18DOPE  H11R 2252   7.390   4.473   5.658  0.2359  0.5756 -0.1192
   18DOPE  H11S 2253   7.337   4.638   5.664  0.8162 -0.1949  2.3892
   18DOPE  C212 2254   7.235   4.522   5.515  0.1720  0.3331 -0.0583
   18DOPE  H12R 2255   7.193   4.420   5.504  1.1401 -0.1731  0.7690
   18DOPE  H12S 2256   7.311   4.546   5.438  3.1099 -1.5112  2.0528
   18DOPE  C213 2257   7.125   4.629   5.504  0.5027  0.2876  0.4528
   18DOPE  H13R 2258   7.180   4.722   5.530  1.9649 -0.5545  0.5135
   18DOPE  H13S 2259   7.049   4.614   5.584 -1.2300  0.7894 -1.0325
   18DOPE  C214 2260   7.058   4.632   5.366 -0.1129 -0.4302 -0.0773
   18DOPE  H14R 2261   7.000   4.538   5.353  0.1462 -0.7440  0.9743
   18DOPE  H14S 2262   7.143   4.636   5.295  0.7468 -1.2725  0.8885
   18DOPE  C215 2263   6.969   4.759   5.347  0.0071  0.3944 -0.0406
   18DOPE  H15R 2264   6.945   4.771   5.240 -1.7145  0.2221  0.2996
   18DOPE  H15S 2265   7.016   4.855   5.375  1.1622 -0.1695 -0.0025
   18DOPE  C216 2266   6.830   4.743   5.420  0.9342  0.2045  0.6472
   18DOPE  H16R 2267   6.851   4.763   5.527 -1.3110  2.2358  0.7956
   18DOPE  H16S 2268   6.784   4.642   5.419  3.9403 -1.2870  0.3159
   18DOPE  C217 2269   6.724   4.845   5.369  0.2420 -0.7483  0.0771
   18DOPE  H17R 2270   6.626   4.817   5.415  0.3807 -0.4601  0.5514
   18DOPE  H17S 2271   6.707   4.838   5.260 -1.5261  1.6726  0.1179
   18DOPE  C218 2272   6.773   4.988   5.392 -0.7139 -0.6728 -0.7946
   18DOPE  H18R 2273   6.679   5.043   5.368  0.2580  1.0023 -0.9091
   18DOPE  H18S 2274   6.862   5.014   5.331  0.8001 -1.2224  1.0707
   18DOPE  H18T 2275   6.791   4.999   5.501 -0.7239  0.5096 -0.9001
   18DOPE   C33 2276   7.206   3.881   6.438 -0.3243 -0.2941  0.0588
   18DOPE   H3X 2277   7.279   3.962   6.460 -0.6467  0.1961 -0.6383
   18DOPE   H3Y 2278   7.121   3.930   6.386 -0.4641 -0.2455  0.3330
   18DOPE   C34 2279   7.265   3.784   6.334 -0.2956  0.3787  0.1871
   18DOPE   H4X 2280   7.324   3.707   6.388 -0.9689 -0.7804 -0.6839
   18DOPE   H4Y 2281   7.189   3.723   6.280 -1.3479  2.2741 -0.5879
   18DOPE   C35 2282   7.362   3.847   6.241 -0.2337  0.3086 -0.0426
   18DOPE   H5X 2283   7.432   3.916   6.294  1.2548 -0.9829 -0.2797
   18DOPE   H5Y 2284   7.304   3.914   6.174 -1.2540 -0.9748 -0.4707
   18DOPE   C36 2285   7.441   3.750   6.144  0.0745  0.2634  0.0358
   18DOPE   H6X 2286   7.528   3.804   6.101 -0.7764  0.4719 -1.4851
   18DOPE   H6Y 2287   7.378   3.722   6.057 -2.1413  0.1423  1.6003
   18DOPE   C37 2288   7.479   3.604   6.196 -0.0249 -0.5550  0.3794
   18DOPE   H7X 2289   7.550   3.615   6.280 -0.7904  1.1901  0.8368
   18DOPE   H7Y 2290   7.385   3.560   6.236 -0.3886 -0.1333 -0.0028
   18DOPE   C38 2291   7.545   3.514   6.085  0.2667 -0.0939 -0.5492
   18DOPE   H8X 2292   7.595   3.427   6.132  0.9345 -0.0691 -1.2058
   18DOPE   H8Y 2293   7.632   3.571   6.045  2.1686 -1.2639  1.6533
   18DOPE   C39 2294   7.458   3.471   5.970 -0.5785 -0.3391 -0.2350
   18DOPE   H9X 2295   7.406   3.375   5.978  1.6335 -1.5354  0.6622
   18DOPE  C310 2296   7.433   3.536   5.850  0.7183 -0.3643  0.1798
   18DOPE  H10X 2297   7.363   3.486   5.781  1.3208  0.3652 -0.9992
   18DOPE  C311 2298   7.486   3.666   5.800 -0.2585  0.8252 -0.6194
   18DOPE  H11X 2299   7.413   3.745   5.771  1.7957  2.1747 -2.3841
   18DOPE  H11Y 2300   7.550   3.704   5.882 -2.1703  1.9435  0.4425
   18DOPE  C312 2301   7.568   3.650   5.668 -0.0260  0.0527 -0.3817
   18DOPE  H12X 2302   7.652   3.577   5.670  0.5445  0.6184 -2.0720
   18DOPE  H12Y 2303   7.606   3.753   5.650 -1.0239  0.4809 -0.1181
   18DOPE  C313 2304   7.485   3.604   5.537  0.1447 -0.3956  0.0079
   18DOPE  H13X 2305   7.441   3.502   5.539 -0.2410 -0.2620 -0.9967
   18DOPE  H13Y 2306   7.396   3.664   5.510 -0.6722 -2.0100 -1.1012
   18DOPE  C314 2307   7.569   3.622   5.409  0.4582 -0.1528  0.5805
   18DOPE  H14X 2308   7.666   3.573   5.431  1.4259  1.5953  0.3492
   18DOPE  H14Y 2309   7.593   3.730   5.410  1.0388 -0.2817  1.8648
   18DOPE  C315 2310   7.506   3.580   5.275 -0.0167  0.5887 -0.2878
   18DOPE  H15X 2311   7.586   3.606   5.203  0.3896 -0.1622 -0.1136
   18DOPE  H15Y 2312   7.411   3.635   5.257 -0.6257 -0.4134 -0.2250
   18DOPE  C316 2313   7.488   3.428   5.259  0.1680 -0.6020 -0.8355
   18DOPE  H16X 2314   7.401   3.396   5.320 -0.1800 -2.2501 -2.1132
   18DOPE  H16Y 2315   7.575   3.369   5.296  0.2549 -0.0348 -0.1145
   18DOPE  C317 2316   7.449   3.376   5.120  0.7502 -0.0481  0.0765
   18DOPE  H17X 2317   7.408   3.273   5.123 -0.0516  0.1093 -2.6079
   18DOPE  H17Y 2318   7.373   3.452   5.091 -0.6215 -1.7736 -0.9831
   18DOPE  C318 2319   7.564   3.364   5.023 -0.2510 -0.2966  0.3992
   18DOPE  H18X 2320   7.547   3.347   4.915  0.1791 -1.4143  0.4880
   18DOPE  H18Y 2321   7.626   3.455   5.014  0.2647 -0.8419 -2.6154
   18DOPE  H18Z 2322   7.632   3.284   5.061  1.1736  0.3756 -0.6355
   19DOPE     N 2323   6.940   4.592   7.157  0.3751  0.7625  0.6775
   19DOPE   HN1 2324   6.891   4.515   7.208 -2.6587  0.9419 -1.6657
   19DOPE   HN2 2325   7.033   4.560   7.125 -0.1404  1.2705 -1.4839
   19DOPE   HN3 2326   6.949   4.673   7.221 -0.3687  2.3093 -1.0759
   19DOPE   C12 2327   6.857   4.612   7.032 -0.5419 -0.7478  0.3153
   19DOPE  H12A 2328   6.885   4.524   6.971  0.5925  0.1718 -0.5445
   19DOPE  H12B 2329   6.891   4.706   6.984  0.3033 -1.0236  0.3504
   19DOPE   C11 2330   6.710   4.639   7.066 -0.0768  0.3482  0.3156
   19DOPE  H11A 2331   6.653   4.660   6.972 -2.3398  0.8912  1.7432
   19DOPE  H11B 2332   6.696   4.741   7.108 -1.7805 -0.2079  1.1429
   19DOPE     P 2333   6.619   4.383   7.099 -0.1552 -0.1095  0.5712
   19DOPE   O13 2334   6.478   4.355   7.129 -0.6618  0.2293  0.7111
   19DOPE   O14 2335   6.722   4.303   7.168  0.8809 -0.2045  0.4745
   19DOPE   O11 2336   6.651   4.373   6.946  1.0499 -0.2383  0.5463
   19DOPE   O12 2337   6.650   4.538   7.148 -0.7487 -0.0602 -0.3564
   19DOPE    C1 2338   6.543   4.357   6.847 -0.7448 -0.0713 -1.0337
   19DOPE    HA 2339   6.466   4.432   6.876  1.4453  1.2078  2.0963
   19DOPE    HB 2340   6.494   4.257   6.854 -0.0728 -0.3349  0.4770
   19DOPE    C2 2341   6.580   4.388   6.702 -0.1326 -0.2040  0.2923
   19DOPE    HS 2342   6.482   4.371   6.653  1.3846  0.2826 -3.2317
   19DOPE   O21 2343   6.681   4.298   6.650  0.0454  0.3152  0.2434
   19DOPE   C21 2344   6.637   4.180   6.602 -0.0302  0.4558 -0.3977
   19DOPE   O22 2345   6.529   4.128   6.625 -0.6897 -0.3556 -0.3632
   19DOPE   C22 2346   6.753   4.112   6.522  0.2130  0.0128 -0.1437
   19DOPE   H2R 2347   6.778   4.019   6.577  0.4380  0.4573  0.5123
   19DOPE   H2S 2348   6.839   4.182   6.527 -0.3396  0.7056 -0.1547
   19DOPE    C3 2349   6.623   4.535   6.679  0.6182  0.1342  0.8418
   19DOPE    HX 2350   6.716   4.551   6.739 -0.9081  0.1072  3.3522
   19DOPE    HY 2351   6.546   4.602   6.722  0.7613  1.4519 -0.8498
   19DOPE   O31 2352   6.632   4.561   6.539  0.0478 -0.6546 -0.1196
   19DOPE   C31 2353   6.747   4.517   6.485  0.3441 -0.3967 -0.4312
   19DOPE   O32 2354   6.854   4.508   6.545 -0.1365 -0.0135  0.2102
   19DOPE   C32 2355   6.735   4.491   6.335 -0.0039 -0.1547 -1.0493
   19DOPE   H2X 2356   6.744   4.385   6.303  0.7470 -0.6389  0.6516
   19DOPE   H2Y 2357   6.634   4.533   6.313  0.1317  0.1782 -1.0472
   19DOPE   C23 2358   6.718   4.090   6.376  0.0605  0.1403 -0.4038
   19DOPE   H3R 2359   6.674   4.174   6.319  1.0060 -1.3492 -3.5977
   19DOPE   H3S 2360   6.647   4.005   6.365 -0.4836  0.5531 -0.1084
   19DOPE   C24 2361   6.843   4.048   6.303 -0.3296 -0.0364 -0.1916
   19DOPE   H4R 2362   6.902   3.964   6.345  1.1565  0.8182 -0.4959
   19DOPE   H4S 2363   6.918   4.130   6.301  1.3605 -1.5319 -0.5579
   19DOPE   C25 2364   6.807   4.008   6.157  0.0340 -0.6678 -0.2444
   19DOPE   H5R 2365   6.763   4.091   6.098 -0.8305 -1.2418 -0.4282
   19DOPE   H5S 2366   6.729   3.929   6.152  1.0391 -1.7285  0.2466
   19DOPE   C26 2367   6.939   3.971   6.078  0.6558 -0.1770 -0.0350
   19DOPE   H6R 2368   6.975   3.878   6.128 -0.9826 -0.2478  1.0991
   19DOPE   H6S 2369   7.014   4.051   6.098  0.9520 -0.4039 -0.2299
   19DOPE   C27 2370   6.920   3.963   5.926 -0.0880 -0.1993  0.2520
   19DOPE   H7R 2371   6.882   4.061   5.891 -0.6060  0.0490  1.4533
   19DOPE   H7S 2372   6.838   3.902   5.881 -0.8496  1.5733 -0.8573
   19DOPE   C28 2373   7.043   3.949   5.843  0.0243 -0.0249  0.1387
   19DOPE   H8R 2374   7.102   4.042   5.858  1.3889 -1.0018  0.9973
   19DOPE   H8S 2375   7.008   3.951   5.737 -0.9613 -0.2639  0.4476
   19DOPE   C29 2376   7.115   3.823   5.878  0.4619 -0.3278 -0.5508
   19DOPE   H9R 2377   7.175   3.836   5.970  1.1584 -1.9413 -0.7470
   19DOPE  C210 2378   7.101   3.703   5.820  0.7218  0.0189  0.0264
   19DOPE  H10R 2379   7.160   3.618   5.857 -1.2424 -0.7743  1.5692
   19DOPE  C211 2380   7.009   3.662   5.708  0.0367 -0.5915 -0.0367
   19DOPE  H11R 2381   6.907   3.706   5.709  0.0154 -0.5840  1.6883
   19DOPE  H11S 2382   6.991   3.553   5.725  1.5072 -0.4449  3.3478
   19DOPE  C212 2383   7.076   3.656   5.566  0.2274 -0.2179 -0.0843
   19DOPE  H12R 2384   7.003   3.630   5.487  1.4897 -0.3987 -1.2370
   19DOPE  H12S 2385   7.158   3.582   5.565  0.7955  0.3609  1.1435
   19DOPE  C213 2386   7.137   3.792   5.523  0.3868  0.1607  0.5058
   19DOPE  H13R 2387   7.225   3.807   5.590 -1.7538  0.6624  3.4346
   19DOPE  H13S 2388   7.065   3.873   5.548  0.7844  0.7581 -0.2594
   19DOPE  C214 2389   7.152   3.794   5.365 -0.0008 -0.0304 -0.1017
   19DOPE  H14R 2390   7.053   3.805   5.316 -0.8232  3.3559  1.9975
   19DOPE  H14S 2391   7.202   3.700   5.334 -0.7399 -1.1986  2.0250
   19DOPE  C215 2392   7.235   3.909   5.322  0.3883  0.3789 -0.0371
   19DOPE  H15R 2393   7.342   3.897   5.347  0.1771 -1.2840  0.1686
   19DOPE  H15S 2394   7.200   4.008   5.359  1.5686  1.1090 -0.8044
   19DOPE  C216 2395   7.235   3.909   5.166 -0.4069 -0.0915 -0.3680
   19DOPE  H16R 2396   7.137   3.950   5.135 -0.9920 -0.6979  0.6017
   19DOPE  H16S 2397   7.247   3.804   5.131  0.7932  0.0250 -0.3384
   19DOPE  C217 2398   7.344   3.997   5.099 -0.2759 -0.2691 -0.8481
   19DOPE  H17R 2399   7.419   4.010   5.180  2.1299  1.6418 -3.2003
   19DOPE  H17S 2400   7.293   4.093   5.077 -0.7786 -0.3021  0.1140
   19DOPE  C218 2401   7.413   3.942   4.965 -0.1891 -0.1317 -0.2857
   19DOPE  H18R 2402   7.462   3.843   4.978  0.6693  0.6266  2.9764
   19DOPE  H18S 2403   7.493   4.014   4.940  0.0815 -0.7228 -1.1666
   19DOPE  H18T 2404   7.337   3.962   4.886  1.2819  2.2048 -1.1983
   19DOPE   C33 2405   6.852   4.573   6.273 -0.4176 -0.3827  0.3705
   19DOPE   H3X 2406   6.944   4.518   6.303 -0.8060  0.0766  2.6015
   19DOPE   H3Y 2407   6.855   4.676   6.313  0.2450 -1.0092  2.0353
   19DOPE   C34 2408   6.830   4.578   6.120 -0.2175  0.0698  0.0361
   19DOPE   H4X 2409   6.741   4.638   6.092  1.0200  1.8999 -0.1260
   19DOPE   H4Y 2410   6.919   4.624   6.070 -0.3403  0.0786 -0.1769
   19DOPE   C35 2411   6.815   4.442   6.048 -0.5451  0.5118 -0.3781
   19DOPE   H5X 2412   6.734   4.386   6.098 -0.3290 -0.5780 -1.2144
   19DOPE   H5Y 2413   6.903   4.376   6.066 -1.8673 -1.0581  0.5932
   19DOPE   C36 2414   6.796   4.428   5.894 -0.2996  0.4777  0.0791
   19DOPE   H6X 2415   6.791   4.322   5.858  1.4647  1.4173 -3.4748
   19DOPE   H6Y 2416   6.886   4.467   5.841 -1.8156  1.3380 -1.9939
   19DOPE   C37 2417   6.689   4.522   5.834 -0.5451 -0.2504  0.1188
   19DOPE   H7X 2418   6.588   4.494   5.869 -0.5525 -0.3972 -0.0163
   19DOPE   H7Y 2419   6.700   4.629   5.859  1.9188 -0.4418  0.1083
   19DOPE   C38 2420   6.687   4.526   5.677 -0.7299 -0.0036 -0.4033
   19DOPE   H8X 2421   6.795   4.523   5.648 -0.1448  0.0088  1.6497
   19DOPE   H8Y 2422   6.656   4.628   5.644  1.3138  0.9744  0.4560
   19DOPE   C39 2423   6.611   4.413   5.613  0.8648  0.1403 -0.4602
   19DOPE   H9X 2424   6.503   4.406   5.633  0.7295  2.6537  0.0323
   19DOPE  C310 2425   6.656   4.324   5.522 -0.0688 -0.1193 -0.4300
   19DOPE  H10X 2426   6.589   4.242   5.491 -1.1555  0.4907  0.2267
   19DOPE  C311 2427   6.792   4.314   5.465 -0.2504  0.4389 -0.0541
   19DOPE  H11X 2428   6.841   4.413   5.471 -0.1054  0.5057 -1.8279
   19DOPE  H11Y 2429   6.851   4.250   5.534  2.3343 -0.1952 -2.6599
   19DOPE  C312 2430   6.801   4.274   5.317 -0.0497  0.4539 -0.0857
   19DOPE  H12X 2431   6.769   4.360   5.255 -2.3863 -0.6035 -0.4292
   19DOPE  H12Y 2432   6.737   4.189   5.288  1.2288  0.4808 -3.4284
   19DOPE  C313 2433   6.948   4.239   5.267  0.6108  0.0143 -0.0164
   19DOPE  H13X 2434   7.016   4.321   5.298 -0.6124  0.3504  1.9825
   19DOPE  H13Y 2435   6.978   4.150   5.327  1.9399  1.4833  1.6117
   19DOPE  C314 2436   6.962   4.192   5.117 -0.0621 -0.7732  0.0926
   19DOPE  H14X 2437   7.070   4.174   5.096 -0.4865 -1.9840 -1.2121
   19DOPE  H14Y 2438   6.931   4.268   5.043  3.5733  0.7317 -0.1293
   19DOPE  C315 2439   6.895   4.059   5.077  0.2013  0.1330  0.1340
   19DOPE  H15X 2440   6.785   4.077   5.080  0.0176 -0.3214 -1.9012
   19DOPE  H15Y 2441   6.919   3.974   5.145 -1.0189 -0.8789 -0.6369
   19DOPE  C316 2442   6.944   4.012   4.937  0.5008 -0.2595 -0.6074
   19DOPE  H16X 2443   7.053   3.990   4.948  0.8836  1.4063 -0.7944
   19DOPE  H16Y 2444   6.933   4.099   4.869 -0.2401  1.1890  1.2812
   19DOPE  C317 2445   6.863   3.893   4.888 -0.8507 -0.2067  0.5574
   19DOPE  H17X 2446   6.756   3.919   4.903 -0.4505  0.5173  2.4641
   19DOPE  H17Y 2447   6.882   3.883   4.779 -1.0888  1.0964  0.3787
   19DOPE  C318 2448   6.904   3.754   4.953  0.3572 -0.2944  0.7193
   19DOPE  H18X 2449   6.864   3.761   5.056 -0.3629  0.4276  0.4042
   19DOPE  H18Y 2450   6.864   3.661   4.907  3.7241  0.3779 -4.3460
   19DOPE  H18Z 2451   7.015   3.746   4.957  0.2871 -1.6858  0.3625
   20DOPE     N 2452   4.025   7.113   6.894 -0.0892 -0.0951  0.0498
   20DOPE   HN1 2453   3.967   7.069   6.968 -0.5924 -1.8291 -1.2901
   20DOPE   HN2 2454   4.061   7.027   6.848 -0.6924 -0.0127 -0.6056
   20DOPE   HN3 2455   4.103   7.172   6.927  0.2475 -1.3254  1.5746
   20DOPE   C12 2456   3.956   7.196   6.792  1.0776 -0.7571 -0.0660
   20DOPE  H12A 2457   3.913   7.280   6.851 -0.3982 -1.2170 -0.4451
   20DOPE  H12B 2458   3.878   7.134   6.743 -0.6225  1.2386 -0.0293
   20DOPE   C11 2459   4.051   7.226   6.670 -0.2833 -0.2696 -0.7411
   20DOPE  H11A 2460   3.997   7.277   6.587 -0.0329 -0.1296 -0.8194
   20DOPE  H11B 2461   4.072   7.129   6.620  3.0898 -0.3523  0.5481
   20DOPE     P 2462   4.203   7.418   6.774  0.1378 -0.5282 -0.1669
   20DOPE   O13 2463   4.344   7.449   6.766 -0.3843  0.0700 -0.9477
   20DOPE   O14 2464   4.147   7.412   6.912 -0.3997 -0.8021  0.0757
   20DOPE   O11 2465   4.121   7.505   6.682  0.0155 -0.0931  0.7635
   20DOPE   O12 2466   4.182   7.278   6.705 -0.3272 -0.3818  0.0029
   20DOPE    C1 2467   4.169   7.618   6.620 -0.1167  0.1217  0.8294
   20DOPE    HA 2468   4.276   7.644   6.639 -0.7346  2.9996  0.8148
   20DOPE    HB 2469   4.107   7.707   6.647 -0.0801  1.3805 -2.6716
   20DOPE    C2 2470   4.166   7.620   6.465  0.2289 -0.5468  0.5439
   20DOPE    HS 2471   4.221   7.704   6.418 -0.2423 -0.9246 -0.7446
   20DOPE   O21 2472   4.031   7.619   6.418 -0.5533 -0.0614  0.6660
   20DOPE   C21 2473   3.967   7.739   6.416 -0.2723 -0.0017  0.0185
   20DOPE   O22 2474   4.013   7.843   6.461  0.2625  0.0886 -0.3742
   20DOPE   C22 2475   3.832   7.719   6.356 -0.6556  0.0152  0.0223
   20DOPE   H2R 2476   3.763   7.732   6.442 -0.4881  2.7135 -0.1618
   20DOPE   H2S 2477   3.807   7.625   6.303 -0.7380  1.0879 -1.9385
   20DOPE    C3 2478   4.240   7.490   6.419 -0.2416  0.1043  0.1874
   20DOPE    HX 2479   4.166   7.411   6.446 -1.1368  1.6439  2.4795
   20DOPE    HY 2480   4.335   7.483   6.476  0.4031  1.3859 -0.6827
   20DOPE   O31 2481   4.256   7.493   6.278  0.4931  0.6209  0.5472
   20DOPE   C31 2482   4.375   7.554   6.235 -0.0263 -0.0017  0.4080
   20DOPE   O32 2483   4.465   7.583   6.307 -0.2881 -0.4131 -0.3865
   20DOPE   C32 2484   4.372   7.574   6.082 -0.7171  0.3177  0.1586
   20DOPE   H2X 2485   4.312   7.657   6.039 -2.4530 -2.0244 -2.3044
   20DOPE   H2Y 2486   4.475   7.593   6.045 -1.2220  0.3038 -1.3289
   20DOPE   C23 2487   3.802   7.834   6.249  0.7375  0.5446 -0.1135
   20DOPE   H3R 2488   3.809   7.935   6.294  0.8161 -0.2731  1.8136
   20DOPE   H3S 2489   3.693   7.816   6.230  0.5318 -0.5429  1.8602
   20DOPE   C24 2490   3.885   7.811   6.124 -0.1326 -0.0163 -0.2384
   20DOPE   H4R 2491   3.993   7.830   6.143 -0.6673  3.4179  0.1377
   20DOPE   H4S 2492   3.839   7.889   6.059  0.2373  0.2732 -0.1587
   20DOPE   C25 2493   3.890   7.674   6.058  0.0866 -0.5748  0.2345
   20DOPE   H5R 2494   3.790   7.634   6.029 -0.0547 -1.7298  2.1600
   20DOPE   H5S 2495   3.931   7.601   6.131  1.4242  0.5803  0.6743
   20DOPE   C26 2496   3.993   7.658   5.953 -0.5296 -0.2007  0.6887
   20DOPE   H6R 2497   4.005   7.549   5.935  0.1659 -0.1355  0.7167
   20DOPE   H6S 2498   4.091   7.682   5.999  2.0279 -0.7034 -3.8898
   20DOPE   C27 2499   3.986   7.735   5.820  0.4830 -0.6852  0.0256
   20DOPE   H7R 2500   4.071   7.697   5.759  0.1888 -3.2887  1.1284
   20DOPE   H7S 2501   3.984   7.843   5.847 -3.0991 -0.4482 -0.7156
   20DOPE   C28 2502   3.855   7.724   5.738 -0.3840 -0.0164 -0.2812
   20DOPE   H8R 2503   3.783   7.777   5.804  1.0647  0.3353  1.0684
   20DOPE   H8S 2504   3.824   7.618   5.725 -3.8444  1.0030 -1.4619
   20DOPE   C29 2505   3.871   7.798   5.604 -0.0820 -0.2023 -0.4300
   20DOPE   H9R 2506   3.908   7.901   5.594 -1.7709  0.2611 -2.4950
   20DOPE  C210 2507   3.838   7.748   5.487 -0.5287 -0.6026  0.2496
   20DOPE  H10R 2508   3.856   7.815   5.402  0.3045  0.1018  0.9574
   20DOPE  C211 2509   3.783   7.614   5.456 -0.1681  0.0356 -0.0162
   20DOPE  H11R 2510   3.675   7.623   5.434 -0.3693  0.1333  0.9739
   20DOPE  H11S 2511   3.792   7.548   5.545 -0.3098  0.2253  0.1399
   20DOPE  C212 2512   3.861   7.541   5.343  0.2378 -0.0220  0.4861
   20DOPE  H12R 2513   3.816   7.440   5.336  1.2301 -0.3778 -1.6655
   20DOPE  H12S 2514   3.970   7.534   5.362  1.1083  0.3940 -3.4984
   20DOPE  C213 2515   3.846   7.609   5.202 -0.7047  0.2142 -0.7767
   20DOPE  H13R 2516   3.874   7.716   5.194  1.5620 -0.3667 -1.3421
   20DOPE  H13S 2517   3.737   7.601   5.181 -0.9243 -1.9658  0.8515
   20DOPE  C214 2518   3.926   7.548   5.087  0.7345 -0.1917 -0.0216
   20DOPE  H14R 2519   3.894   7.443   5.074  1.0369 -0.4906  1.5529
   20DOPE  H14S 2520   4.033   7.532   5.112  0.9132  2.4333  1.1981
   20DOPE  C215 2521   3.892   7.604   4.955 -0.2809  1.1185  0.5537
   20DOPE  H15R 2522   3.966   7.567   4.881 -0.2827 -1.4004  1.7297
   20DOPE  H15S 2523   3.921   7.710   4.971  0.9997  0.9076 -0.2187
   20DOPE  C216 2524   3.747   7.610   4.906 -0.3671 -0.3110 -0.0396
   20DOPE  H16R 2525   3.684   7.653   4.986 -2.3456 -0.3981 -1.4661
   20DOPE  H16S 2526   3.714   7.508   4.875  4.0944 -2.0084  0.1627
   20DOPE  C217 2527   3.732   7.697   4.776  0.5325  0.1012 -0.3237
   20DOPE  H17R 2528   3.791   7.639   4.702  1.4557 -0.4597  0.8129
   20DOPE  H17S 2529   3.792   7.788   4.796  0.4147  0.0001  0.5519
   20DOPE  C218 2530   3.595   7.722   4.721 -0.0225 -0.4261 -0.0212
   20DOPE  H18R 2531   3.542   7.637   4.674 -0.7545 -0.9399  1.6276
   20DOPE  H18S 2532   3.597   7.807   4.650 -0.9169  0.2007  0.6747
   20DOPE  H18T 2533   3.533   7.746   4.810 -3.4821 -0.4056 -2.2712
   20DOPE   C33 2534   4.309   7.452   6.011 -0.0456 -0.5978 -0.5188
   20DOPE   H3X 2535   4.208   7.425   6.048 -0.0565 -0.6227 -0.5668
   20DOPE   H3Y 2536   4.386   7.379   6.043  0.3643  0.0163 -0.0694
   20DOPE   C34 2537   4.300   7.464   5.862  0.1683  1.1069  0.7196
   20DOPE   H4X 2538   4.243   7.552   5.826  0.0884  0.9965  0.5753
   20DOPE   H4Y 2539   4.395   7.486   5.810 -0.7043 -0.6371 -1.8274
   20DOPE   C35 2540   4.251   7.332   5.793  0.1640  0.1896 -0.3594
   20DOPE   H5X 2541   4.149   7.315   5.832  0.9374  0.4584  1.9078
   20DOPE   H5Y 2542   4.311   7.242   5.820 -0.5407  0.0937  0.9314
   20DOPE   C36 2543   4.245   7.343   5.640  0.2265  0.1907 -0.0813
   20DOPE   H6X 2544   4.182   7.426   5.602  1.1928 -0.1452 -2.6496
   20DOPE   H6Y 2545   4.191   7.251   5.607  0.2444  0.8985 -2.2310
   20DOPE   C37 2546   4.379   7.346   5.566  0.0766  0.1989  0.3914
   20DOPE   H7X 2547   4.424   7.447   5.583 -0.8646  1.7889 -4.7564
   20DOPE   H7Y 2548   4.444   7.257   5.578  0.4437  0.2471 -1.1079
   20DOPE   C38 2549   4.342   7.334   5.411 -0.0335 -0.0167 -0.0230
   20DOPE   H8X 2550   4.259   7.407   5.401  0.8606  0.7970 -1.6566
   20DOPE   H8Y 2551   4.301   7.235   5.380 -0.5390  0.1773  0.0186
   20DOPE   C39 2552   4.458   7.388   5.322  0.2923 -0.6498  0.0735
   20DOPE   H9X 2553   4.504   7.477   5.368  0.2572 -1.6779  2.2345
   20DOPE  C310 2554   4.484   7.354   5.201  0.1684  0.0007 -0.3490
   20DOPE  H10X 2555   4.578   7.397   5.162  1.5423 -2.1509  0.4137
   20DOPE  C311 2556   4.412   7.245   5.123 -0.5624  0.1127 -0.3771
   20DOPE  H11X 2557   4.485   7.166   5.095  2.2173  1.4705  2.4778
   20DOPE  H11Y 2558   4.337   7.196   5.189  0.4641 -0.8783  0.0807
   20DOPE  C312 2559   4.344   7.310   5.006 -0.5240  0.3046 -0.1253
   20DOPE  H12X 2560   4.421   7.361   4.944 -0.3465 -1.2048 -1.2106
   20DOPE  H12Y 2561   4.268   7.386   5.033 -0.3680 -0.2309  2.0115
   20DOPE  C313 2562   4.274   7.205   4.914  0.3475 -0.8510  0.3763
   20DOPE  H13X 2563   4.341   7.117   4.899 -0.3841 -1.6236  1.5019
   20DOPE  H13Y 2564   4.183   7.172   4.967 -0.0179 -1.1017 -0.3971
   20DOPE  C314 2565   4.220   7.269   4.784 -0.1999  0.9200 -0.7156
   20DOPE  H14X 2566   4.316   7.279   4.730  1.1134  0.0542  1.3179
   20DOPE  H14Y 2567   4.167   7.363   4.810  0.2318  0.8190  0.6218
   20DOPE  C315 2568   4.133   7.177   4.698  0.2285  0.9399 -0.1828
   20DOPE  H15X 2569   4.042   7.148   4.756 -0.2894  3.2124  0.2571
   20DOPE  H15Y 2570   4.183   7.081   4.675 -2.3816 -0.5768  0.0248
   20DOPE  C316 2571   4.092   7.245   4.566 -0.2021  0.3615 -0.0115
   20DOPE  H16X 2572   4.187   7.276   4.517  0.4814 -1.1215  0.3034
   20DOPE  H16Y 2573   4.030   7.332   4.596 -1.0015 -0.2481  0.1204
   20DOPE  C317 2574   4.000   7.167   4.480  1.0403  0.0860 -0.1083
   20DOPE  H17X 2575   4.034   7.062   4.472 -1.0893 -0.5817 -1.0001
   20DOPE  H17Y 2576   3.901   7.158   4.529  2.0043  1.5886  2.3172
   20DOPE  C318 2577   3.986   7.218   4.338 -0.0869  0.6788  0.9259
   20DOPE  H18X 2578   4.074   7.191   4.276 -0.2378  0.9678  0.5816
   20DOPE  H18Y 2579   3.893   7.182   4.289 -0.0582 -0.0991  1.4233
   20DOPE  H18Z 2580   3.956   7.325   4.326 -2.8455 -0.0965  0.1148
   21DOPE     N 2581   2.346   6.180   7.305 -0.2284  0.3534  0.1604
   21DOPE   HN1 2582   2.426   6.237   7.272  0.5622 -0.2868  0.9278
   21DOPE   HN2 2583   2.272   6.249   7.328 -0.0943  1.1099 -1.5768
   21DOPE   HN3 2584   2.385   6.141   7.393  0.1886 -0.6138 -0.4324
   21DOPE   C12 2585   2.306   6.063   7.223 -0.4213  0.3867 -0.5310
   21DOPE  H12A 2586   2.317   6.092   7.117  1.4225 -0.7197 -0.6778
   21DOPE  H12B 2587   2.200   6.043   7.250  0.4413 -0.3068  2.8003
   21DOPE   C11 2588   2.402   5.947   7.233 -0.2908  0.1199  0.7391
   21DOPE  H11A 2589   2.398   5.887   7.139 -0.8449 -0.0601  0.8733
   21DOPE  H11B 2590   2.363   5.888   7.319  0.9502  0.9326  1.8940
   21DOPE     P 2591   2.650   6.005   7.158 -0.1325  0.1929 -0.2585
   21DOPE   O13 2592   2.770   5.927   7.200  0.8043  0.4074 -0.5593
   21DOPE   O14 2593   2.669   6.152   7.147  0.0854  0.0853  0.6790
   21DOPE   O11 2594   2.594   5.952   7.020 -0.6050  0.0411  0.1493
   21DOPE   O12 2595   2.539   5.986   7.265  0.1266 -0.2501  0.6607
   21DOPE    C1 2596   2.593   6.037   6.903  0.5184  0.4612  0.3031
   21DOPE    HA 2597   2.694   6.068   6.868  1.2058 -0.1361  1.7122
   21DOPE    HB 2598   2.545   6.136   6.921  1.7054  0.7979  1.7483
   21DOPE    C2 2599   2.509   5.962   6.795  0.0017 -0.2137  0.5732
   21DOPE    HS 2600   2.401   5.948   6.819  0.1303  1.2074  2.1572
   21DOPE   O21 2601   2.571   5.835   6.768  0.0492 -0.2706  0.0108
   21DOPE   C21 2602   2.542   5.739   6.848 -0.2129 -0.1005 -0.1229
   21DOPE   O22 2603   2.433   5.729   6.911 -0.5127 -0.1439  1.0273
   21DOPE   C22 2604   2.654   5.635   6.850 -0.7910  0.2630  0.1543
   21DOPE   H2R 2605   2.746   5.683   6.890 -0.1885  0.7540 -1.7252
   21DOPE   H2S 2606   2.678   5.607   6.746  1.5541  0.9941  0.4354
   21DOPE    C3 2607   2.510   6.053   6.666  0.8737 -0.3889 -0.3753
   21DOPE    HX 2608   2.613   6.054   6.624  0.4321  0.4955 -1.4937
   21DOPE    HY 2609   2.500   6.157   6.701 -0.6415 -1.8265  4.0963
   21DOPE   O31 2610   2.411   6.010   6.568  0.0263 -0.3487 -0.0688
   21DOPE   C31 2611   2.287   6.067   6.561  0.3523  0.4827 -0.4726
   21DOPE   O32 2612   2.222   6.105   6.658 -0.0206 -0.2316  0.0852
   21DOPE   C32 2613   2.233   6.070   6.417 -0.6074  0.0743  0.0424
   21DOPE   H2X 2614   2.241   6.169   6.368  0.6606  0.9835  1.9717
   21DOPE   H2Y 2615   2.292   6.008   6.346 -1.0573 -1.4906  0.9763
   21DOPE   C23 2616   2.631   5.500   6.927  0.0730  0.4490 -0.7592
   21DOPE   H3R 2617   2.598   5.528   7.030 -0.0962  1.2969 -1.0360
   21DOPE   H3S 2618   2.731   5.456   6.949 -1.5027 -4.0681 -1.6177
   21DOPE   C24 2619   2.552   5.394   6.857 -0.2411  0.0312  0.5487
   21DOPE   H4R 2620   2.579   5.303   6.915  1.6247 -1.0999 -1.9067
   21DOPE   H4S 2621   2.596   5.378   6.756  0.2208 -0.3167  0.8034
   21DOPE   C25 2622   2.396   5.413   6.859 -0.2004 -0.8294 -1.0659
   21DOPE   H5R 2623   2.374   5.499   6.792 -0.3339 -0.9196 -1.1382
   21DOPE   H5S 2624   2.367   5.437   6.964  0.7727  1.7756 -1.3273
   21DOPE   C26 2625   2.316   5.297   6.802 -0.3262  0.5500  0.1929
   21DOPE   H6R 2626   2.211   5.334   6.799 -0.0606  1.6136  2.2837
   21DOPE   H6S 2627   2.306   5.218   6.879  0.6281 -1.3627 -1.5395
   21DOPE   C27 2628   2.368   5.233   6.675 -0.1879  0.4843 -0.4978
   21DOPE   H7R 2629   2.463   5.179   6.697 -0.4454 -0.1741 -0.9489
   21DOPE   H7S 2630   2.394   5.313   6.603 -1.1610  0.6768 -0.6426
   21DOPE   C28 2631   2.279   5.119   6.623 -0.2813  0.2298  0.5261
   21DOPE   H8R 2632   2.279   5.031   6.691  1.4555 -1.0466 -1.0004
   21DOPE   H8S 2633   2.322   5.080   6.528  0.1578 -1.7740  1.5050
   21DOPE   C29 2634   2.135   5.158   6.613 -0.0420  0.3785  0.4228
   21DOPE   H9R 2635   2.092   5.176   6.712  1.1545  1.1486  0.8241
   21DOPE  C210 2636   2.057   5.189   6.505  0.4036  0.7469  0.1616
   21DOPE  H10R 2637   1.950   5.208   6.521  0.0597 -0.2771 -0.8228
   21DOPE  C211 2638   2.105   5.184   6.361  0.4867 -0.2782 -0.2384
   21DOPE  H11R 2639   2.209   5.223   6.356  0.2754  0.6400  1.6393
   21DOPE  H11S 2640   2.026   5.239   6.305 -1.2707 -2.0506  0.3883
   21DOPE  C212 2641   2.114   5.042   6.316  0.1999 -0.4737 -0.0481
   21DOPE  H12R 2642   2.022   4.985   6.343  0.7478 -0.5674  1.8137
   21DOPE  H12S 2643   2.193   4.986   6.371 -1.1642 -3.2211 -0.6693
   21DOPE  C213 2644   2.138   5.022   6.165  0.5877  0.7864  0.9063
   21DOPE  H13R 2645   2.073   5.085   6.100  0.6976  0.7588  0.7697
   21DOPE  H13S 2646   2.119   4.916   6.137  2.6440  0.7536 -0.6171
   21DOPE  C214 2647   2.294   5.022   6.132  0.1620  0.3739 -0.1675
   21DOPE  H14R 2648   2.347   4.964   6.211 -0.4310 -0.2273 -0.2079
   21DOPE  H14S 2649   2.333   5.126   6.125 -1.1979  0.9044 -0.1598
   21DOPE  C215 2650   2.324   4.951   5.997 -0.1378 -0.1556 -0.0115
   21DOPE  H15R 2651   2.288   4.846   5.998  1.9358 -0.9434 -1.2678
   21DOPE  H15S 2652   2.433   4.937   5.984 -0.0870  1.1579 -1.3179
   21DOPE  C216 2653   2.273   5.030   5.874 -0.1120  0.6395 -0.2304
   21DOPE  H16R 2654   2.347   5.107   5.842  0.2580 -0.6633 -2.7517
   21DOPE  H16S 2655   2.177   5.080   5.899  0.0196  0.2931  1.0543
   21DOPE  C217 2656   2.240   4.945   5.751  0.3558 -0.3707  0.2204
   21DOPE  H17R 2657   2.179   4.857   5.782 -0.1517 -0.1441 -0.1324
   21DOPE  H17S 2658   2.340   4.917   5.710 -0.0086  0.1920 -1.1131
   21DOPE  C218 2659   2.168   5.017   5.639 -0.0075 -0.0212  0.5689
   21DOPE  H18R 2660   2.227   5.106   5.608 -2.2721  0.7639 -1.7989
   21DOPE  H18S 2661   2.066   5.048   5.668 -0.8467 -2.9101  1.0743
   21DOPE  H18T 2662   2.163   4.942   5.557  0.2984 -1.0554  1.4569
   21DOPE   C33 2663   2.083   6.019   6.413  0.1477 -0.8313  0.4287
   21DOPE   H3X 2664   2.025   6.089   6.477 -0.4036 -1.6818  0.8837
   21DOPE   H3Y 2665   2.058   5.916   6.447 -1.2749 -0.5387  0.3545
   21DOPE   C34 2666   2.032   6.029   6.263 -0.0861 -0.0095 -0.4364
   21DOPE   H4X 2667   1.922   6.019   6.264 -0.0165 -0.9957  0.9331
   21DOPE   H4Y 2668   2.066   6.130   6.231 -1.4216  0.9022  0.8891
   21DOPE   C35 2669   2.090   5.927   6.169 -0.1782  1.1453  0.6023
   21DOPE   H5X 2670   2.087   5.829   6.221  2.7383 -0.5761 -2.1015
   21DOPE   H5Y 2671   2.198   5.936   6.144 -0.2482  1.0901  0.2765
   21DOPE   C36 2672   2.006   5.900   6.037  0.8587 -0.6596 -0.0118
   21DOPE   H6X 2673   1.903   5.880   6.074 -0.5354  2.9427 -1.4200
   21DOPE   H6Y 2674   2.056   5.812   5.992  0.6846 -1.3410  1.1037
   21DOPE   C37 2675   1.995   6.023   5.940  0.3289  0.1661 -0.7565
   21DOPE   H7X 2676   1.962   6.108   6.004 -0.3780 -0.1149 -0.7396
   21DOPE   H7Y 2677   2.092   6.056   5.898  1.9348 -0.5461  2.1219
   21DOPE   C38 2678   1.899   5.993   5.824  0.1202  0.1992  0.6005
   21DOPE   H8X 2679   1.850   6.091   5.806  0.2018 -0.1280 -1.6281
   21DOPE   H8Y 2680   1.817   5.924   5.855 -0.0813  0.0669 -0.2029
   21DOPE   C39 2681   1.965   5.939   5.698  0.1222  0.0903  0.2624
   21DOPE   H9X 2682   2.042   5.861   5.709  0.5305  0.6576  1.8027
   21DOPE  C310 2683   1.936   5.980   5.570 -0.2222  0.5289  0.1737
   21DOPE  H10X 2684   1.984   5.928   5.486  0.0992  2.7343 -1.0811
   21DOPE  C311 2685   1.828   6.083   5.533 -0.7806  0.2937  0.5285
   21DOPE  H11X 2686   1.753   6.036   5.466  1.3069 -1.4780 -0.7061
   21DOPE  H11Y 2687   1.761   6.105   5.618  0.2647  1.7020  1.0377
   21DOPE  C312 2688   1.881   6.219   5.479 -0.0477  0.1645 -0.3401
   21DOPE  H12X 2689   1.964   6.203   5.406  0.0316 -0.5533 -0.0954
   21DOPE  H12Y 2690   1.926   6.262   5.571 -2.6038  0.4087  0.8560
   21DOPE  C313 2691   1.781   6.319   5.429  0.0338 -0.0895 -0.2730
   21DOPE  H13X 2692   1.698   6.347   5.497  0.1646 -0.3791  0.0114
   21DOPE  H13Y 2693   1.836   6.414   5.413 -0.5061 -0.1097 -2.4932
   21DOPE  C314 2694   1.733   6.277   5.289  0.3085 -0.3138  0.7802
   21DOPE  H14X 2695   1.709   6.169   5.297  4.1719 -1.3886 -0.0817
   21DOPE  H14Y 2696   1.819   6.281   5.219 -0.9944  1.5830 -0.8352
   21DOPE  C315 2697   1.607   6.350   5.242  0.3546  0.0434 -1.1218
   21DOPE  H15X 2698   1.625   6.459   5.251 -1.2098  0.1776  2.4521
   21DOPE  H15Y 2699   1.530   6.329   5.320  0.4187  1.2745 -0.7152
   21DOPE  C316 2700   1.552   6.322   5.102 -0.3603 -0.1935  0.3174
   21DOPE  H16X 2701   1.625   6.336   5.019 -1.6058  0.9336 -0.6262
   21DOPE  H16Y 2702   1.473   6.397   5.084  1.4960  2.1962  1.5143
   21DOPE  C317 2703   1.498   6.174   5.075  0.3223  0.2324 -0.4323
   21DOPE  H17X 2704   1.577   6.099   5.096  0.9567  1.4059  1.6728
   21DOPE  H17Y 2705   1.410   6.156   5.140 -1.5509  0.7303 -2.6964
   21DOPE  C318 2706   1.460   6.156   4.928 -0.2732  0.8390 -0.7735
   21DOPE  H18X 2707   1.550   6.171   4.865 -1.8367 -0.4988 -3.5198
   21DOPE  H18Y 2708   1.420   6.053   4.920  2.1166 -0.7655  4.2165
   21DOPE  H18Z 2709   1.383   6.229   4.895 -2.6660 -0.9103  0.6494
   22DOPE     N 2710   7.173   5.377   7.051 -0.2566 -0.1299 -0.1331
   22DOPE   HN1 2711   7.197   5.399   6.952  0.8623  2.8595  0.6910
   22DOPE   HN2 2712   7.125   5.286   7.064  0.0347 -0.2369  0.1957
   22DOPE   HN3 2713   7.116   5.450   7.096 -0.9008 -0.9199  0.3464
   22DOPE   C12 2714   7.305   5.372   7.130  0.2911 -0.3997 -0.2429
   22DOPE  H12A 2715   7.274   5.342   7.232 -1.4979 -1.8399 -1.1285
   22DOPE  H12B 2716   7.340   5.477   7.136 -0.4844 -0.2075  1.5984
   22DOPE   C11 2717   7.409   5.286   7.068 -0.0550  0.7603 -0.4065
   22DOPE  H11A 2718   7.494   5.291   7.139  0.1089  1.0540 -0.6209
   22DOPE  H11B 2719   7.450   5.324   6.972  1.4297 -0.4219 -0.2861
   22DOPE     P 2720   7.459   5.029   7.064 -0.0083 -0.0710  0.0083
   22DOPE   O13 2721   7.385   4.902   7.035 -0.3302  0.5922  0.3544
   22DOPE   O14 2722   7.535   5.033   7.189 -0.7257  0.2803  0.0466
   22DOPE   O11 2723   7.563   5.055   6.946 -0.2232 -0.0657 -0.2110
   22DOPE   O12 2724   7.362   5.155   7.047  0.1903  0.4165 -0.3061
   22DOPE    C1 2725   7.515   5.115   6.822 -0.3108  0.2035 -0.6648
   22DOPE    HA 2726   7.586   5.196   6.795  0.2349 -0.1625 -0.3475
   22DOPE    HB 2727   7.413   5.159   6.831 -1.7273 -2.6851 -1.4716
   22DOPE    C2 2728   7.505   5.017   6.703  0.0392 -0.3234 -0.0458
   22DOPE    HS 2729   7.467   4.920   6.740 -0.8775  0.2858  0.6474
   22DOPE   O21 2730   7.638   4.992   6.653 -0.1247 -0.1587  0.1396
   22DOPE   C21 2731   7.638   4.885   6.572  0.0337  0.2324 -0.8434
   22DOPE   O22 2732   7.538   4.820   6.546  0.3119  0.1168 -0.2068
   22DOPE   C22 2733   7.775   4.837   6.539  0.3231 -0.0227  0.3562
   22DOPE   H2R 2734   7.831   4.827   6.635 -1.7176 -0.2757  1.5856
   22DOPE   H2S 2735   7.811   4.917   6.472 -1.2280 -0.0699 -0.5774
   22DOPE    C3 2736   7.407   5.076   6.593  0.3308  0.4656 -0.4053
   22DOPE    HX 2737   7.316   5.107   6.650  0.5725 -0.3386  0.4480
   22DOPE    HY 2738   7.383   4.995   6.522  1.9739 -0.4963  0.0849
   22DOPE   O31 2739   7.475   5.166   6.510  0.2315  0.1158  0.0610
   22DOPE   C31 2740   7.451   5.296   6.539  0.0856 -0.0569  1.5506
   22DOPE   O32 2741   7.372   5.339   6.617  0.3263 -0.2945 -0.8757
   22DOPE   C32 2742   7.525   5.386   6.440  0.0639 -0.2660  0.5190
   22DOPE   H2X 2743   7.632   5.409   6.460  1.4199 -3.7303 -1.7701
   22DOPE   H2Y 2744   7.531   5.340   6.339 -0.5292 -0.5807  0.6243
   22DOPE   C23 2745   7.780   4.697   6.471 -0.2269 -0.0978  0.3614
   22DOPE   H3R 2746   7.692   4.635   6.496 -1.4183  0.8493 -1.2632
   22DOPE   H3S 2747   7.869   4.641   6.508 -1.2573 -2.6283 -0.7895
   22DOPE   C24 2748   7.793   4.709   6.314  0.7088  0.5686  0.0615
   22DOPE   H4R 2749   7.787   4.604   6.278 -2.5647  1.0000 -1.0270
   22DOPE   H4S 2750   7.886   4.756   6.277 -0.0806  1.6257 -0.6419
   22DOPE   C25 2751   7.667   4.772   6.241  0.0553 -0.4463  0.4974
   22DOPE   H5R 2752   7.669   4.873   6.287  0.6668 -0.5920  0.8043
   22DOPE   H5S 2753   7.576   4.726   6.284  0.9035 -1.2007  1.5324
   22DOPE   C26 2754   7.672   4.761   6.091 -0.0962 -0.7164  0.3488
   22DOPE   H6R 2755   7.759   4.826   6.066  0.6858 -1.7889  0.2234
   22DOPE   H6S 2756   7.580   4.801   6.043 -1.1616 -0.2855  2.6377
   22DOPE   C27 2757   7.698   4.623   6.029 -0.1098 -0.4610 -0.5309
   22DOPE   H7R 2758   7.621   4.549   6.060  1.0035 -0.8329  1.4943
   22DOPE   H7S 2759   7.794   4.585   6.071 -0.4985 -0.0291  0.7889
   22DOPE   C28 2760   7.692   4.639   5.875 -0.2126  0.1304 -0.0911
   22DOPE   H8R 2761   7.779   4.706   5.860  0.1001 -0.2657 -0.0294
   22DOPE   H8S 2762   7.600   4.690   5.839 -1.4015 -2.2197 -0.6039
   22DOPE   C29 2763   7.721   4.509   5.804 -0.4523 -0.5061 -0.4624
   22DOPE   H9R 2764   7.694   4.420   5.863  2.4768 -0.3822  1.2449
   22DOPE  C210 2765   7.769   4.496   5.680 -0.6020 -0.1391  0.2358
   22DOPE  H10R 2766   7.809   4.398   5.652  1.3647  0.3399  1.2175
   22DOPE  C211 2767   7.803   4.608   5.586 -0.2212  0.2568 -0.8051
   22DOPE  H11R 2768   7.914   4.613   5.579 -0.2261 -0.3229 -1.3659
   22DOPE  H11S 2769   7.778   4.712   5.618  2.8586  1.1649 -1.0305
   22DOPE  C212 2770   7.759   4.575   5.441 -0.4338  0.0044  0.1371
   22DOPE  H12R 2771   7.649   4.590   5.442 -0.2477  1.4969  0.8034
   22DOPE  H12S 2772   7.777   4.466   5.426 -1.1743 -0.2461  0.9682
   22DOPE  C213 2773   7.826   4.674   5.337  0.7904 -0.1246 -0.5021
   22DOPE  H13R 2774   7.912   4.640   5.274 -0.3376  0.1682 -2.2897
   22DOPE  H13S 2775   7.855   4.766   5.391  0.4731  1.7248 -3.2391
   22DOPE  C214 2776   7.725   4.714   5.228 -0.6927  0.5776 -0.6034
   22DOPE  H14R 2777   7.620   4.710   5.263 -1.2918 -1.3287 -2.4133
   22DOPE  H14S 2778   7.733   4.639   5.147  1.7192 -1.1764  1.0966
   22DOPE  C215 2779   7.748   4.847   5.165  0.0136 -0.2190  0.6998
   22DOPE  H15R 2780   7.852   4.878   5.139 -0.2576 -1.5031 -2.2481
   22DOPE  H15S 2781   7.704   4.927   5.228  0.2644  0.3435  0.1660
   22DOPE  C216 2782   7.680   4.854   5.026 -0.0766  0.6283  0.3587
   22DOPE  H16R 2783   7.570   4.842   5.035 -0.1495 -0.9226 -1.9197
   22DOPE  H16S 2784   7.721   4.773   4.961  0.1453  0.1435  1.0885
   22DOPE  C217 2785   7.713   4.986   4.950  0.1342 -0.3013  0.1476
   22DOPE  H17R 2786   7.823   4.990   4.934 -0.0229 -1.5288 -1.4931
   22DOPE  H17S 2787   7.675   5.068   5.015 -0.2784  0.5710 -1.1549
   22DOPE  C218 2788   7.632   5.012   4.820 -0.1377  0.2016  0.4042
   22DOPE  H18R 2789   7.523   5.033   4.831 -0.3681 -0.4081 -0.6129
   22DOPE  H18S 2790   7.647   4.927   4.751 -0.5714  0.6932 -0.3093
   22DOPE  H18T 2791   7.672   5.095   4.758  0.6917 -0.9655 -0.6426
   22DOPE   C33 2792   7.460   5.532   6.427 -0.1938  0.8118  0.1492
   22DOPE   H3X 2793   7.450   5.573   6.529 -0.9900 -0.8680  0.7933
   22DOPE   H3Y 2794   7.359   5.522   6.381 -0.2396 -1.2052  0.5723
   22DOPE   C34 2795   7.548   5.639   6.352 -0.3273  0.4916  0.3080
   22DOPE   H4X 2796   7.513   5.739   6.385  1.6966  0.8393  1.5937
   22DOPE   H4Y 2797   7.651   5.632   6.394  0.0841 -0.0786 -0.7571
   22DOPE   C35 2798   7.536   5.624   6.200 -0.4139 -0.8768  0.4454
   22DOPE   H5X 2799   7.588   5.530   6.172  1.9710  0.6464 -0.5723
   22DOPE   H5Y 2800   7.593   5.699   6.140 -0.9784 -0.4782  0.4064
   22DOPE   C36 2801   7.399   5.647   6.142 -0.4862  0.5752 -0.5789
   22DOPE   H6X 2802   7.361   5.742   6.186 -1.2480 -0.2074  0.5076
   22DOPE   H6Y 2803   7.326   5.568   6.170  1.0252 -0.8644 -0.5911
   22DOPE   C37 2804   7.397   5.670   5.992 -0.1459  0.3586 -0.1162
   22DOPE   H7X 2805   7.295   5.707   5.972  0.6455  2.5929 -0.3252
   22DOPE   H7Y 2806   7.473   5.748   5.967 -0.5426  0.4683 -1.0225
   22DOPE   C38 2807   7.421   5.547   5.904  0.8193 -0.2118 -0.2982
   22DOPE   H8X 2808   7.414   5.605   5.809  1.0391 -0.3985 -0.4294
   22DOPE   H8Y 2809   7.336   5.476   5.902  1.0160 -0.4757  0.4339
   22DOPE   C39 2810   7.555   5.477   5.901  0.6760 -0.3892 -0.4511
   22DOPE   H9X 2811   7.629   5.536   5.845 -1.1561 -0.9231 -3.6937
   22DOPE  C310 2812   7.592   5.349   5.939 -0.1293 -0.3257 -0.5024
   22DOPE  H10X 2813   7.692   5.306   5.923  0.1421 -1.0109  2.3948
   22DOPE  C311 2814   7.502   5.243   5.997 -0.7046 -0.4578  0.1804
   22DOPE  H11X 2815   7.515   5.249   6.107  0.0751 -0.5794  0.1066
   22DOPE  H11Y 2816   7.397   5.271   5.977 -1.1822  0.2410  3.2135
   22DOPE  C312 2817   7.535   5.098   5.961  0.8910  0.3964 -0.5399
   22DOPE  H12X 2818   7.466   5.033   6.018 -0.6155  1.8459 -0.6636
   22DOPE  H12Y 2819   7.632   5.059   5.999 -0.8812 -2.1047  1.7017
   22DOPE  C313 2820   7.510   5.080   5.812  0.3758 -0.2186  0.0112
   22DOPE  H13X 2821   7.403   5.108   5.804 -0.3625 -2.4854  1.1275
   22DOPE  H13Y 2822   7.565   5.155   5.751 -1.6310  1.1658 -0.1740
   22DOPE  C314 2823   7.549   4.944   5.745  0.2680  0.5944 -0.4545
   22DOPE  H14X 2824   7.478   4.867   5.782 -0.2708  0.2658 -2.1252
   22DOPE  H14Y 2825   7.647   4.924   5.794  0.6550  1.8114 -0.6985
   22DOPE  C315 2826   7.551   4.953   5.593 -0.1281  0.4618  0.0535
   22DOPE  H15X 2827   7.619   4.872   5.560  1.9838  1.1633  2.3353
   22DOPE  H15Y 2828   7.603   5.047   5.564  1.5762 -0.5496 -0.2915
   22DOPE  C316 2829   7.412   4.931   5.528  0.1417  0.6378 -0.0208
   22DOPE  H16X 2830   7.342   4.986   5.595 -0.6168 -0.8479  0.4397
   22DOPE  H16Y 2831   7.381   4.825   5.539 -2.4828  1.2737 -0.7775
   22DOPE  C317 2832   7.416   4.970   5.385  0.3647 -0.1195 -0.4658
   22DOPE  H17X 2833   7.405   5.080   5.372 -2.2797 -0.0150  1.8117
   22DOPE  H17Y 2834   7.514   4.950   5.336  0.8266  1.2134 -0.1348
   22DOPE  C318 2835   7.316   4.895   5.308  0.6443  0.1359  0.2294
   22DOPE  H18X 2836   7.213   4.913   5.345  0.2315  0.1623 -0.8833
   22DOPE  H18Y 2837   7.310   4.920   5.200  0.6641  1.0752  0.4366
   22DOPE  H18Z 2838   7.324   4.784   5.316  1.7207  0.2673  1.1305
   23DOPE     N 2839   2.365   0.298   7.125 -0.3797 -0.0003 -0.2884
   23DOPE   HN1 2840   2.404   0.380   7.074 -2.0328  1.4316  0.6487
   23DOPE   HN2 2841   2.384   0.318   7.225 -1.4207  1.0347 -0.2772
   23DOPE   HN3 2842   2.424   0.221   7.087 -0.2588  0.6305 -1.4488
   23DOPE   C12 2843   2.222   0.284   7.107  0.5111 -0.9615 -0.2761
   23DOPE  H12A 2844   2.190   0.315   7.005 -2.0609  1.8714  1.2561
   23DOPE  H12B 2845   2.173   0.363   7.167  0.8245  0.4365 -1.7880
   23DOPE   C11 2846   2.184   0.133   7.136  0.8305 -0.2778 -0.1627
   23DOPE  H11A 2847   2.080   0.123   7.099  0.9971 -2.5660 -0.1551
   23DOPE  H11B 2848   2.183   0.116   7.246  2.0577 -1.9910 -0.3833
   23DOPE     P 2849   2.272  -0.093   7.031 -0.5671  0.0671 -0.2645
   23DOPE   O13 2850   2.256  -0.174   7.151 -0.3701  0.1027 -0.2692
   23DOPE   O14 2851   2.397  -0.117   6.950  0.2988  0.2337  0.1091
   23DOPE   O11 2852   2.141  -0.099   6.942 -0.1083  0.2367  0.2060
   23DOPE   O12 2853   2.276   0.055   7.065  0.0882  0.3550  0.1360
   23DOPE    C1 2854   2.086  -0.221   6.896 -0.2702 -0.0146  0.3212
   23DOPE    HA 2855   1.990  -0.204   6.843  1.3237  0.4389 -2.6644
   23DOPE    HB 2856   2.078  -0.290   6.983  3.7202  0.4906  1.2817
   23DOPE    C2 2857   2.177  -0.286   6.782  0.4088  0.0310  0.9673
   23DOPE    HS 2858   2.276  -0.309   6.827  1.0220 -1.7255 -1.0703
   23DOPE   O21 2859   2.179  -0.192   6.677 -0.4124  0.9429  0.3431
   23DOPE   C21 2860   2.293  -0.188   6.609 -0.7002 -0.5115  0.5491
   23DOPE   O22 2861   2.387  -0.261   6.624 -0.5333  0.2422  0.4532
   23DOPE   C22 2862   2.296  -0.067   6.512 -0.8425  0.5534  0.0112
   23DOPE   H2R 2863   2.399  -0.027   6.499 -0.5579  0.6288  2.1138
   23DOPE   H2S 2864   2.239   0.019   6.554 -0.9924  0.1381  0.6905
   23DOPE    C3 2865   2.118  -0.416   6.719  0.1282  0.5006 -0.9087
   23DOPE    HX 2866   2.008  -0.403   6.714  0.3310  2.2571 -1.4577
   23DOPE    HY 2867   2.136  -0.492   6.799  0.5187  2.2818  0.7682
   23DOPE   O31 2868   2.171  -0.465   6.592  0.5381 -0.3540  0.1771
   23DOPE   C31 2869   2.259  -0.564   6.596 -0.9314  0.5576  0.3422
   23DOPE   O32 2870   2.295  -0.620   6.700  0.2115  0.5193 -0.1334
   23DOPE   C32 2871   2.304  -0.598   6.451  0.0884  0.9113  0.5298
   23DOPE   H2X 2872   2.210  -0.614   6.394  0.7677  2.9916 -1.2850
   23DOPE   H2Y 2873   2.368  -0.517   6.411  0.9231  0.1356  0.2742
   23DOPE   C23 2874   2.258  -0.115   6.365 -0.1821 -0.2679  0.0903
   23DOPE   H3R 2875   2.211  -0.026   6.319  1.5918 -0.4478 -2.2119
   23DOPE   H3S 2876   2.183  -0.197   6.376 -1.5745  1.1282  1.6291
   23DOPE   C24 2877   2.378  -0.151   6.275  0.0748 -0.3947 -0.1340
   23DOPE   H4R 2878   2.427  -0.244   6.311  0.4487 -0.5390 -0.9788
   23DOPE   H4S 2879   2.446  -0.064   6.271  1.2297 -1.1331  2.0248
   23DOPE   C25 2880   2.334  -0.185   6.130 -0.4677  0.1121  0.1413
   23DOPE   H5R 2881   2.280  -0.096   6.090  0.8324  0.4972 -0.8159
   23DOPE   H5S 2882   2.271  -0.277   6.126  0.3602 -0.6461  2.7377
   23DOPE   C26 2883   2.455  -0.205   6.030  0.7332 -0.6983  0.1277
   23DOPE   H6R 2884   2.521  -0.288   6.064  1.3087 -1.6652 -2.9923
   23DOPE   H6S 2885   2.505  -0.106   6.039  0.6999 -0.6321 -0.3703
   23DOPE   C27 2886   2.398  -0.222   5.892  0.7266  0.0448 -0.1286
   23DOPE   H7R 2887   2.336  -0.134   5.864  0.7002 -0.3220 -1.2445
   23DOPE   H7S 2888   2.325  -0.306   5.894 -1.9163  2.2000  0.9236
   23DOPE   C28 2889   2.516  -0.240   5.800  0.7791  0.2781 -0.0978
   23DOPE   H8R 2890   2.569  -0.334   5.826  0.8902  1.0401  2.7825
   23DOPE   H8S 2891   2.591  -0.164   5.831 -1.6848  3.3746 -1.1594
   23DOPE   C29 2892   2.481  -0.235   5.655  0.3845 -0.3228 -0.6284
   23DOPE   H9R 2893   2.397  -0.292   5.614  1.8926 -1.3749 -2.4310
   23DOPE  C210 2894   2.536  -0.143   5.568  0.0362  0.6492  0.1214
   23DOPE  H10R 2895   2.500  -0.152   5.465  2.8194 -0.4792 -0.8546
   23DOPE  C211 2896   2.644  -0.040   5.595  0.3892 -0.0944 -0.6996
   23DOPE  H11R 2897   2.741  -0.061   5.545  0.5954  1.1554 -0.8457
   23DOPE  H11S 2898   2.659  -0.034   5.705 -0.3377 -2.7765 -0.3894
   23DOPE  C212 2899   2.607   0.105   5.553  0.1703  0.1261  0.3932
   23DOPE  H12R 2900   2.689   0.173   5.584 -0.8562  1.7375 -0.2779
   23DOPE  H12S 2901   2.513   0.148   5.594 -1.5437 -1.0416 -2.0379
   23DOPE  C213 2902   2.592   0.124   5.397  0.0446 -0.0686  0.7003
   23DOPE  H13R 2903   2.519   0.048   5.362  1.2485 -0.5895 -0.7652
   23DOPE  H13S 2904   2.693   0.106   5.354 -0.3470  1.4212 -0.9085
   23DOPE  C214 2905   2.558   0.268   5.353  1.0073 -0.8121  0.0624
   23DOPE  H14R 2906   2.632   0.337   5.400 -0.3466  0.3467  0.5652
   23DOPE  H14S 2907   2.459   0.292   5.397  2.2700 -0.6845  3.1122
   23DOPE  C215 2908   2.551   0.287   5.203  0.6138 -0.5432 -0.8500
   23DOPE  H15R 2909   2.654   0.270   5.163  1.0429 -0.9441  0.3862
   23DOPE  H15S 2910   2.527   0.392   5.175  0.5035 -0.0352  1.0132
   23DOPE  C216 2911   2.455   0.187   5.133  0.3865  0.0441 -0.3337
   23DOPE  H16R 2912   2.350   0.198   5.168  0.3242 -0.9380 -0.1687
   23DOPE  H16S 2913   2.484   0.086   5.169 -3.0106 -0.8471  0.2858
   23DOPE  C217 2914   2.453   0.202   4.986  0.3196 -0.1085 -0.0219
   23DOPE  H17R 2915   2.553   0.226   4.944  1.2802  0.5340  2.4613
   23DOPE  H17S 2916   2.397   0.298   4.978 -0.8457 -0.7374  0.2923
   23DOPE  C218 2917   2.369   0.105   4.905 -0.2584  0.9400 -0.1714
   23DOPE  H18R 2918   2.357   0.143   4.801 -0.1008 -2.2520 -1.4696
   23DOPE  H18S 2919   2.266   0.096   4.945 -0.2243  1.5194  0.0583
   23DOPE  H18T 2920   2.414   0.004   4.894  0.0396  0.9399  0.9780
   23DOPE   C33 2921   2.391  -0.722   6.446 -0.3009  0.2835 -0.0315
   23DOPE   H3X 2922   2.360  -0.794   6.525  1.5518  1.2010  1.6292
   23DOPE   H3Y 2923   2.493  -0.690   6.476 -0.3547 -0.2919  0.7976
   23DOPE   C34 2924   2.376  -0.777   6.311  0.2186 -0.0423  0.0643
   23DOPE   H4X 2925   2.288  -0.842   6.293  0.2151  0.0117 -0.1171
   23DOPE   H4Y 2926   2.375  -0.698   6.232  0.3006  0.0292  0.1341
   23DOPE   C35 2927   2.498  -0.864   6.276  0.2200 -0.1473  0.5497
   23DOPE   H5X 2928   2.588  -0.800   6.285  0.0547 -0.0059  1.2715
   23DOPE   H5Y 2929   2.486  -0.889   6.168 -3.8746  1.3151  0.4844
   23DOPE   C36 2930   2.501  -0.996   6.361  0.4246 -0.3927  0.2719
   23DOPE   H6X 2931   2.397  -1.034   6.375  0.7698 -1.4156  0.1912
   23DOPE   H6Y 2932   2.548  -0.961   6.456 -1.9752  1.5347  0.8685
   23DOPE   C37 2933   2.600  -1.093   6.286  0.3586  0.0395  0.5072
   23DOPE   H7X 2934   2.567  -1.092   6.180 -0.6688 -0.2307  0.8097
   23DOPE   H7Y 2935   2.699  -1.043   6.290 -0.2858  1.4411 -0.3562
   23DOPE   C38 2936   2.614  -1.243   6.324 -0.0418 -0.2697 -0.0841
   23DOPE   H8X 2937   2.513  -1.284   6.344  0.9963 -2.7644  0.4520
   23DOPE   H8Y 2938   2.662  -1.253   6.423  1.0458  0.5382 -0.5111
   23DOPE   C39 2939   2.680  -1.315   6.211 -0.5717 -0.3828 -0.1440
   23DOPE   H9X 2940   2.790  -1.309   6.203 -0.4955  0.0443  0.9925
   23DOPE  C310 2941   2.621  -1.403   6.124  0.5126 -0.4617  0.3410
   23DOPE  H10X 2942   2.686  -1.470   6.066 -0.3598 -1.5685  0.6208
   23DOPE  C311 2943   2.477  -1.447   6.119  0.4698 -0.0172  0.1921
   23DOPE  H11X 2944   2.476  -1.555   6.148 -0.1585 -0.3321 -0.9384
   23DOPE  H11Y 2945   2.415  -1.377   6.179 -1.1539 -0.7700 -0.5526
   23DOPE  C312 2946   2.409  -1.468   5.983  0.1293 -0.4903  0.0680
   23DOPE  H12X 2947   2.303  -1.494   6.001 -0.6399  2.5786  0.6554
   23DOPE  H12Y 2948   2.464  -1.547   5.928 -0.0707  0.2074 -1.1512
   23DOPE  C313 2949   2.413  -1.345   5.890 -1.2700 -0.0164 -0.1419
   23DOPE  H13X 2950   2.516  -1.326   5.853 -0.5254 -2.9137  0.1746
   23DOPE  H13Y 2951   2.367  -1.373   5.793  0.7809 -0.5131 -1.0450
   23DOPE  C314 2952   2.326  -1.225   5.945  0.0128 -0.0228  0.5783
   23DOPE  H14X 2953   2.320  -1.210   6.055 -1.3152  0.4424  0.4650
   23DOPE  H14Y 2954   2.224  -1.255   5.913  1.1023 -0.5010 -2.9372
   23DOPE  C315 2955   2.360  -1.089   5.884 -0.2051 -0.2255 -0.3726
   23DOPE  H15X 2956   2.346  -1.092   5.774 -1.2550  2.4130 -0.3771
   23DOPE  H15Y 2957   2.466  -1.067   5.911  0.4827  0.1233 -3.0737
   23DOPE  C316 2958   2.276  -0.976   5.952  0.4069 -0.3487  0.1487
   23DOPE  H16X 2959   2.277  -0.982   6.063  0.8785 -0.3459  0.1453
   23DOPE  H16Y 2960   2.173  -0.976   5.910  0.2823  0.5416  0.4414
   23DOPE  C317 2961   2.332  -0.840   5.912 -0.5094 -1.0254 -0.4011
   23DOPE  H17X 2962   2.434  -0.827   5.953 -1.7236  1.3341  2.1921
   23DOPE  H17Y 2963   2.348  -0.836   5.802 -2.1400  2.8404 -0.6782
   23DOPE  C318 2964   2.238  -0.724   5.945  0.2145 -0.7257  0.7203
   23DOPE  H18X 2965   2.296  -0.631   5.929  0.8813 -1.3147 -0.3353
   23DOPE  H18Y 2966   2.155  -0.719   5.871 -1.3183  1.9062  2.4197
   23DOPE  H18Z 2967   2.193  -0.723   6.047  1.2027  3.7642  1.3537
   24DOPE     N 2968   4.908   5.992   7.240 -0.5452 -0.7003  0.1914
   24DOPE   HN1 2969   4.854   6.074   7.275 -0.8416 -0.7525 -0.1417
   24DOPE   HN2 2970   4.853   5.913   7.280 -1.2618  0.6420  2.0072
   24DOPE   HN3 2971   5.005   5.990   7.277 -0.6833 -1.8114  0.5353
   24DOPE   C12 2972   4.906   5.984   7.083 -0.4363  0.0605 -0.5120
   24DOPE  H12A 2973   4.797   5.979   7.061 -0.5392  0.0654 -0.0117
   24DOPE  H12B 2974   4.954   5.886   7.062 -1.2766 -1.0248  2.1637
   24DOPE   C11 2975   4.994   6.090   7.014  0.2747  0.1545  0.1710
   24DOPE  H11A 2976   4.949   6.188   7.039  0.7829 -0.0269  1.9734
   24DOPE  H11B 2977   4.997   6.065   6.906  0.4267 -1.3407  0.4866
   24DOPE     P 2978   5.239   6.188   7.024 -0.1642  0.1924 -0.3159
   24DOPE   O13 2979   5.366   6.151   7.088 -0.0735 -0.0578  0.4809
   24DOPE   O14 2980   5.190   6.322   7.056  0.3103 -0.0865  0.3460
   24DOPE   O11 2981   5.249   6.176   6.874 -0.1831 -0.2245  0.1962
   24DOPE   O12 2982   5.126   6.083   7.068  0.5293 -0.3347  0.7995
   24DOPE    C1 2983   5.297   6.046   6.821  0.4045  0.4560 -0.8822
   24DOPE    HA 2984   5.235   5.961   6.859  0.6143  1.3294  1.5794
   24DOPE    HB 2985   5.399   6.023   6.858  0.0899  0.4452  0.0048
   24DOPE    C2 2986   5.302   6.065   6.673  0.0814 -0.0603  0.4224
   24DOPE    HS 2987   5.201   6.099   6.641 -1.0240 -2.9806  0.4744
   24DOPE   O21 2988   5.332   5.943   6.604  0.3005 -0.1072  0.0398
   24DOPE   C21 2989   5.230   5.872   6.578 -0.0847 -1.0862  0.0092
   24DOPE   O22 2990   5.114   5.899   6.593 -0.4729 -0.6003 -0.4321
   24DOPE   C22 2991   5.272   5.735   6.531 -0.3059  0.3695 -0.3396
   24DOPE   H2R 2992   5.184   5.668   6.525  0.9089 -1.3988  0.6766
   24DOPE   H2S 2993   5.342   5.693   6.606 -0.9509 -1.6391 -0.8105
   24DOPE    C3 2994   5.414   6.163   6.639 -0.4505 -0.5011 -0.1573
   24DOPE    HX 2995   5.502   6.119   6.690 -1.0459  0.0841  1.4480
   24DOPE    HY 2996   5.389   6.263   6.682 -2.1783 -0.3455 -1.4204
   24DOPE   O31 2997   5.452   6.181   6.499 -0.3194  0.1568  0.2129
   24DOPE   C31 2998   5.379   6.265   6.432 -0.1722 -0.3073 -0.1707
   24DOPE   O32 2999   5.297   6.338   6.482  0.6668 -0.1545  0.2668
   24DOPE   C32 3000   5.417   6.266   6.284 -0.1652  0.3653  0.1582
   24DOPE   H2X 3001   5.346   6.333   6.232  1.4355  1.5574 -0.5797
   24DOPE   H2Y 3002   5.520   6.305   6.266  0.1459  0.9473  2.7164
   24DOPE   C23 3003   5.342   5.753   6.394 -0.0853 -0.3049 -0.1364
   24DOPE   H3R 3004   5.387   5.658   6.359 -0.2471  0.3620 -2.2846
   24DOPE   H3S 3005   5.412   5.839   6.404 -2.1853  1.3902  0.9340
   24DOPE   C24 3006   5.243   5.797   6.284 -0.2536 -0.3384  0.1122
   24DOPE   H4R 3007   5.288   5.839   6.191  2.0798  0.8616  1.7060
   24DOPE   H4S 3008   5.188   5.889   6.315 -1.6391 -0.5901 -1.4470
   24DOPE   C25 3009   5.152   5.682   6.229 -0.0585 -0.1909  0.7072
   24DOPE   H5R 3010   5.072   5.678   6.305 -1.0553  1.7520 -0.1522
   24DOPE   H5S 3011   5.199   5.582   6.238 -0.0215 -0.2475 -0.0518
   24DOPE   C26 3012   5.090   5.712   6.087 -0.1843 -0.0556  0.2960
   24DOPE   H6R 3013   5.068   5.821   6.088 -3.2342 -0.5273 -1.8599
   24DOPE   H6S 3014   4.992   5.659   6.086 -0.2809  0.1064  0.8260
   24DOPE   C27 3015   5.181   5.659   5.984  0.0634 -0.4521  0.9282
   24DOPE   H7R 3016   5.212   5.559   6.020 -0.8611 -1.1976 -0.2748
   24DOPE   H7S 3017   5.278   5.713   5.982 -0.6942  0.9684 -1.5075
   24DOPE   C28 3018   5.121   5.650   5.840 -0.1840  0.8856 -0.2592
   24DOPE   H8R 3019   5.104   5.753   5.802 -0.4607  2.0173  2.6821
   24DOPE   H8S 3020   5.029   5.592   5.860  1.2240 -0.6222  2.3159
   24DOPE   C29 3021   5.201   5.564   5.745 -0.6447  0.7998 -0.6541
   24DOPE   H9R 3022   5.310   5.558   5.763 -0.7865  0.3480  0.0471
   24DOPE  C210 3023   5.152   5.494   5.644  0.3517 -0.1234 -0.3052
   24DOPE  H10R 3024   5.217   5.447   5.570  0.5781 -1.5191  0.7367
   24DOPE  C211 3025   5.011   5.493   5.600  0.0216  0.1644 -0.3796
   24DOPE  H11R 3026   5.011   5.520   5.492  1.1511 -0.0705 -0.4450
   24DOPE  H11S 3027   4.953   5.572   5.653  0.5880  0.0042  0.4959
   24DOPE  C212 3028   4.945   5.351   5.600  0.1253 -0.7682 -0.3053
   24DOPE  H12R 3029   4.953   5.320   5.706  0.0252 -0.7731 -0.2982
   24DOPE  H12S 3030   5.027   5.295   5.550  2.2073 -0.2926  2.3748
   24DOPE  C213 3031   4.805   5.325   5.548 -0.0512 -0.0626 -0.3218
   24DOPE  H13R 3032   4.816   5.336   5.438 -1.9376  0.8850 -0.4558
   24DOPE  H13S 3033   4.735   5.405   5.579 -0.1696 -0.6168  0.9033
   24DOPE  C214 3034   4.740   5.190   5.586  0.5601  1.1439  0.4553
   24DOPE  H14R 3035   4.631   5.209   5.581  0.2459 -0.6005 -0.1194
   24DOPE  H14S 3036   4.769   5.153   5.686  1.3625 -2.2526 -0.8825
   24DOPE  C215 3037   4.765   5.068   5.490  0.4151 -0.1441 -0.0936
   24DOPE  H15R 3038   4.868   5.029   5.495  0.6216 -0.2392 -3.3089
   24DOPE  H15S 3039   4.742   5.091   5.384  1.7878 -1.8942 -0.8121
   24DOPE  C216 3040   4.681   4.942   5.531 -0.0574 -0.7034  0.0122
   24DOPE  H16R 3041   4.581   4.975   5.568  0.8116  0.7716  1.1457
   24DOPE  H16S 3042   4.727   4.908   5.626 -0.4980 -0.0335  0.4764
   24DOPE  C217 3043   4.678   4.828   5.420  0.6435 -0.1391  0.3625
   24DOPE  H17R 3044   4.777   4.839   5.370  1.0642 -1.0845  0.9575
   24DOPE  H17S 3045   4.606   4.855   5.340  0.5717  0.8647  0.7528
   24DOPE  C218 3046   4.651   4.692   5.479  0.0618 -0.1532  0.0834
   24DOPE  H18R 3047   4.727   4.681   5.560  0.3647  0.2778 -0.1358
   24DOPE  H18S 3048   4.659   4.608   5.407  0.5634  0.8730 -1.0939
   24DOPE  H18T 3049   4.550   4.702   5.524  0.2258  2.2636  0.0782
   24DOPE   C33 3050   5.420   6.124   6.210 -0.1627 -0.2928 -0.7540
   24DOPE   H3X 3051   5.334   6.069   6.253  0.1668  1.6028  2.7815
   24DOPE   H3Y 3052   5.512   6.068   6.237  0.4263  0.3568 -1.3815
   24DOPE   C34 3053   5.409   6.142   6.057  0.0555 -0.1610  0.2118
   24DOPE   H4X 3054   5.492   6.201   6.013 -0.0625 -0.3402 -0.2581
   24DOPE   H4Y 3055   5.432   6.043   6.013  0.2708  0.9664 -2.4047
   24DOPE   C35 3056   5.273   6.191   6.013 -0.0531 -0.8814  0.4969
   24DOPE   H5X 3057   5.281   6.299   6.037  1.4600 -0.3886 -1.8523
   24DOPE   H5Y 3058   5.187   6.142   6.065 -1.6211  1.1731 -0.0174
   24DOPE   C36 3059   5.268   6.175   5.858 -0.4220  0.8160  0.2563
   24DOPE   H6X 3060   5.265   6.066   5.840 -0.4762  0.8180  0.2546
   24DOPE   H6Y 3061   5.365   6.211   5.817 -0.9058  0.3494 -1.3708
   24DOPE   C37 3062   5.152   6.233   5.779 -0.0738 -0.3737  0.4638
   24DOPE   H7X 3063   5.057   6.224   5.837  0.3601 -0.0023  1.2522
   24DOPE   H7Y 3064   5.176   6.342   5.775 -1.3754 -0.0945 -0.1978
   24DOPE   C38 3065   5.131   6.178   5.629 -0.0129 -0.0924  0.2560
   24DOPE   H8X 3066   5.225   6.189   5.570  1.3826 -3.4902  1.5404
   24DOPE   H8Y 3067   5.058   6.240   5.574  0.2074  0.7854  0.9362
   24DOPE   C39 3068   5.091   6.028   5.629 -0.3721  0.5461 -0.2114
   24DOPE   H9X 3069   5.008   6.002   5.697  0.6200 -3.7520 -0.3489
   24DOPE  C310 3070   5.142   5.921   5.564 -0.0691 -0.3558 -0.1762
   24DOPE  H10X 3071   5.097   5.823   5.588  0.2370 -0.0840  1.7217
   24DOPE  C311 3072   5.255   5.919   5.467 -0.3185 -0.4518 -0.9113
   24DOPE  H11X 3073   5.231   5.984   5.380 -1.6020  1.4074  0.7234
   24DOPE  H11Y 3074   5.341   5.964   5.521  0.3517 -2.4015 -0.2941
   24DOPE  C312 3075   5.302   5.779   5.430  0.4218 -0.7913  0.1641
   24DOPE  H12X 3076   5.318   5.710   5.516 -1.6512  0.3193  1.5234
   24DOPE  H12Y 3077   5.401   5.799   5.384  1.6244 -1.7099  2.2335
   24DOPE  C313 3078   5.209   5.710   5.324  0.4360 -0.6221  0.4111
   24DOPE  H13X 3079   5.117   5.667   5.369 -0.1505 -1.9445 -1.8512
   24DOPE  H13Y 3080   5.182   5.789   5.250  0.6945  0.0435  1.0163
   24DOPE  C314 3081   5.275   5.596   5.242 -0.7272  0.2063  0.4343
   24DOPE  H14X 3082   5.278   5.504   5.303 -0.5483 -0.1969 -0.1729
   24DOPE  H14Y 3083   5.380   5.632   5.229 -1.4710  1.3288 -4.5020
   24DOPE  C315 3084   5.227   5.562   5.095 -0.2249 -0.2689  0.0851
   24DOPE  H15X 3085   5.127   5.515   5.103 -0.9469  0.8923 -1.6286
   24DOPE  H15Y 3086   5.299   5.488   5.055  0.7607  0.2795  0.7936
   24DOPE  C316 3087   5.214   5.695   5.014 -0.7072  0.1244 -0.0165
   24DOPE  H16X 3088   5.312   5.740   5.042 -0.4946 -0.3771  0.0592
   24DOPE  H16Y 3089   5.137   5.764   5.054  0.4237  0.2215  2.1056
   24DOPE  C317 3090   5.202   5.672   4.864 -0.0122  0.1981  0.5935
   24DOPE  H17X 3091   5.283   5.605   4.826  1.8972  2.3638  0.6143
   24DOPE  H17Y 3092   5.106   5.618   4.852  0.6482 -0.7009 -1.0350
   24DOPE  C318 3093   5.195   5.810   4.787 -0.4757  0.1965 -0.3302
   24DOPE  H18X 3094   5.293   5.832   4.739  0.2799 -2.0288  0.0769
   24DOPE  H18Y 3095   5.121   5.817   4.705 -1.7037  0.3277  0.7678
   24DOPE  H18Z 3096   5.177   5.892   4.860  2.1559 -0.2374  0.9552
   25DOPE     N 3097   7.166   6.045   7.359 -0.4121 -0.1219 -0.6460
   25DOPE   HN1 3098   7.255   6.093   7.386  0.2334 -0.8876 -1.3589
   25DOPE   HN2 3099   7.175   6.001   7.265 -0.6686  0.5335 -0.9893
   25DOPE   HN3 3100   7.094   6.121   7.354  0.0668  0.6001  1.9786
   25DOPE   C12 3101   7.128   5.947   7.462  0.2513  0.4622 -0.0996
   25DOPE  H12A 3102   7.104   6.004   7.555 -1.3602  0.2395 -0.3485
   25DOPE  H12B 3103   7.217   5.883   7.481 -0.4739 -1.0177 -1.4399
   25DOPE   C11 3104   7.010   5.867   7.408 -0.7269 -0.4666  0.1887
   25DOPE  H11A 3105   6.928   5.939   7.386  0.5517  0.7263 -0.8331
   25DOPE  H11B 3106   6.975   5.784   7.472  0.4685 -1.9832 -1.0461
   25DOPE     P 3107   7.002   5.690   7.215  0.0017 -0.0800 -0.0513
   25DOPE   O13 3108   6.882   5.636   7.287  0.1854  0.2386  0.3072
   25DOPE   O14 3109   7.117   5.599   7.209 -0.1645 -0.2959 -0.1375
   25DOPE   O11 3110   6.967   5.727   7.064 -0.2723 -0.0609  0.3752
   25DOPE   O12 3111   7.045   5.829   7.277  0.3393 -0.4640  0.2919
   25DOPE    C1 3112   6.933   5.859   7.024  0.0877  0.7119  0.8865
   25DOPE    HA 3113   7.013   5.926   7.063 -0.5729  1.0039  1.7746
   25DOPE    HB 3114   6.832   5.888   7.060 -1.0262 -2.6668  0.7972
   25DOPE    C2 3115   6.945   5.883   6.877 -0.6998  0.6022  0.0307
   25DOPE    HS 3116   6.923   5.991   6.863 -1.7608  0.5121  0.8630
   25DOPE   O21 3117   6.850   5.802   6.797  0.0219 -0.7271  0.2493
   25DOPE   C21 3118   6.723   5.853   6.796  0.1270  0.0888 -0.0070
   25DOPE   O22 3119   6.694   5.966   6.824 -0.2242 -0.0166 -0.1731
   25DOPE   C22 3120   6.632   5.743   6.734 -0.0054  0.2052  0.0233
   25DOPE   H2R 3121   6.547   5.716   6.801  1.3242 -1.9875  0.9522
   25DOPE   H2S 3122   6.702   5.657   6.724 -1.0490 -0.6152 -0.2918
   25DOPE    C3 3123   7.092   5.851   6.823  0.6369  0.0146 -0.2009
   25DOPE    HX 3124   7.121   5.749   6.855 -2.5647 -1.4257 -1.4964
   25DOPE    HY 3125   7.157   5.924   6.876  2.2893  0.5374 -2.8048
   25DOPE   O31 3126   7.105   5.874   6.679  0.5786  0.6324 -0.0070
   25DOPE   C31 3127   7.094   5.764   6.605  0.6890 -0.2126  0.3452
   25DOPE   O32 3128   7.085   5.650   6.648  0.4078 -0.0993  0.1454
   25DOPE   C32 3129   7.110   5.795   6.461  0.5339  0.7625 -0.3400
   25DOPE   H2X 3130   7.205   5.853   6.456  0.4153  0.9636 -0.2292
   25DOPE   H2Y 3131   7.120   5.709   6.391 -0.6799 -0.2807  0.7062
   25DOPE   C23 3132   6.591   5.777   6.590  0.3167  0.3499  0.2526
   25DOPE   H3R 3133   6.675   5.831   6.541  2.6624 -2.3874  0.9390
   25DOPE   H3S 3134   6.499   5.839   6.599 -0.6954 -1.2313  1.2820
   25DOPE   C24 3135   6.569   5.644   6.516 -0.5737 -0.1626 -0.0102
   25DOPE   H4R 3136   6.493   5.585   6.571  0.3919 -0.2312  1.3221
   25DOPE   H4S 3137   6.660   5.581   6.528 -1.4213 -1.3828  0.1630
   25DOPE   C25 3138   6.543   5.652   6.366 -0.3888 -0.1772  0.4792
   25DOPE   H5R 3139   6.605   5.730   6.319 -1.5138  1.0266  0.9263
   25DOPE   H5S 3140   6.434   5.670   6.349 -0.2727 -0.3586 -0.5083
   25DOPE   C26 3141   6.564   5.520   6.292  0.4764 -1.1769  0.3424
   25DOPE   H6R 3142   6.506   5.436   6.336  1.1895 -1.7529  0.2080
   25DOPE   H6S 3143   6.668   5.487   6.315  0.4614 -0.2564  1.8923
   25DOPE   C27 3144   6.533   5.529   6.142  0.1620  0.0354 -0.4031
   25DOPE   H7R 3145   6.563   5.436   6.090 -0.4544 -0.7044  0.5199
   25DOPE   H7S 3146   6.595   5.607   6.092 -0.4913  0.5768 -0.3909
   25DOPE   C28 3147   6.385   5.564   6.118 -0.0445  0.2760  0.1126
   25DOPE   H8R 3148   6.378   5.670   6.149  0.1078  0.4813 -0.5315
   25DOPE   H8S 3149   6.326   5.510   6.195 -1.5306  1.3469 -0.2366
   25DOPE   C29 3150   6.340   5.535   5.976 -0.5577  0.1422 -0.1548
   25DOPE   H9R 3151   6.342   5.426   5.958  0.6588  0.3926 -1.6974
   25DOPE  C210 3152   6.317   5.624   5.874  0.7045 -0.3207 -1.1270
   25DOPE  H10R 3153   6.281   5.585   5.778 -2.2790 -0.4385 -0.0466
   25DOPE  C211 3154   6.333   5.781   5.881 -0.2318  0.2969  0.6313
   25DOPE  H11R 3155   6.386   5.827   5.794  0.4467  0.0490  0.9038
   25DOPE  H11S 3156   6.390   5.802   5.974  0.2956  0.3657  0.2988
   25DOPE  C212 3157   6.193   5.839   5.876 -0.8048  0.5406 -0.2096
   25DOPE  H12R 3158   6.137   5.795   5.962 -0.2309 -0.9858 -0.5939
   25DOPE  H12S 3159   6.133   5.797   5.793 -0.2472 -2.9547  0.9913
   25DOPE  C213 3160   6.191   5.991   5.883 -0.1102 -0.8745  0.3579
   25DOPE  H13R 3161   6.229   6.034   5.787  0.3984  2.5223  1.9043
   25DOPE  H13S 3162   6.261   6.025   5.962 -0.8912  0.9426  0.3268
   25DOPE  C214 3163   6.045   6.038   5.904 -0.0321 -0.2733 -0.0021
   25DOPE  H14R 3164   6.021   5.995   6.004 -2.3987  1.7474  0.4108
   25DOPE  H14S 3165   5.971   5.994   5.834 -0.2448  0.3150 -0.1595
   25DOPE  C215 3166   6.028   6.190   5.907 -0.1903 -0.6917 -0.1049
   25DOPE  H15R 3167   6.053   6.237   5.810  0.5806  0.9107  0.8319
   25DOPE  H15S 3168   6.097   6.232   5.982 -0.7839 -0.4073  0.2909
   25DOPE  C216 3169   5.886   6.220   5.957 -0.0687 -0.3056 -0.6616
   25DOPE  H16R 3170   5.874   6.168   6.054 -2.2959  0.2231 -0.6064
   25DOPE  H16S 3171   5.816   6.176   5.883  0.7944 -1.0253 -1.0727
   25DOPE  C217 3172   5.860   6.370   5.960 -0.1514 -0.5109  0.2841
   25DOPE  H17R 3173   5.852   6.420   5.862  2.2734  1.9197  1.1770
   25DOPE  H17S 3174   5.945   6.419   6.012  0.2196 -0.8028 -0.0392
   25DOPE  C218 3175   5.727   6.409   6.033 -0.5613 -0.3598 -0.3815
   25DOPE  H18R 3176   5.740   6.391   6.142  1.1314  0.5563 -0.3994
   25DOPE  H18S 3177   5.643   6.363   5.977 -0.9449  0.4809 -0.5109
   25DOPE  H18T 3178   5.715   6.518   6.019  0.5273  0.1685  2.1382
   25DOPE   C33 3179   7.007   5.898   6.416  0.1316  0.2351  0.5157
   25DOPE   H3X 3180   6.966   5.971   6.489  0.3963  1.6990 -0.7492
   25DOPE   H3Y 3181   6.925   5.829   6.385  0.5935  0.1144 -0.4974
   25DOPE   C34 3182   7.071   5.979   6.302  0.0196 -0.7941  0.1358
   25DOPE   H4X 3183   7.153   6.038   6.348 -0.5588  1.6948 -1.8003
   25DOPE   H4Y 3184   7.108   5.908   6.226 -1.8166 -1.6490 -0.0300
   25DOPE   C35 3185   6.981   6.085   6.236 -0.3180 -0.1267 -0.4586
   25DOPE   H5X 3186   6.930   6.153   6.309  1.8117  1.1835 -0.0981
   25DOPE   H5Y 3187   6.895   6.038   6.184 -1.6329  1.4210  0.2149
   25DOPE   C36 3188   7.060   6.177   6.145  1.0665  0.7573 -0.4549
   25DOPE   H6X 3189   7.135   6.223   6.214 -0.5371 -0.7900  2.5084
   25DOPE   H6Y 3190   6.987   6.255   6.115 -0.5801 -0.6031 -0.0962
   25DOPE   C37 3191   7.131   6.116   6.022  0.8566  0.0323  0.3205
   25DOPE   H7X 3192   7.208   6.183   5.978 -1.0281  2.1806  0.0541
   25DOPE   H7Y 3193   7.182   6.025   6.059  0.1614  0.3344  2.1111
   25DOPE   C38 3194   7.018   6.084   5.919 -0.5606 -0.1388  0.4973
   25DOPE   H8X 3195   6.964   6.177   5.892  0.8251  0.9943  1.4429
   25DOPE   H8Y 3196   6.947   6.022   5.977  0.9051 -4.0308 -1.4985
   25DOPE   C39 3197   7.056   5.993   5.805  0.0068 -0.4976  0.3436
   25DOPE   H9X 3198   7.043   5.885   5.822  1.5265 -0.8036 -0.2179
   25DOPE  C310 3199   7.131   6.034   5.701  0.5693 -0.5356  0.1610
   25DOPE  H10X 3200   7.158   5.964   5.620  0.0495 -0.1519 -0.3554
   25DOPE  C311 3201   7.181   6.173   5.694  0.6499 -0.4448 -0.1355
   25DOPE  H11X 3202   7.128   6.237   5.767 -0.1655  0.5574 -1.5624
   25DOPE  H11Y 3203   7.288   6.183   5.721  1.3586 -2.0477 -2.0495
   25DOPE  C312 3204   7.171   6.233   5.548 -0.5607 -0.5583 -0.1660
   25DOPE  H12X 3205   7.214   6.336   5.551 -0.7897 -0.4762  0.8696
   25DOPE  H12Y 3206   7.074   6.220   5.496  0.2605  0.0258 -1.9104
   25DOPE  C313 3207   7.259   6.155   5.452  0.5409 -0.0625  0.5880
   25DOPE  H13X 3208   7.352   6.141   5.511  0.5235  0.8295  0.8396
   25DOPE  H13Y 3209   7.222   6.052   5.429 -1.8304  0.9540 -0.4419
   25DOPE  C314 3210   7.305   6.228   5.324  0.1610  0.4401  0.6083
   25DOPE  H14X 3211   7.392   6.176   5.278 -0.2598  0.3493 -0.1111
   25DOPE  H14Y 3212   7.346   6.324   5.362 -0.7246  0.1602  2.3595
   25DOPE  C315 3213   7.192   6.251   5.215 -0.5325 -0.3499 -0.3369
   25DOPE  H15X 3214   7.103   6.300   5.260  0.8369 -0.1227  2.3475
   25DOPE  H15Y 3215   7.147   6.157   5.177 -0.5868 -0.4573 -0.0072
   25DOPE  C316 3216   7.238   6.345   5.104  0.1168 -0.3412  0.0558
   25DOPE  H16X 3217   7.229   6.450   5.140  1.1874 -0.1930 -0.0950
   25DOPE  H16Y 3218   7.165   6.335   5.021  2.1906 -2.2095 -1.6560
   25DOPE  C317 3219   7.370   6.315   5.031 -0.3299 -0.7751  0.8493
   25DOPE  H17X 3220   7.452   6.330   5.105 -0.4700  1.2174  0.6564
   25DOPE  H17Y 3221   7.361   6.212   4.992 -1.4548 -0.7384  0.9668
   25DOPE  C318 3222   7.393   6.410   4.912 -0.2897  0.2927 -0.3502
   25DOPE  H18X 3223   7.487   6.380   4.861 -0.7588 -2.9183  0.4142
   25DOPE  H18Y 3224   7.318   6.408   4.830  1.0999  3.2451 -1.8385
   25DOPE  H18Z 3225   7.397   6.517   4.940 -1.3351 -0.1671  1.7957
   26DOPE     N 3226   1.596   6.041   7.104  0.2049  0.1284  0.2934
   26DOPE   HN1 3227   1.647   5.967   7.051 -1.4166  1.7593 -3.9686
   26DOPE   HN2 3228   1.598   6.122   7.039  2.4044  0.2527  0.4205
   26DOPE   HN3 3229   1.661   6.063   7.183  0.6193  0.2482 -0.0730
   26DOPE   C12 3230   1.453   5.992   7.131  0.7086  0.3360 -0.1168
   26DOPE  H12A 3231   1.461   5.891   7.176  0.7789  1.6440  2.9995
   26DOPE  H12B 3232   1.402   5.990   7.032 -0.6858 -2.7873  0.5146
   26DOPE   C11 3233   1.380   6.095   7.223 -0.0377  0.4967  0.8418
   26DOPE  H11A 3234   1.435   6.113   7.318  0.8657 -0.0638  0.4393
   26DOPE  H11B 3235   1.282   6.050   7.248  0.3923 -1.0400 -0.1103
   26DOPE     P 3236   1.212   6.267   7.117  0.4231  0.0938  0.1737
   26DOPE   O13 3237   1.206   6.381   7.020 -0.0932 -0.1900 -0.3201
   26DOPE   O14 3238   1.142   6.290   7.244 -0.7015 -0.1020 -0.3872
   26DOPE   O11 3239   1.152   6.141   7.048 -0.1973  0.0418 -0.6180
   26DOPE   O12 3240   1.360   6.214   7.141  0.2885 -0.1992  0.1658
   26DOPE    C1 3241   1.205   6.092   6.922  0.7615 -0.1491 -0.1409
   26DOPE    HA 3242   1.209   5.981   6.932  0.1411 -0.4990 -2.9661
   26DOPE    HB 3243   1.311   6.120   6.903  1.3113 -1.2613  1.1293
   26DOPE    C2 3244   1.118   6.136   6.804  0.4820 -0.2911  0.7359
   26DOPE    HS 3245   1.097   6.244   6.821  0.5355 -0.4078  1.6078
   26DOPE   O21 3246   0.996   6.062   6.822  0.4563 -0.0264 -0.0491
   26DOPE   C21 3247   0.878   6.123   6.796  0.2339 -0.2109  0.5398
   26DOPE   O22 3248   0.865   6.242   6.767 -0.7372 -0.0634 -0.0223
   26DOPE   C22 3249   0.767   6.028   6.805  0.0635 -0.1391  0.5715
   26DOPE   H2R 3250   0.669   6.079   6.824 -0.4767 -0.1194 -1.8980
   26DOPE   H2S 3251   0.796   5.950   6.878  1.5383  1.0140  1.2733
   26DOPE    C3 3252   1.172   6.108   6.661 -0.3158  0.1008  0.2947
   26DOPE    HX 3253   1.170   5.999   6.643 -0.3152  0.2033 -0.3479
   26DOPE    HY 3254   1.277   6.139   6.640  1.0574 -3.6511  0.9344
   26DOPE   O31 3255   1.081   6.162   6.558 -0.0392  0.3283  0.2527
   26DOPE   C31 3256   1.069   6.289   6.556  1.1556 -0.0134  1.1983
   26DOPE   O32 3257   1.114   6.370   6.635 -0.0461  0.0224  0.1810
   26DOPE   C32 3258   0.965   6.332   6.449  0.3057 -0.2267 -1.2566
   26DOPE   H2X 3259   0.994   6.302   6.346 -0.4404  1.5219 -2.0202
   26DOPE   H2Y 3260   0.871   6.276   6.469  0.8283 -0.5972  0.2759
   26DOPE   C23 3261   0.743   5.957   6.667 -0.5239 -0.6870 -0.2589
   26DOPE   H3R 3262   0.692   5.859   6.675 -0.9956 -0.9377 -4.2114
   26DOPE   H3S 3263   0.835   5.930   6.610 -1.1691 -1.2819 -1.0481
   26DOPE   C24 3264   0.674   6.061   6.574 -0.3020  0.3689 -0.1663
   26DOPE   H4R 3265   0.748   6.143   6.559 -1.7717  1.7476 -0.1544
   26DOPE   H4S 3266   0.583   6.099   6.625  0.0894  0.2349  0.6364
   26DOPE   C25 3267   0.638   6.010   6.434  0.1644 -0.1310  0.3691
   26DOPE   H5R 3268   0.561   5.930   6.438 -1.4206  1.1324 -2.0915
   26DOPE   H5S 3269   0.728   5.953   6.405 -0.5192 -2.9679  3.3061
   26DOPE   C26 3270   0.597   6.115   6.332 -0.5045 -0.0834  0.6170
   26DOPE   H6R 3271   0.677   6.192   6.333 -1.5305  1.0038  1.9049
   26DOPE   H6S 3272   0.502   6.166   6.360 -0.5763 -0.1461  0.4863
   26DOPE   C27 3273   0.588   6.060   6.188 -0.3876  0.2820  0.0743
   26DOPE   H7R 3274   0.488   6.012   6.183 -0.2669 -0.1827  1.5279
   26DOPE   H7S 3275   0.668   5.985   6.169 -1.2222 -0.7255  0.4138
   26DOPE   C28 3276   0.590   6.173   6.079 -0.1171 -0.1748 -0.5606
   26DOPE   H8R 3277   0.677   6.234   6.111 -0.0883 -0.7607  0.5503
   26DOPE   H8S 3278   0.514   6.248   6.111  1.4507  1.7648 -1.1544
   26DOPE   C29 3279   0.580   6.136   5.938 -0.0278 -0.3142 -0.6047
   26DOPE   H9R 3280   0.527   6.040   5.925  1.1663 -1.3437  1.5356
   26DOPE  C210 3281   0.651   6.181   5.827  0.0076 -0.3074  0.2925
   26DOPE  H10R 3282   0.631   6.143   5.726  0.6598  0.8936 -0.3026
   26DOPE  C211 3283   0.760   6.293   5.836  0.4584  0.2261  0.2615
   26DOPE  H11R 3284   0.783   6.331   5.937  3.6309  0.6285 -0.5004
   26DOPE  H11S 3285   0.726   6.383   5.780 -1.2613 -0.3572  0.3117
   26DOPE  C212 3286   0.894   6.258   5.773 -0.4423  0.5955  0.3899
   26DOPE  H12R 3287   0.942   6.350   5.733  0.8978 -0.0824  0.3778
   26DOPE  H12S 3288   0.886   6.190   5.685 -0.1117  0.1848  0.6740
   26DOPE  C213 3289   0.985   6.176   5.874  0.5046  0.5846 -0.0555
   26DOPE  H13R 3290   1.083   6.151   5.828  1.2984  1.6668  0.9859
   26DOPE  H13S 3291   0.938   6.076   5.885  1.3972  0.1164 -0.4039
   26DOPE  C214 3292   0.997   6.239   6.017 -0.5016 -0.4752  0.3757
   26DOPE  H14R 3293   0.899   6.222   6.068 -0.0535 -1.5471  0.9160
   26DOPE  H14S 3294   1.025   6.346   6.019 -1.0467 -0.3342  1.1986
   26DOPE  C215 3295   1.099   6.171   6.113  0.2568 -0.6322  0.3600
   26DOPE  H15R 3296   1.115   6.243   6.196 -1.7162  0.2836  0.0139
   26DOPE  H15S 3297   1.193   6.147   6.058 -1.0919 -0.9658 -1.8973
   26DOPE  C216 3298   1.040   6.051   6.179  0.4293  0.3371  0.6235
   26DOPE  H16R 3299   0.998   5.972   6.113 -1.8616  1.3348  0.8233
   26DOPE  H16S 3300   0.954   6.078   6.243 -0.9127  1.7590 -1.6613
   26DOPE  C217 3301   1.154   5.993   6.267  0.1306 -0.2467  0.2016
   26DOPE  H17R 3302   1.197   6.079   6.322  3.2238 -2.2816  1.2657
   26DOPE  H17S 3303   1.232   5.950   6.200 -0.0490  0.4155 -0.4368
   26DOPE  C218 3304   1.099   5.885   6.361 -0.9980  0.3524  0.1700
   26DOPE  H18R 3305   1.030   5.925   6.438 -0.5766 -1.3652  1.4897
   26DOPE  H18S 3306   1.189   5.842   6.410  0.7363  1.2347 -2.0745
   26DOPE  H18T 3307   1.047   5.805   6.304  0.6601  1.5016 -3.2328
   26DOPE   C33 3308   0.944   6.486   6.452 -0.3965  0.2518  0.0570
   26DOPE   H3X 3309   1.038   6.541   6.430 -0.4873  0.1429 -0.6244
   26DOPE   H3Y 3310   0.923   6.510   6.559  1.4649 -0.2031  0.5618
   26DOPE   C34 3311   0.824   6.543   6.365 -0.2518 -0.2971 -0.2709
   26DOPE   H4X 3312   0.758   6.454   6.364  1.2624 -1.4673  0.6911
   26DOPE   H4Y 3313   0.775   6.624   6.424  1.7074  0.8236 -0.1031
   26DOPE   C35 3314   0.872   6.579   6.224 -0.0274  0.1421  0.4318
   26DOPE   H5X 3315   0.947   6.505   6.189 -0.7796  0.2463 -1.5194
   26DOPE   H5Y 3316   0.928   6.673   6.243 -0.9309  0.6724  0.5210
   26DOPE   C36 3317   0.753   6.599   6.134 -0.4515 -0.1651  0.1654
   26DOPE   H6X 3318   0.656   6.568   6.177 -1.9844  2.5309 -1.1298
   26DOPE   H6Y 3319   0.767   6.553   6.034 -5.1478 -0.5050 -0.5505
   26DOPE   C37 3320   0.723   6.744   6.090  0.1055  0.3023  0.0300
   26DOPE   H7X 3321   0.704   6.808   6.179  0.6487 -0.7762  0.9514
   26DOPE   H7Y 3322   0.813   6.782   6.037  0.1065  0.2299 -0.0202
   26DOPE   C38 3323   0.602   6.760   6.000 -0.1764 -0.1943  0.5647
   26DOPE   H8X 3324   0.516   6.738   6.067 -0.1644 -1.8945  0.0733
   26DOPE   H8Y 3325   0.598   6.685   5.918  2.1915  0.8057 -0.5532
   26DOPE   C39 3326   0.597   6.904   5.952 -0.0745  0.2645  0.6587
   26DOPE   H9X 3327   0.611   6.974   6.036  2.1797  1.0665 -0.3136
   26DOPE  C310 3328   0.559   6.948   5.834  0.1812 -0.5546 -0.9438
   26DOPE  H10X 3329   0.558   7.056   5.810  0.8373 -0.2442  0.3409
   26DOPE  C311 3330   0.513   6.863   5.722 -0.1221 -0.1120  0.4410
   26DOPE  H11X 3331   0.571   6.770   5.705 -3.5276 -2.0259 -2.1333
   26DOPE  H11Y 3332   0.406   6.839   5.739 -0.0844 -0.3043  0.4081
   26DOPE  C312 3333   0.530   6.948   5.583 -0.0448 -0.1389  0.1842
   26DOPE  H12X 3334   0.638   6.964   5.562  0.0534  0.4883  1.1083
   26DOPE  H12Y 3335   0.476   7.044   5.597  1.6439  0.6315  1.9438
   26DOPE  C313 3336   0.475   6.871   5.463 -0.9052 -0.1462 -0.8330
   26DOPE  H13X 3337   0.539   6.782   5.449 -0.7180 -0.5187  1.9428
   26DOPE  H13Y 3338   0.374   6.827   5.480  0.1312 -1.5690  2.1239
   26DOPE  C314 3339   0.456   6.957   5.341  0.0485 -0.4262  0.2207
   26DOPE  H14X 3340   0.552   7.001   5.305 -1.9990  1.3116 -3.7903
   26DOPE  H14Y 3341   0.397   7.048   5.368 -1.2429 -0.4943 -2.1041
   26DOPE  C315 3342   0.392   6.882   5.228  0.6337 -0.4199  0.0223
   26DOPE  H15X 3343   0.289   6.847   5.254 -0.0166  0.7884 -0.8203
   26DOPE  H15Y 3344   0.464   6.798   5.213  2.3779  0.7742  1.3332
   26DOPE  C316 3345   0.390   6.972   5.098 -0.2070  0.5799  0.4508
   26DOPE  H16X 3346   0.416   6.912   5.008 -0.0301 -1.1305  1.6111
   26DOPE  H16Y 3347   0.464   7.054   5.117 -0.1939  0.1799  2.3333
   26DOPE  C317 3348   0.246   7.027   5.066 -0.6965 -0.1148  0.0353
   26DOPE  H17X 3349   0.177   6.940   5.061 -0.8844 -0.4244  4.4030
   26DOPE  H17Y 3350   0.228   7.086   5.158  0.0319 -0.7421  0.5911
   26DOPE  C318 3351   0.240   7.111   4.945  0.6403 -0.0645 -0.2577
   26DOPE  H18X 3352   0.290   7.056   4.863  0.3502 -0.1908 -0.3492
   26DOPE  H18Y 3353   0.135   7.135   4.920  0.0053 -3.5164 -1.4641
   26DOPE  H18Z 3354   0.291   7.207   4.967  0.8933 -0.1777 -0.3485
   27DOPE     N 3355   5.229   0.058   6.715  0.5644  0.5568 -0.0534
   27DOPE   HN1 3356   5.304   0.054   6.642  0.0861 -0.9384 -0.4891
   27DOPE   HN2 3357   5.267   0.091   6.806 -0.2457  3.6436 -0.7068
   27DOPE   HN3 3358   5.194  -0.040   6.721  1.3739  0.2926  0.5605
   27DOPE   C12 3359   5.117   0.148   6.673 -0.2143  0.4453  0.5322
   27DOPE  H12A 3360   5.024   0.130   6.730 -0.1638  0.6103  0.6719
   27DOPE  H12B 3361   5.093   0.125   6.567 -0.7495  0.3397  0.6731
   27DOPE   C11 3362   5.172   0.297   6.686 -0.6486 -0.4198 -0.2933
   27DOPE  H11A 3363   5.199   0.313   6.793 -0.7247 -0.8127 -0.2114
   27DOPE  H11B 3364   5.089   0.368   6.666  1.6522  2.4962 -0.2460
   27DOPE     P 3365   5.279   0.430   6.480  0.3579  0.0410 -0.2084
   27DOPE   O13 3366   5.349   0.548   6.531  0.0239 -0.0964  0.2805
   27DOPE   O14 3367   5.138   0.444   6.437  0.1564 -0.0843  0.2414
   27DOPE   O11 3368   5.366   0.366   6.364 -0.2228 -0.1365 -0.2025
   27DOPE   O12 3369   5.275   0.319   6.592 -0.4605 -0.0636  0.5111
   27DOPE    C1 3370   5.404   0.229   6.365  0.3562  0.1066  0.4656
   27DOPE    HA 3371   5.336   0.163   6.422 -1.0243  0.4291 -0.7257
   27DOPE    HB 3372   5.499   0.222   6.421  0.4209 -1.2514  0.2228
   27DOPE    C2 3373   5.411   0.184   6.221  0.3208  0.4510 -0.5062
   27DOPE    HS 3374   5.445   0.078   6.220  0.3697  0.4250  0.8810
   27DOPE   O21 3375   5.506   0.257   6.148  0.5497  0.3154  0.2399
   27DOPE   C21 3376   5.630   0.212   6.148  0.4257  0.3382 -0.7498
   27DOPE   O22 3377   5.676   0.129   6.221 -0.0148 -0.1700 -0.1713
   27DOPE   C22 3378   5.708   0.283   6.046  0.9472 -0.4532 -0.0045
   27DOPE   H2R 3379   5.765   0.362   6.098  2.1722 -0.1828 -1.6640
   27DOPE   H2S 3380   5.634   0.317   5.971 -2.4822 -1.1097  2.8378
   27DOPE    C3 3381   5.275   0.200   6.144 -0.1735  0.1111  0.5910
   27DOPE    HX 3382   5.259   0.307   6.120  3.1881  0.5486 -0.1860
   27DOPE    HY 3383   5.193   0.175   6.214  0.5478 -3.2895  0.4061
   27DOPE   O31 3384   5.271   0.120   6.027  0.3239  0.4389  0.0170
   27DOPE   C31 3385   5.243  -0.006   6.033  0.5341  0.0548 -0.5678
   27DOPE   O32 3386   5.231  -0.066   6.139  0.5129 -0.2168 -0.2000
   27DOPE   C32 3387   5.225  -0.074   5.896 -0.3207  0.3452 -0.3915
   27DOPE   H2X 3388   5.132  -0.029   5.855 -0.8710  0.2394  0.7196
   27DOPE   H2Y 3389   5.318  -0.051   5.838  1.2796 -1.3545  1.3701
   27DOPE   C23 3390   5.809   0.194   5.970  0.1329  0.5233 -0.1380
   27DOPE   H3R 3391   5.863   0.131   6.044  2.1401 -0.0113 -1.9323
   27DOPE   H3S 3392   5.892   0.259   5.932 -0.8402  0.7712 -1.9925
   27DOPE   C24 3393   5.760   0.123   5.842  0.5093 -0.2544 -0.4773
   27DOPE   H4R 3394   5.849   0.078   5.793  1.2337  0.0495  0.5255
   27DOPE   H4S 3395   5.721   0.193   5.764  0.7220  0.2607 -0.1235
   27DOPE   C25 3396   5.647   0.016   5.866  0.4424  0.0181 -0.1586
   27DOPE   H5R 3397   5.547   0.063   5.880  0.7277  0.6959 -0.3559
   27DOPE   H5S 3398   5.665  -0.036   5.962 -1.0848  1.6844  1.1195
   27DOPE   C26 3399   5.640  -0.075   5.747  0.2520 -0.6620 -0.2087
   27DOPE   H6R 3400   5.577  -0.163   5.771 -1.2565  0.5521  0.4422
   27DOPE   H6S 3401   5.737  -0.115   5.711 -0.8194 -2.6961 -1.0011
   27DOPE   C27 3402   5.569  -0.011   5.624 -0.0651 -0.0335 -0.3806
   27DOPE   H7R 3403   5.638   0.066   5.583  0.5337 -0.7248 -0.6977
   27DOPE   H7S 3404   5.481   0.052   5.652 -0.9384 -0.3974 -2.1862
   27DOPE   C28 3405   5.550  -0.118   5.517 -0.3734 -0.1960 -0.0593
   27DOPE   H8R 3406   5.478  -0.190   5.561 -0.7771  1.3297  1.9011
   27DOPE   H8S 3407   5.644  -0.174   5.496 -0.1269 -0.0045  0.5071
   27DOPE   C29 3408   5.503  -0.055   5.390 -0.8674 -0.6780  0.2851
   27DOPE   H9R 3409   5.582   0.005   5.342 -1.4367 -0.7087 -0.7126
   27DOPE  C210 3410   5.378  -0.071   5.336 -0.2326  0.5272 -1.3265
   27DOPE  H10R 3411   5.361  -0.018   5.241  0.2868  2.7268 -0.2545
   27DOPE  C211 3412   5.269  -0.154   5.388  0.9097 -0.1647 -0.6597
   27DOPE  H11R 3413   5.171  -0.104   5.374  0.8659  0.0841  0.3997
   27DOPE  H11S 3414   5.276  -0.165   5.499 -3.9270 -0.3231 -0.1815
   27DOPE  C212 3415   5.262  -0.299   5.317  0.5577 -0.0132 -0.1139
   27DOPE  H12R 3416   5.195  -0.364   5.378 -0.5450  1.5298  0.3757
   27DOPE  H12S 3417   5.363  -0.345   5.326  1.0342  1.2422  1.3258
   27DOPE  C213 3418   5.194  -0.300   5.190  0.9129  0.3183  0.5565
   27DOPE  H13R 3419   5.262  -0.264   5.109 -0.0935 -3.1546 -2.0756
   27DOPE  H13S 3420   5.118  -0.219   5.185  1.2442  0.5584 -2.2430
   27DOPE  C214 3421   5.144  -0.433   5.150  0.8148  0.0872  0.0042
   27DOPE  H14R 3422   5.071  -0.459   5.229  1.7095 -0.7858  0.5605
   27DOPE  H14S 3423   5.221  -0.511   5.168 -0.3263 -0.8593  0.9776
   27DOPE  C215 3424   5.092  -0.449   5.009 -0.4512  0.5792  0.0941
   27DOPE  H15R 3425   5.001  -0.385   5.000 -0.7225  0.2484  0.4719
   27DOPE  H15S 3426   5.059  -0.553   4.990 -0.2119  0.4540  0.3434
   27DOPE  C216 3427   5.189  -0.418   4.888 -0.1515  0.0742  0.0864
   27DOPE  H16R 3428   5.208  -0.511   4.830 -2.5464 -0.8240  0.6348
   27DOPE  H16S 3429   5.285  -0.369   4.915 -0.5269 -0.2078  2.1039
   27DOPE  C217 3430   5.118  -0.308   4.801  0.4091  0.0132 -0.1540
   27DOPE  H17R 3431   5.131  -0.212   4.854  2.0868 -1.0087  1.4108
   27DOPE  H17S 3432   5.009  -0.334   4.802  0.3781  0.1331 -0.3564
   27DOPE  C218 3433   5.183  -0.293   4.656 -0.6019 -0.0312  0.0856
   27DOPE  H18R 3434   5.288  -0.257   4.668 -0.6851  0.4520 -0.5473
   27DOPE  H18S 3435   5.130  -0.221   4.590  0.6025  0.8946  0.0870
   27DOPE  H18T 3436   5.192  -0.395   4.612  2.1921 -0.4602  1.3865
   27DOPE   C33 3437   5.204  -0.226   5.905  0.5861 -1.1858 -0.0642
   27DOPE   H3X 3438   5.111  -0.246   5.963  0.5010  1.3243  0.7910
   27DOPE   H3Y 3439   5.289  -0.260   5.969  0.0313 -2.1058  0.2030
   27DOPE   C34 3440   5.200  -0.294   5.770 -0.0215 -0.2352  0.6821
   27DOPE   H4X 3441   5.114  -0.265   5.707 -0.0455 -1.0199  0.3381
   27DOPE   H4Y 3442   5.295  -0.281   5.716  0.4119 -2.4159  0.8191
   27DOPE   C35 3443   5.196  -0.451   5.781 -0.1219  0.8123 -0.0206
   27DOPE   H5X 3444   5.136  -0.491   5.865  1.3471  1.2068  1.2707
   27DOPE   H5Y 3445   5.300  -0.480   5.807 -1.0735  0.4782  4.0532
   27DOPE   C36 3446   5.167  -0.516   5.642 -0.0195 -0.5046  0.0563
   27DOPE   H6X 3447   5.243  -0.479   5.570 -1.2584 -0.4891 -1.2778
   27DOPE   H6Y 3448   5.068  -0.481   5.609  0.8006 -0.3670 -2.4514
   27DOPE   C37 3449   5.175  -0.670   5.634  0.1367  0.3430 -0.3727
   27DOPE   H7X 3450   5.278  -0.711   5.635 -0.2167 -0.5527 -0.0046
   27DOPE   H7Y 3451   5.134  -0.713   5.727  1.4872 -3.0586 -1.2057
   27DOPE   C38 3452   5.091  -0.730   5.522 -0.0875  0.5081 -0.1916
   27DOPE   H8X 3453   4.989  -0.688   5.513 -0.1852  0.2872 -0.1217
   27DOPE   H8Y 3454   5.085  -0.839   5.541  3.4544  0.1191 -0.7069
   27DOPE   C39 3455   5.164  -0.698   5.392  0.5690  0.2647 -0.3600
   27DOPE   H9X 3456   5.210  -0.599   5.374  0.8824  0.8554  3.0183
   27DOPE  C310 3457   5.145  -0.784   5.281 -0.1353 -0.3736  0.7034
   27DOPE  H10X 3458   5.201  -0.768   5.188  0.6526  0.2690  1.2685
   27DOPE  C311 3459   5.068  -0.911   5.280 -0.1581  0.1975 -0.2468
   27DOPE  H11X 3460   5.005  -0.926   5.370  1.7181 -0.5125  0.9950
   27DOPE  H11Y 3461   5.005  -0.903   5.188 -0.1302  1.0952 -0.1894
   27DOPE  C312 3462   5.164  -1.032   5.282  0.0659 -0.5136  0.2493
   27DOPE  H12X 3463   5.205  -1.036   5.385 -0.8576 -0.5614  0.6241
   27DOPE  H12Y 3464   5.255  -1.017   5.220 -0.5275  2.9661  0.0409
   27DOPE  C313 3465   5.095  -1.168   5.263 -0.0383  0.1497 -0.9289
   27DOPE  H13X 3466   5.052  -1.195   5.361  0.8942  1.4532 -0.1296
   27DOPE  H13Y 3467   5.006  -1.170   5.197 -1.1316 -0.9068  0.5205
   27DOPE  C314 3468   5.197  -1.279   5.220 -0.3598 -0.6340  0.5169
   27DOPE  H14X 3469   5.146  -1.370   5.259 -3.1256 -0.0119 -1.3320
   27DOPE  H14Y 3470   5.294  -1.254   5.267 -0.8347 -1.1067  1.8045
   27DOPE  C315 3471   5.205  -1.299   5.068 -0.4623 -0.1815 -0.1338
   27DOPE  H15X 3472   5.254  -1.215   5.015 -2.2382 -0.1000 -1.7520
   27DOPE  H15Y 3473   5.105  -1.306   5.020  0.0578 -1.4071 -1.0894
   27DOPE  C316 3474   5.279  -1.431   5.032  0.2857  0.1418  0.6119
   27DOPE  H16X 3475   5.264  -1.441   4.922 -0.4235 -0.0459  0.7202
   27DOPE  H16Y 3476   5.223  -1.516   5.076  0.5556 -0.6665 -0.5731
   27DOPE  C317 3477   5.422  -1.439   5.079  0.0395 -0.1781  0.1207
   27DOPE  H17X 3478   5.489  -1.364   5.032 -1.5505  0.6403 -0.9517
   27DOPE  H17Y 3479   5.428  -1.429   5.189  0.7963 -3.3750  0.4728
   27DOPE  C318 3480   5.478  -1.581   5.036 -0.0750 -0.5280  0.3961
   27DOPE  H18X 3481   5.460  -1.593   4.927 -2.0721 -0.4168  0.6876
   27DOPE  H18Y 3482   5.588  -1.597   5.040 -0.1624 -2.8597 -2.7513
   27DOPE  H18Z 3483   5.430  -1.666   5.089 -0.1682 -0.7264 -0.0016
   28DOPE     N 3484   6.531   6.289   7.245 -0.2667 -0.1826 -0.4068
   28DOPE   HN1 3485   6.591   6.214   7.284  0.4331  1.0181  0.9429
   28DOPE   HN2 3486   6.551   6.379   7.293  2.8498 -0.9807  0.0326
   28DOPE   HN3 3487   6.430   6.272   7.263 -0.3620 -0.1154 -0.8662
   28DOPE   C12 3488   6.586   6.300   7.107 -0.1520  0.4271  0.1507
   28DOPE  H12A 3489   6.510   6.364   7.056 -0.6291 -0.1734  0.0873
   28DOPE  H12B 3490   6.605   6.196   7.074  2.9173  1.6941 -2.6150
   28DOPE   C11 3491   6.713   6.375   7.101 -0.1133 -0.5011 -0.4983
   28DOPE  H11A 3492   6.705   6.474   7.151 -0.9125 -1.5484  1.5944
   28DOPE  H11B 3493   6.742   6.384   6.994  1.6137  0.2005 -0.0124
   28DOPE     P 3494   6.919   6.353   7.263  0.2229  0.4522 -0.0463
   28DOPE   O13 3495   7.030   6.252   7.277  0.5747 -0.3023  1.3116
   28DOPE   O14 3496   6.862   6.390   7.394 -0.0631 -0.1489 -0.4630
   28DOPE   O11 3497   6.978   6.476   7.189  0.0734  0.1975  0.3070
   28DOPE   O12 3498   6.812   6.298   7.161  0.0449  0.8329  0.1940
   28DOPE    C1 3499   7.101   6.479   7.124 -0.4801 -0.6005  0.5970
   28DOPE    HA 3500   7.187   6.430   7.176  1.2053  2.2114  0.6948
   28DOPE    HB 3501   7.148   6.580   7.123  1.4478 -1.4396 -0.1764
   28DOPE    C2 3502   7.111   6.430   6.976  0.3115 -0.0020 -0.6884
   28DOPE    HS 3503   7.203   6.481   6.940 -0.0344  1.4769  0.3727
   28DOPE   O21 3504   6.992   6.468   6.907 -0.0206  0.2205  0.8810
   28DOPE   C21 3505   6.978   6.596   6.887  0.0770  0.4005  0.0044
   28DOPE   O22 3506   7.060   6.685   6.912  0.4416 -0.4248  0.2896
   28DOPE   C22 3507   6.847   6.610   6.815 -0.5497 -0.0386  0.3358
   28DOPE   H2R 3508   6.773   6.653   6.886 -0.7789  1.8665 -0.9646
   28DOPE   H2S 3509   6.817   6.515   6.766 -0.2767 -0.0447  0.1816
   28DOPE    C3 3510   7.129   6.272   6.972  0.2776  0.3081 -0.8261
   28DOPE    HX 3511   7.040   6.234   7.026  0.4775 -0.1153 -0.7882
   28DOPE    HY 3512   7.218   6.250   7.035 -0.0961  1.8319  0.2788
   28DOPE   O31 3513   7.133   6.212   6.839 -0.3572  0.3574  0.0095
   28DOPE   C31 3514   7.245   6.244   6.774 -0.8119 -0.0196 -0.1208
   28DOPE   O32 3515   7.336   6.314   6.824 -0.5176 -0.0415 -0.0024
   28DOPE   C32 3516   7.252   6.185   6.637 -0.3467 -0.0179  0.7187
   28DOPE   H2X 3517   7.349   6.133   6.629 -1.2443 -2.1523  2.6760
   28DOPE   H2Y 3518   7.175   6.106   6.626 -0.1078 -0.4791  2.1410
   28DOPE   C23 3519   6.853   6.728   6.712 -0.4033  0.1039  0.1582
   28DOPE   H3R 3520   6.927   6.709   6.632 -1.4027 -1.6265 -0.3974
   28DOPE   H3S 3521   6.869   6.821   6.771  3.5988  0.3708 -1.0526
   28DOPE   C24 3522   6.716   6.732   6.639 -0.5767 -0.3082  0.5196
   28DOPE   H4R 3523   6.689   6.632   6.599  0.9589 -0.9265  0.9507
   28DOPE   H4S 3524   6.725   6.793   6.546 -0.6347 -0.6571  0.2827
   28DOPE   C25 3525   6.596   6.786   6.728 -0.2061  0.1208 -0.1099
   28DOPE   H5R 3526   6.623   6.859   6.807  0.2091  0.6149 -0.6985
   28DOPE   H5S 3527   6.554   6.700   6.785 -0.2635  0.7819  0.8670
   28DOPE   C26 3528   6.477   6.851   6.652  0.1313  0.0549  0.1080
   28DOPE   H6R 3529   6.472   6.801   6.553 -0.1521  0.6038 -0.1605
   28DOPE   H6S 3530   6.510   6.955   6.634 -0.6596  0.4896  1.0955
   28DOPE   C27 3531   6.338   6.849   6.725  0.0674 -0.1011 -0.4594
   28DOPE   H7R 3532   6.339   6.911   6.817 -4.0177 -0.5035  0.0050
   28DOPE   H7S 3533   6.336   6.747   6.769 -1.5044 -0.0195 -0.3037
   28DOPE   C28 3534   6.215   6.873   6.635 -0.2205  0.3193 -1.0398
   28DOPE   H8R 3535   6.129   6.819   6.682 -0.2719 -0.0624 -1.5648
   28DOPE   H8S 3536   6.236   6.810   6.546  0.3305 -0.9550 -0.0556
   28DOPE   C29 3537   6.187   7.019   6.618  0.3713  0.1950  0.5218
   28DOPE   H9R 3538   6.128   7.073   6.693  0.9983  2.3614 -0.4523
   28DOPE  C210 3539   6.231   7.083   6.508 -0.2403  0.8269 -0.8020
   28DOPE  H10R 3540   6.220   7.192   6.513 -0.6858  0.7328  3.7178
   28DOPE  C211 3541   6.310   7.034   6.390  0.5688 -0.1895  0.2392
   28DOPE  H11R 3542   6.319   6.924   6.391  1.8051 -0.1579 -1.9268
   28DOPE  H11S 3543   6.414   7.071   6.392  0.5532 -0.1481  0.2858
   28DOPE  C212 3544   6.229   7.065   6.263 -0.8037  0.3119 -0.2142
   28DOPE  H12R 3545   6.219   7.174   6.246  2.2709  0.6648 -0.4861
   28DOPE  H12S 3546   6.136   7.012   6.291 -0.1180  0.0398  1.7269
   28DOPE  C213 3547   6.293   6.983   6.144  0.5395 -0.2000 -0.0991
   28DOPE  H13R 3548   6.269   6.875   6.146 -0.5750  0.0445  1.1908
   28DOPE  H13S 3549   6.403   6.991   6.149  0.6053 -1.5528  1.3785
   28DOPE  C214 3550   6.256   7.031   6.002 -0.0903 -0.1444  0.8392
   28DOPE  H14R 3551   6.274   7.140   5.987  2.2664 -0.2919  2.1906
   28DOPE  H14S 3552   6.147   7.018   5.983 -0.0787  0.0965  0.5822
   28DOPE  C215 3553   6.329   6.960   5.892  0.5858 -0.3305 -1.6555
   28DOPE  H15R 3554   6.286   6.858   5.893  1.7524 -0.8443 -1.4063
   28DOPE  H15S 3555   6.436   6.953   5.922  0.5200  1.1371 -0.9628
   28DOPE  C216 3556   6.313   7.025   5.755  0.1213  0.1689  0.1366
   28DOPE  H16R 3557   6.323   7.134   5.772 -0.0234  0.0402  1.1695
   28DOPE  H16S 3558   6.216   7.011   5.702  1.1640 -0.8925 -1.5625
   28DOPE  C217 3559   6.431   6.983   5.660  0.8455  0.3507 -0.0243
   28DOPE  H17R 3560   6.518   6.983   5.730  1.2065 -2.2725 -0.3687
   28DOPE  H17S 3561   6.444   7.053   5.575  2.4472  3.4410  2.5362
   28DOPE  C218 3562   6.407   6.843   5.602 -0.4437 -0.0674  0.1469
   28DOPE  H18R 3563   6.500   6.796   5.563  1.2332  2.1291  1.2542
   28DOPE  H18S 3564   6.343   6.840   5.511 -1.2821 -2.3174  0.7475
   28DOPE  H18T 3565   6.368   6.781   5.686  0.8127  0.3239  1.0433
   28DOPE   C33 3566   7.232   6.274   6.507  0.2119 -0.1884 -0.3155
   28DOPE   H3X 3567   7.252   6.208   6.420 -1.0144 -3.1374  1.4539
   28DOPE   H3Y 3568   7.305   6.357   6.509  3.4434 -2.7725  3.2111
   28DOPE   C34 3569   7.094   6.331   6.501 -0.0020  0.4712 -0.2100
   28DOPE   H4X 3570   7.024   6.246   6.486 -1.0756  1.3306 -0.1736
   28DOPE   H4Y 3571   7.059   6.373   6.598 -0.7104 -1.1249  0.2600
   28DOPE   C35 3572   7.072   6.439   6.397  0.0910 -0.1097 -0.0646
   28DOPE   H5X 3573   7.116   6.402   6.302  0.5556 -1.1643  0.5460
   28DOPE   H5Y 3574   7.122   6.530   6.437 -1.0294 -0.3110  1.9357
   28DOPE   C36 3575   6.922   6.473   6.362  0.5418 -0.5393  0.4799
   28DOPE   H6X 3576   6.867   6.504   6.454  0.1437  0.1371  0.0293
   28DOPE   H6Y 3577   6.885   6.380   6.314  1.8863  0.1137 -1.9839
   28DOPE   C37 3578   6.904   6.590   6.266 -0.3882 -0.5060 -0.0523
   28DOPE   H7X 3579   6.898   6.689   6.315 -1.0858 -0.1995 -0.7319
   28DOPE   H7Y 3580   6.998   6.593   6.207 -0.9708 -0.6903 -1.0214
   28DOPE   C38 3581   6.780   6.589   6.171  0.5409  0.8152  0.2602
   28DOPE   H8X 3582   6.768   6.690   6.128 -1.1765  0.1744 -0.8712
   28DOPE   H8Y 3583   6.683   6.587   6.225  0.7205  1.3358  0.6028
   28DOPE   C39 3584   6.770   6.482   6.072  0.4476 -0.6073  0.2323
   28DOPE   H9X 3585   6.767   6.377   6.104 -0.6691 -0.4095  0.8293
   28DOPE  C310 3586   6.766   6.506   5.943 -0.0299  0.1468 -0.5189
   28DOPE  H10X 3587   6.749   6.420   5.877 -2.9564 -0.8284  1.3233
   28DOPE  C311 3588   6.771   6.634   5.870 -0.0437 -0.1730  0.4048
   28DOPE  H11X 3589   6.731   6.726   5.917  2.8025  1.6899 -0.4894
   28DOPE  H11Y 3590   6.874   6.673   5.849 -1.5257  3.3997 -1.0818
   28DOPE  C312 3591   6.697   6.635   5.735  0.4517 -0.0378 -0.5892
   28DOPE  H12X 3592   6.728   6.729   5.684 -1.1467  0.3883 -0.8364
   28DOPE  H12Y 3593   6.586   6.641   5.744  0.6718  1.8097  2.0031
   28DOPE  C313 3594   6.753   6.532   5.636 -0.1782 -0.0482  0.3312
   28DOPE  H13X 3595   6.864   6.539   5.640  0.0396 -1.3659 -1.8690
   28DOPE  H13Y 3596   6.723   6.432   5.674  0.4820  0.1265  1.3469
   28DOPE  C314 3597   6.698   6.552   5.488 -0.7033 -0.0946 -0.1836
   28DOPE  H14X 3598   6.752   6.644   5.456 -0.1804  0.3995  1.9693
   28DOPE  H14Y 3599   6.589   6.569   5.502 -1.1766 -3.2068  0.5703
   28DOPE  C315 3600   6.725   6.439   5.384  0.2890 -0.0433  0.0755
   28DOPE  H15X 3601   6.666   6.350   5.415  1.2088 -0.4831  0.6072
   28DOPE  H15Y 3602   6.834   6.420   5.373 -0.0525 -1.0369 -2.0082
   28DOPE  C316 3603   6.676   6.481   5.239 -0.2718  0.4284 -0.7742
   28DOPE  H16X 3604   6.738   6.564   5.199  2.1613 -1.5654 -1.4353
   28DOPE  H16Y 3605   6.569   6.509   5.248 -0.5893 -1.0563  0.3932
   28DOPE  C317 3606   6.677   6.358   5.149  0.5600 -0.2571 -0.1323
   28DOPE  H17X 3607   6.636   6.269   5.201  2.7155 -1.2676 -0.0283
   28DOPE  H17Y 3608   6.607   6.383   5.066 -1.6819  1.5799  2.1590
   28DOPE  C318 3609   6.810   6.303   5.105  0.0650  0.4042  0.0334
   28DOPE  H18X 3610   6.883   6.375   5.062  0.6740 -2.3019 -3.9882
   28DOPE  H18Y 3611   6.863   6.250   5.187 -0.5636  0.2667  0.3555
   28DOPE  H18Z 3612   6.805   6.236   5.017 -0.7040 -2.2251  1.9839
   29DOPE     N 3613   6.695   0.667   6.942  0.1930 -0.3472  0.0368
   29DOPE   HN1 3614   6.717   0.635   7.038  1.1864  0.5287  0.1189
   29DOPE   HN2 3615   6.778   0.703   6.891  0.0567  1.0687  0.7417
   29DOPE   HN3 3616   6.640   0.755   6.949  0.1422 -0.3000 -0.8041
   29DOPE   C12 3617   6.616   0.562   6.873 -0.2677  0.6078  0.9724
   29DOPE  H12A 3618   6.594   0.600   6.771 -2.6599 -0.3091  1.0833
   29DOPE  H12B 3619   6.522   0.553   6.931 -0.3908  2.0451  1.0242
   29DOPE   C11 3620   6.700   0.422   6.866  0.1404  0.5947  0.2824
   29DOPE  H11A 3621   6.797   0.441   6.815 -1.3351  0.8659 -2.5860
   29DOPE  H11B 3622   6.659   0.355   6.788 -0.7410 -0.8526  1.9279
   29DOPE     P 3623   6.582   0.275   7.058 -0.1954  0.1211  0.2503
   29DOPE   O13 3624   6.474   0.371   7.087 -0.0977  0.4932  0.0091
   29DOPE   O14 3625   6.628   0.182   7.165 -0.2085 -0.5497 -0.1383
   29DOPE   O11 3626   6.528   0.193   6.938  0.8056  0.1835  0.1949
   29DOPE   O12 3627   6.707   0.353   6.989  0.4385  0.9650 -0.4621
   29DOPE    C1 3628   6.519   0.052   6.916  0.1148  0.3896 -0.2730
   29DOPE    HA 3629   6.480   0.025   6.816  1.2547 -0.0978 -0.6011
   29DOPE    HB 3630   6.455   0.012   6.998  0.3940  0.7097  0.1109
   29DOPE    C2 3631   6.661  -0.019   6.919  0.0499 -0.1362 -0.3551
   29DOPE    HS 3632   6.705   0.006   7.018  0.5327  1.4391 -0.9379
   29DOPE   O21 3633   6.735   0.037   6.811  0.0454  0.5025  0.2662
   29DOPE   C21 3634   6.866   0.052   6.830 -0.2080 -0.5013 -0.6902
   29DOPE   O22 3635   6.926   0.043   6.938 -0.0101  0.2855 -0.2673
   29DOPE   C22 3636   6.936   0.099   6.701 -0.0748 -0.2513 -0.1685
   29DOPE   H2R 3637   6.879   0.184   6.657 -2.0382 -0.8203  1.1255
   29DOPE   H2S 3638   6.930   0.014   6.630 -1.4567 -1.5423  1.4258
   29DOPE    C3 3639   6.645  -0.172   6.896  0.3295 -0.3844  0.3970
   29DOPE    HX 3640   6.587  -0.206   6.984  1.3178  0.0357  1.2352
   29DOPE    HY 3641   6.741  -0.227   6.900  1.2378  0.7738 -2.5101
   29DOPE   O31 3642   6.579  -0.195   6.765 -0.2001 -0.3405  0.6351
   29DOPE   C31 3643   6.646  -0.202   6.656  0.3008 -1.1163  0.3827
   29DOPE   O32 3644   6.771  -0.197   6.639 -0.0447  0.0178 -0.2232
   29DOPE   C32 3645   6.558  -0.208   6.531 -0.5547 -0.1151 -0.1561
   29DOPE   H2X 3646   6.533  -0.316   6.517 -1.8435 -0.0707  1.4747
   29DOPE   H2Y 3647   6.463  -0.158   6.561 -1.2141  0.2794 -2.6445
   29DOPE   C23 3648   7.078   0.148   6.727 -0.1774 -0.0368 -0.2846
   29DOPE   H3R 3649   7.120   0.066   6.790  1.5724  0.1805 -1.1154
   29DOPE   H3S 3650   7.073   0.237   6.794 -0.2503 -0.1703 -0.1122
   29DOPE   C24 3651   7.170   0.172   6.606 -0.4119  0.1485 -0.2690
   29DOPE   H4R 3652   7.136   0.232   6.519 -1.0604 -0.9514 -0.7931
   29DOPE   H4S 3653   7.174   0.070   6.561 -1.2368 -0.0769  0.1516
   29DOPE   C25 3654   7.314   0.203   6.654 -0.5580  0.4435  1.0019
   29DOPE   H5R 3655   7.362   0.109   6.687 -1.2179 -0.4973 -0.5766
   29DOPE   H5S 3656   7.306   0.260   6.749  1.2646 -1.2578  2.2393
   29DOPE   C26 3657   7.408   0.266   6.550  0.2001 -0.0962 -0.0314
   29DOPE   H6R 3658   7.374   0.371   6.543 -0.1885 -0.3337 -3.7436
   29DOPE   H6S 3659   7.400   0.216   6.450 -2.7143  2.4924 -1.2436
   29DOPE   C27 3660   7.553   0.271   6.595  0.3130  0.4289  0.0242
   29DOPE   H7R 3661   7.589   0.174   6.636 -0.4808  0.2742  0.3688
   29DOPE   H7S 3662   7.550   0.337   6.684  1.5588  0.9610 -0.2937
   29DOPE   C28 3663   7.655   0.319   6.490  0.9296 -0.1473  0.3403
   29DOPE   H8R 3664   7.605   0.384   6.414  2.4047 -0.3909 -0.8743
   29DOPE   H8S 3665   7.693   0.230   6.436 -0.1617 -0.7905  0.5887
   29DOPE   C29 3666   7.774   0.392   6.547  0.1442  0.4655  0.1566
   29DOPE   H9R 3667   7.807   0.361   6.647  1.3146  2.9360  0.6220
   29DOPE  C210 3668   7.851   0.477   6.477 -0.8687  0.2486  0.9768
   29DOPE  H10R 3669   7.939   0.523   6.524  0.4193 -0.4971 -0.6054
   29DOPE  C211 3670   7.837   0.514   6.331  0.5589 -0.0483 -0.2399
   29DOPE  H11R 3671   7.819   0.624   6.335  2.8129  0.4186 -1.1997
   29DOPE  H11S 3672   7.756   0.455   6.284  0.6142 -1.1293  0.9729
   29DOPE  C212 3673   7.961   0.488   6.241 -0.0975 -0.2818 -0.0245
   29DOPE  H12R 3674   8.000   0.394   6.284 -0.6332 -0.3159  0.4034
   29DOPE  H12S 3675   8.032   0.572   6.252  2.3079 -2.0718 -1.1303
   29DOPE  C213 3676   7.934   0.459   6.088 -0.5528 -0.0941 -0.2570
   29DOPE  H13R 3677   7.866   0.371   6.090  2.1155 -2.2923 -0.7227
   29DOPE  H13S 3678   8.029   0.410   6.057 -0.2071 -0.2756  0.9950
   29DOPE  C214 3679   7.886   0.578   6.003  0.5026  0.0593  0.0474
   29DOPE  H14R 3680   7.953   0.665   6.024 -0.9892  0.9384  1.3897
   29DOPE  H14S 3681   7.791   0.615   6.048 -0.3517 -1.6931 -0.2528
   29DOPE  C215 3682   7.875   0.550   5.852 -0.7871  0.3905 -0.0161
   29DOPE  H15R 3683   7.861   0.640   5.789 -2.9422  0.7389  0.8771
   29DOPE  H15S 3684   7.783   0.489   5.843 -0.3021 -0.1939 -1.1276
   29DOPE  C216 3685   7.992   0.473   5.787  0.5691  0.2504 -0.2113
   29DOPE  H16R 3686   8.029   0.394   5.856  1.0587 -0.4410 -1.2310
   29DOPE  H16S 3687   8.084   0.532   5.766  0.0332  1.6927  1.2985
   29DOPE  C217 3688   7.939   0.392   5.665 -0.0809  0.2447 -0.2174
   29DOPE  H17R 3689   7.848   0.334   5.689 -0.4667  0.7034 -0.5542
   29DOPE  H17S 3690   8.021   0.319   5.649 -1.0564 -1.0804  0.7220
   29DOPE  C218 3691   7.927   0.485   5.543  0.4576 -0.2328 -0.4877
   29DOPE  H18R 3692   7.898   0.428   5.453  0.5611  2.2949 -2.2463
   29DOPE  H18S 3693   8.028   0.528   5.525  0.8129 -1.7296 -2.2952
   29DOPE  H18T 3694   7.862   0.572   5.564 -0.4002 -0.9663 -0.0612
   29DOPE   C33 3695   6.621  -0.135   6.407  0.6733 -0.3554 -0.0618
   29DOPE   H3X 3696   6.728  -0.160   6.394  0.7030  0.2020 -0.9456
   29DOPE   H3Y 3697   6.602  -0.027   6.419 -1.7713 -0.8941  1.9149
   29DOPE   C34 3698   6.556  -0.195   6.275 -0.7303 -0.3266  1.0939
   29DOPE   H4X 3699   6.567  -0.305   6.259  1.0583 -0.1302  0.7023
   29DOPE   H4Y 3700   6.447  -0.180   6.269 -0.5694  0.3274 -0.8949
   29DOPE   C35 3701   6.613  -0.136   6.143  0.4665  0.0646 -0.0634
   29DOPE   H5X 3702   6.722  -0.150   6.125  0.4376 -1.0772  0.5641
   29DOPE   H5Y 3703   6.603  -0.026   6.142 -0.7814  0.0297 -3.4133
   29DOPE   C36 3704   6.540  -0.189   6.014 -0.1330  0.4948 -0.2321
   29DOPE   H6X 3705   6.434  -0.155   6.012  0.1080  1.3069  0.2585
   29DOPE   H6Y 3706   6.538  -0.299   6.026 -0.8530  0.5995  0.8056
   29DOPE   C37 3707   6.622  -0.172   5.887  0.2130 -0.7715  0.3380
   29DOPE   H7X 3708   6.651  -0.065   5.888  0.3495 -0.7892 -0.8917
   29DOPE   H7Y 3709   6.722  -0.217   5.905 -0.4638 -1.3325  3.3109
   29DOPE   C38 3710   6.556  -0.220   5.764 -0.4543 -0.4757  0.1142
   29DOPE   H8X 3711   6.477  -0.144   5.747 -2.4130 -2.4937 -0.4046
   29DOPE   H8Y 3712   6.505  -0.316   5.787  0.3929 -1.3663 -1.5067
   29DOPE   C39 3713   6.647  -0.241   5.645 -0.5447  0.2567  0.3424
   29DOPE   H9X 3714   6.756  -0.243   5.658 -0.4055 -0.9636 -0.8316
   29DOPE  C310 3715   6.592  -0.254   5.520  0.2556 -0.2470 -0.6103
   29DOPE  H10X 3716   6.663  -0.287   5.442  1.8417  0.2799  0.5712
   29DOPE  C311 3717   6.450  -0.253   5.472 -0.5377  0.3478  0.3809
   29DOPE  H11X 3718   6.418  -0.349   5.427  0.3788  0.3711 -0.3388
   29DOPE  H11Y 3719   6.378  -0.233   5.554  0.1144  1.5099  0.6869
   29DOPE  C312 3720   6.421  -0.144   5.366  0.0023  0.0247 -0.6586
   29DOPE  H12X 3721   6.482  -0.056   5.394 -0.5576  0.0501  0.5535
   29DOPE  H12Y 3722   6.314  -0.115   5.353  0.0611  1.0553  0.8629
   29DOPE  C313 3723   6.466  -0.194   5.227  0.5548  0.1102 -0.3684
   29DOPE  H13X 3724   6.508  -0.109   5.168 -3.2022  1.1515 -1.8589
   29DOPE  H13Y 3725   6.547  -0.270   5.232  0.0242 -0.3965  1.0774
   29DOPE  C314 3726   6.347  -0.234   5.135 -0.2325 -0.2429  0.1004
   29DOPE  H14X 3727   6.268  -0.156   5.143  0.3215  0.5195 -1.4945
   29DOPE  H14Y 3728   6.294  -0.317   5.187  2.6415 -1.2733  1.5953
   29DOPE  C315 3729   6.371  -0.263   4.984 -0.2931 -0.1250 -0.8950
   29DOPE  H15X 3730   6.426  -0.180   4.935  1.7181 -1.4085 -0.9269
   29DOPE  H15Y 3731   6.274  -0.265   4.930 -1.0842  0.3214  0.4331
   29DOPE  C316 3732   6.460  -0.390   4.976 -0.3820  0.6876 -0.0359
   29DOPE  H16X 3733   6.399  -0.479   5.004 -0.6955  1.3090  1.3289
   29DOPE  H16Y 3734   6.541  -0.383   5.053 -0.0441 -0.5871 -0.2410
   29DOPE  C317 3735   6.523  -0.411   4.838 -0.5390  0.2957  0.3753
   29DOPE  H17X 3736   6.450  -0.417   4.755  0.0311 -1.1057 -0.0478
   29DOPE  H17Y 3737   6.591  -0.327   4.810 -0.6444 -0.1911 -1.4555
   29DOPE  C318 3738   6.609  -0.543   4.830 -0.5401 -0.2037  0.0524
   29DOPE  H18X 3739   6.558  -0.636   4.863 -0.0173 -0.4839  0.0811
   29DOPE  H18Y 3740   6.637  -0.558   4.723  0.2747  1.8223 -0.0436
   29DOPE  H18Z 3741   6.697  -0.521   4.893 -0.5651 -0.3421  0.1352
   30DOPE     N 3742   0.831   6.872   7.156  0.3164  0.3735 -0.1207
   30DOPE   HN1 3743   0.784   6.964   7.151 -0.1727  0.2155  1.2655
   30DOPE   HN2 3744   0.907   6.881   7.226  0.1769  0.9396 -0.0390
   30DOPE   HN3 3745   0.868   6.843   7.063 -1.1101 -2.4547  0.0783
   30DOPE   C12 3746   0.723   6.778   7.196 -0.4104 -0.1821  0.0612
   30DOPE  H12A 3747   0.773   6.681   7.220 -0.5582 -0.5008 -0.8472
   30DOPE  H12B 3748   0.656   6.766   7.108 -0.8909  1.2776  0.2025
   30DOPE   C11 3749   0.639   6.837   7.302 -0.1983 -0.8929 -0.1725
   30DOPE  H11A 3750   0.704   6.886   7.378 -0.2400  0.7471 -1.1428
   30DOPE  H11B 3751   0.567   6.771   7.355 -0.7637 -0.7545 -0.7534
   30DOPE     P 3752   0.408   6.915   7.211 -0.0494 -0.3698  0.1908
   30DOPE   O13 3753   0.336   7.037   7.198 -0.8006  0.0428  0.0404
   30DOPE   O14 3754   0.343   6.821   7.306  0.0874  0.0045 -0.3912
   30DOPE   O11 3755   0.424   6.845   7.068 -0.4942 -0.4905  0.1452
   30DOPE   O12 3756   0.557   6.948   7.249 -0.3887  0.1322  0.2205
   30DOPE    C1 3757   0.355   6.725   7.030 -0.4011 -0.0435  0.3758
   30DOPE    HA 3758   0.261   6.707   7.086 -0.9525  3.3114  0.7299
   30DOPE    HB 3759   0.419   6.637   7.053 -0.6768 -0.0773  1.0251
   30DOPE    C2 3760   0.308   6.718   6.881 -0.3291  0.8400  0.0009
   30DOPE    HS 3761   0.231   6.638   6.872  1.8084 -1.4543  1.0322
   30DOPE   O21 3762   0.416   6.696   6.793 -0.1320 -0.1063  0.2640
   30DOPE   C21 3763   0.454   6.567   6.794  0.2768  0.7474  0.2811
   30DOPE   O22 3764   0.405   6.476   6.858 -0.0189 -0.7543  0.2743
   30DOPE   C22 3765   0.564   6.534   6.695 -0.6457  0.5696 -1.0608
   30DOPE   H2R 3766   0.653   6.529   6.761 -1.6271  0.3932  0.2972
   30DOPE   H2S 3767   0.573   6.618   6.623 -0.8483  1.1561 -0.4056
   30DOPE    C3 3768   0.234   6.844   6.838 -0.5934  0.4498 -0.2297
   30DOPE    HX 3769   0.300   6.929   6.866  2.6948 -1.9406 -0.1483
   30DOPE    HY 3770   0.145   6.848   6.904 -1.4993 -1.2929 -1.2832
   30DOPE   O31 3771   0.201   6.850   6.699 -0.1074  0.4210 -0.3493
   30DOPE   C31 3772   0.104   6.764   6.651 -0.2557  0.7567  0.4441
   30DOPE   O32 3773   0.047   6.683   6.719 -0.0823  0.5784 -0.1585
   30DOPE   C32 3774   0.077   6.803   6.510  0.6761  0.4347 -0.5714
   30DOPE   H2X 3775   0.021   6.899   6.512  0.0640  0.0810  1.1289
   30DOPE   H2Y 3776   0.170   6.796   6.451 -0.5456  2.6882 -2.9476
   30DOPE   C23 3777   0.533   6.404   6.619  0.8988 -0.0841 -0.4491
   30DOPE   H3R 3778   0.530   6.329   6.701  2.5094  1.9460  1.6130
   30DOPE   H3S 3779   0.621   6.374   6.558 -1.0938 -1.9232 -2.5734
   30DOPE   C24 3780   0.419   6.400   6.531  1.0755  0.4157 -0.1871
   30DOPE   H4R 3781   0.325   6.419   6.588 -0.2593  2.4900 -2.8527
   30DOPE   H4S 3782   0.413   6.304   6.476  1.8825 -0.6435  1.4854
   30DOPE   C25 3783   0.416   6.510   6.424  0.1749 -0.4075  0.3679
   30DOPE   H5R 3784   0.515   6.527   6.378 -0.6962 -1.7264 -2.1682
   30DOPE   H5S 3785   0.386   6.607   6.469 -1.8079 -0.5481 -0.5543
   30DOPE   C26 3786   0.311   6.476   6.318 -0.4466  0.7867  0.0160
   30DOPE   H6R 3787   0.208   6.475   6.360 -0.3510 -0.8666  0.2694
   30DOPE   H6S 3788   0.322   6.373   6.279  0.1727 -0.5962  3.5495
   30DOPE   C27 3789   0.303   6.580   6.204 -0.1947  0.1724  0.1150
   30DOPE   H7R 3790   0.406   6.593   6.164  0.3823  0.9471  1.7769
   30DOPE   H7S 3791   0.253   6.672   6.242 -0.2482  0.7163 -1.2095
   30DOPE   C28 3792   0.225   6.547   6.074 -0.5601  0.4049  0.2980
   30DOPE   H8R 3793   0.250   6.632   6.007 -0.8755  0.4167  0.1904
   30DOPE   H8S 3794   0.114   6.542   6.082 -0.4256 -0.8263  2.0366
   30DOPE   C29 3795   0.262   6.424   6.000 -0.0862  0.3159  0.1513
   30DOPE   H9R 3796   0.262   6.327   6.053 -5.0346 -0.2913 -0.5203
   30DOPE  C210 3797   0.304   6.412   5.877 -0.5070 -0.3365  0.4175
   30DOPE  H10R 3798   0.340   6.318   5.831  0.6830  1.4171 -2.5799
   30DOPE  C211 3799   0.334   6.526   5.783 -0.3807  0.6535 -0.6660
   30DOPE  H11R 3800   0.441   6.556   5.781 -0.1121 -0.2278  0.1326
   30DOPE  H11S 3801   0.273   6.613   5.814  0.4955  0.0765  3.1917
   30DOPE  C212 3802   0.308   6.494   5.630  0.1406 -0.3504  0.9813
   30DOPE  H12R 3803   0.359   6.402   5.594 -3.2470 -1.5254 -1.2452
   30DOPE  H12S 3804   0.352   6.573   5.565 -1.1604  1.6844  2.4946
   30DOPE  C213 3805   0.158   6.475   5.599  0.3213  0.3984  0.3361
   30DOPE  H13R 3806   0.116   6.577   5.612 -0.7585 -0.2050  2.0295
   30DOPE  H13S 3807   0.109   6.416   5.680  0.2127 -0.4543 -0.3312
   30DOPE  C214 3808   0.116   6.418   5.466  0.2642 -0.1641 -0.2700
   30DOPE  H14R 3809   0.005   6.413   5.464  0.0141  0.6465  3.4680
   30DOPE  H14S 3810   0.146   6.313   5.450 -0.7030 -0.3256 -1.1247
   30DOPE  C215 3811   0.160   6.508   5.348  0.3073 -0.5935 -0.1584
   30DOPE  H15R 3812   0.266   6.490   5.321 -0.5535 -0.3458 -4.5440
   30DOPE  H15S 3813   0.144   6.617   5.364  1.7221 -0.2089 -1.1096
   30DOPE  C216 3814   0.085   6.472   5.221  0.4439  0.1514 -0.5949
   30DOPE  H16R 3815  -0.020   6.484   5.254  1.0673  0.0000  1.5975
   30DOPE  H16S 3816   0.096   6.365   5.192  0.4338 -0.1200  0.3739
   30DOPE  C217 3817   0.116   6.569   5.106 -0.7255  0.3532 -0.0313
   30DOPE  H17R 3818   0.088   6.668   5.147 -3.0191 -0.6244  0.9079
   30DOPE  H17S 3819   0.042   6.539   5.028 -1.2144  0.0642  0.5322
   30DOPE  C218 3820   0.255   6.569   5.047  0.0047 -0.5850 -0.4830
   30DOPE  H18R 3821   0.263   6.470   4.998 -0.7957 -1.2756  0.7191
   30DOPE  H18S 3822   0.335   6.575   5.124 -0.9427 -0.6519  0.5394
   30DOPE  H18T 3823   0.263   6.649   4.970  2.3450  0.5714  0.8253
   30DOPE   C33 3824  -0.030   6.705   6.446 -0.3266 -0.3958  0.6276
   30DOPE   H3X 3825  -0.120   6.699   6.511 -1.0175 -0.8663 -0.3477
   30DOPE   H3Y 3826   0.016   6.604   6.447 -0.2010 -0.3479  0.0442
   30DOPE   C34 3827  -0.071   6.735   6.302 -0.1696 -0.0897 -0.7126
   30DOPE   H4X 3828  -0.122   6.834   6.296  1.0984  0.6999  0.8926
   30DOPE   H4Y 3829   0.028   6.749   6.254  0.5568  1.5455  1.1341
   30DOPE   C35 3830  -0.145   6.616   6.237  0.5141 -0.2662 -0.4923
   30DOPE   H5X 3831  -0.233   6.594   6.301  2.1592  0.5262  2.2331
   30DOPE   H5Y 3832  -0.083   6.524   6.241 -0.0175 -0.6289 -0.5382
   30DOPE   C36 3833  -0.182   6.636   6.090  0.0270  0.1593  0.4245
   30DOPE   H6X 3834  -0.090   6.640   6.028  0.2373 -1.1314  0.6265
   30DOPE   H6Y 3835  -0.231   6.731   6.060 -1.3699 -0.5778  0.2678
   30DOPE   C37 3836  -0.268   6.515   6.056  0.4703 -0.2379 -0.1271
   30DOPE   H7X 3837  -0.220   6.423   6.092 -1.5351 -0.5878  1.8441
   30DOPE   H7Y 3838  -0.358   6.508   6.121 -0.6121 -1.8944 -1.7177
   30DOPE   C38 3839  -0.296   6.489   5.907  0.3109  0.0357 -0.2870
   30DOPE   H8X 3840  -0.355   6.395   5.896 -1.6626  1.0831  0.7463
   30DOPE   H8Y 3841  -0.201   6.469   5.852  0.8294  0.7665  0.3292
   30DOPE   C39 3842  -0.387   6.586   5.833  0.8685 -0.0373  0.2289
   30DOPE   H9X 3843  -0.496   6.588   5.852  1.0754  1.0163  1.3967
   30DOPE  C310 3844  -0.342   6.670   5.735  0.8722  0.4588  0.2990
   30DOPE  H10X 3845  -0.423   6.715   5.675  1.2432 -0.2855 -0.8000
   30DOPE  C311 3846  -0.210   6.688   5.679 -0.7599 -0.2201 -0.4829
   30DOPE  H11X 3847  -0.177   6.793   5.697 -0.5026 -0.4825  0.6826
   30DOPE  H11Y 3848  -0.129   6.638   5.736 -0.0363 -0.3519 -1.5945
   30DOPE  C312 3849  -0.186   6.643   5.531 -0.4821 -0.2766 -0.0971
   30DOPE  H12X 3850  -0.203   6.534   5.521 -0.5031 -0.4012  1.0566
   30DOPE  H12Y 3851  -0.082   6.669   5.503 -0.9377  3.1766  0.9274
   30DOPE  C313 3852  -0.256   6.732   5.420  0.2880  0.0662 -0.3883
   30DOPE  H13X 3853  -0.363   6.703   5.419  0.1722  0.4794 -0.1457
   30DOPE  H13Y 3854  -0.256   6.837   5.456 -3.1874  0.1533 -0.3062
   30DOPE  C314 3855  -0.200   6.706   5.284  0.3506  0.2654 -0.7211
   30DOPE  H14X 3856  -0.211   6.600   5.253 -0.3074  0.1087  0.0150
   30DOPE  H14Y 3857  -0.092   6.730   5.295  0.2539  0.3956  0.0177
   30DOPE  C315 3858  -0.261   6.798   5.181  0.5030  0.3951 -0.0772
   30DOPE  H15X 3859  -0.242   6.899   5.224  0.9440 -1.0170  3.3225
   30DOPE  H15Y 3860  -0.372   6.786   5.183  0.5286 -0.0562 -0.8214
   30DOPE  C316 3861  -0.205   6.796   5.036  0.1665 -0.0835 -0.5586
   30DOPE  H16X 3862  -0.250   6.717   4.972  1.4275 -1.3002 -0.0148
   30DOPE  H16Y 3863  -0.097   6.774   5.050 -0.1501 -1.4146  0.0733
   30DOPE  C317 3864  -0.219   6.932   4.972  0.6245 -0.2286 -0.2534
   30DOPE  H17X 3865  -0.321   6.945   4.932  1.4485  2.5324 -1.7184
   30DOPE  H17Y 3866  -0.193   7.012   5.045  2.3095 -0.1779 -0.8484
   30DOPE  C318 3867  -0.132   6.961   4.847  0.5592 -0.4930  0.2509
   30DOPE  H18X 3868  -0.025   6.947   4.874  0.1245 -0.3670  2.1360
   30DOPE  H18Y 3869  -0.161   6.893   4.763 -0.2697 -0.1862  0.2754
   30DOPE  H18Z 3870  -0.142   7.069   4.823  1.3024 -0.6331 -0.7437
   31DOPE     N 3871   2.674   4.165   3.409 -0.5772 -0.1823 -0.7052
   31DOPE   HN1 3872   2.627   4.186   3.500  0.2080 -2.7169  0.3740
   31DOPE   HN2 3873   2.589   4.152   3.350 -0.5864  1.4143 -1.1034
   31DOPE   HN3 3874   2.726   4.076   3.412  1.5208  0.9319 -1.7058
   31DOPE   C12 3875   2.766   4.267   3.349  0.4182 -0.3044  0.4435
   31DOPE  H12A 3876   2.846   4.287   3.425 -0.4360  1.4163  0.9445
   31DOPE  H12B 3877   2.706   4.359   3.329  0.1769 -0.8824 -1.7242
   31DOPE   C11 3878   2.835   4.217   3.222  0.0502  0.1011 -0.0105
   31DOPE  H11A 3879   2.880   4.306   3.173  0.9924 -1.2483 -1.7350
   31DOPE  H11B 3880   2.761   4.170   3.153 -0.3254 -0.3667  0.7005
   31DOPE     P 3881   2.948   3.973   3.268  0.0277  0.0620  0.0275
   31DOPE   O13 3882   3.087   3.926   3.286  0.1946 -0.7766  0.1510
   31DOPE   O14 3883   2.873   3.905   3.163 -0.5002  0.1739 -0.2600
   31DOPE   O11 3884   2.861   3.973   3.404 -0.3935  0.2664  0.2583
   31DOPE   O12 3885   2.943   4.126   3.248 -0.4398 -0.6926  0.6648
   31DOPE    C1 3886   2.933   3.969   3.528  0.6122 -0.0714  0.2961
   31DOPE    HA 3887   2.948   4.070   3.572 -0.6509  0.6509 -0.8411
   31DOPE    HB 3888   3.037   3.932   3.520  0.8400  0.8443 -1.4431
   31DOPE    C2 3889   2.848   3.872   3.609  0.6243  0.7489 -0.0524
   31DOPE    HS 3890   2.741   3.898   3.597 -0.0927 -1.1293  1.6568
   31DOPE   O21 3891   2.894   3.870   3.744  0.2977 -0.0469 -0.1354
   31DOPE   C21 3892   2.865   3.982   3.815  0.0263 -0.1727  0.4539
   31DOPE   O22 3893   2.813   4.084   3.776  0.3610 -0.0486  0.3334
   31DOPE   C22 3894   2.932   3.974   3.953  0.1109 -0.5327  0.8002
   31DOPE   H2R 3895   2.942   4.075   3.999  1.4617  0.0484 -0.6739
   31DOPE   H2S 3896   3.035   3.936   3.937  0.4253 -0.2440  2.0135
   31DOPE    C3 3897   2.845   3.725   3.544 -0.0418 -0.5249  0.6196
   31DOPE    HX 3898   2.954   3.710   3.530 -0.0039  0.3531 -0.1489
   31DOPE    HY 3899   2.799   3.724   3.442 -0.2640  1.0110  0.6842
   31DOPE   O31 3900   2.790   3.621   3.629 -0.2459 -0.0881 -0.0297
   31DOPE   C31 3901   2.665   3.598   3.601 -0.2508  0.7944  0.4477
   31DOPE   O32 3902   2.596   3.664   3.524 -0.4693 -0.2016 -0.0996
   31DOPE   C32 3903   2.628   3.470   3.671 -0.0029 -0.1690 -0.4903
   31DOPE   H2X 3904   2.538   3.421   3.628  0.9225 -0.0866 -2.6202
   31DOPE   H2Y 3905   2.715   3.403   3.654  0.7019  0.7421 -0.5157
   31DOPE   C23 3906   2.864   3.880   4.056  0.5853  0.6419  0.4422
   31DOPE   H3R 3907   2.844   3.784   4.004 -0.6767  0.1840  1.7091
   31DOPE   H3S 3908   2.767   3.924   4.086  1.1678  2.9515 -0.8202
   31DOPE   C24 3909   2.964   3.859   4.171  0.1756 -0.4764 -0.0197
   31DOPE   H4R 3910   3.066   3.844   4.129 -0.2064 -0.2834 -1.0318
   31DOPE   H4S 3911   2.939   3.763   4.222  0.7080 -1.2299 -1.1542
   31DOPE   C25 3912   2.965   3.988   4.255 -0.2794 -0.2849  0.0599
   31DOPE   H5R 3913   2.859   4.014   4.277 -0.5776 -0.9297 -0.5442
   31DOPE   H5S 3914   3.004   4.066   4.186 -2.2564  0.4345 -0.3177
   31DOPE   C26 3915   3.047   3.979   4.380 -0.5744  0.6379 -0.0858
   31DOPE   H6R 3916   3.056   4.082   4.421  0.5645  0.7355 -0.5370
   31DOPE   H6S 3917   3.148   3.940   4.354 -1.1336  0.2662 -1.8635
   31DOPE   C27 3918   2.993   3.882   4.486  0.7508 -0.5233  0.4244
   31DOPE   H7R 3919   2.981   3.777   4.453  0.9315  0.3878 -2.8180
   31DOPE   H7S 3920   2.894   3.933   4.495  1.7823  1.6615 -0.0208
   31DOPE   C28 3921   3.073   3.879   4.616  0.2056 -0.3855 -0.1822
   31DOPE   H8R 3922   3.098   3.983   4.645  0.7983 -1.0683  1.9217
   31DOPE   H8S 3923   3.180   3.846   4.611  0.0593 -1.0361  0.7949
   31DOPE   C29 3924   3.005   3.820   4.739  0.0518  0.0981  1.2769
   31DOPE   H9R 3925   2.915   3.871   4.775 -0.1660  1.2552 -0.7526
   31DOPE  C210 3926   3.039   3.703   4.794 -0.2687 -0.1485 -0.4961
   31DOPE  H10R 3927   2.982   3.658   4.876  0.6887 -0.3218  0.0885
   31DOPE  C211 3928   3.154   3.612   4.749 -0.3363 -0.2795  0.2900
   31DOPE  H11R 3929   3.198   3.547   4.828  0.9942  0.1727 -0.0581
   31DOPE  H11S 3930   3.231   3.684   4.715 -1.5558  0.8791 -0.0846
   31DOPE  C212 3931   3.120   3.531   4.622 -0.7826 -0.7953 -0.3974
   31DOPE  H12R 3932   3.209   3.470   4.594  1.1399  1.7071 -0.1497
   31DOPE  H12S 3933   3.127   3.608   4.542 -0.4296 -0.1237  0.2766
   31DOPE  C213 3934   2.992   3.455   4.634  0.2773  1.0165  0.1928
   31DOPE  H13R 3935   2.900   3.506   4.599  0.1068  1.1087  0.7624
   31DOPE  H13S 3936   2.989   3.431   4.743  2.9810 -1.3809 -0.1373
   31DOPE  C214 3937   2.995   3.316   4.561 -0.4131 -0.3572 -0.5122
   31DOPE  H14R 3938   2.907   3.261   4.600  1.1947 -1.2292  2.1692
   31DOPE  H14S 3939   3.085   3.271   4.608 -0.2058  1.2375  0.6943
   31DOPE  C215 3940   3.012   3.310   4.406 -0.1663  0.0171 -0.0053
   31DOPE  H15R 3941   3.057   3.216   4.367  0.0489  0.2795 -0.3923
   31DOPE  H15S 3942   3.095   3.381   4.382  0.2751 -0.3661  0.3606
   31DOPE  C216 3943   2.889   3.345   4.336  0.6814 -0.3251  0.2154
   31DOPE  H16R 3944   2.849   3.441   4.377  1.0054 -0.1135  0.0364
   31DOPE  H16S 3945   2.819   3.260   4.347  0.1666 -0.5250 -3.4056
   31DOPE  C217 3946   2.898   3.362   4.185  0.3550  0.0618  0.7890
   31DOPE  H17R 3947   2.801   3.408   4.157 -0.0541 -0.9398  0.5128
   31DOPE  H17S 3948   2.899   3.261   4.138 -0.1912 -0.1635  1.2436
   31DOPE  C218 3949   3.011   3.448   4.125  0.6136 -0.3186 -0.2737
   31DOPE  H18R 3950   3.110   3.420   4.166  0.4099 -0.6348  0.0104
   31DOPE  H18S 3951   3.004   3.551   4.164  1.2858  0.1148 -1.2474
   31DOPE  H18T 3952   3.015   3.446   4.014 -0.2695  1.4260 -0.3647
   31DOPE   C33 3953   2.614   3.477   3.829 -0.6613 -0.1988 -0.0047
   31DOPE   H3X 3954   2.702   3.537   3.863 -0.7029  1.1126 -2.0420
   31DOPE   H3Y 3955   2.615   3.371   3.863 -1.2193  0.3179  1.7096
   31DOPE   C34 3956   2.491   3.548   3.872 -0.3563  0.9718  0.3872
   31DOPE   H4X 3957   2.494   3.658   3.855 -1.8135  0.9086 -0.4246
   31DOPE   H4Y 3958   2.405   3.498   3.822  0.1656 -0.8370  1.2191
   31DOPE   C35 3959   2.472   3.530   4.031  0.3558  0.0688 -0.1984
   31DOPE   H5X 3960   2.477   3.424   4.061 -0.0600  0.4546  1.3394
   31DOPE   H5Y 3961   2.367   3.559   4.051 -0.5941 -2.4415 -1.1587
   31DOPE   C36 3962   2.565   3.621   4.112 -0.5749 -0.5257 -0.6315
   31DOPE   H6X 3963   2.561   3.731   4.094 -2.8363 -0.1975  1.2561
   31DOPE   H6Y 3964   2.673   3.603   4.094 -0.3311 -0.2757  0.4582
   31DOPE   C37 3965   2.547   3.606   4.269  0.2969 -0.0335  0.1762
   31DOPE   H7X 3966   2.440   3.630   4.286  0.3796 -0.1600  0.8912
   31DOPE   H7Y 3967   2.561   3.500   4.301  0.5744  0.2599  1.0356
   31DOPE   C38 3968   2.638   3.709   4.342 -0.2222  0.4007 -0.2659
   31DOPE   H8X 3969   2.608   3.814   4.322 -0.3200  0.0173 -2.2952
   31DOPE   H8Y 3970   2.744   3.697   4.311 -0.2592 -2.4003  0.3941
   31DOPE   C39 3971   2.623   3.676   4.487 -0.3667  0.6350  1.0392
   31DOPE   H9X 3972   2.612   3.569   4.508 -1.6160  0.6742  0.6646
   31DOPE  C310 3973   2.607   3.750   4.597  0.0745 -0.2055  0.4851
   31DOPE  H10X 3974   2.629   3.706   4.695 -1.2240  0.5137  1.1218
   31DOPE  C311 3975   2.596   3.902   4.599 -0.2413 -0.0551 -0.0706
   31DOPE  H11X 3976   2.658   3.941   4.515  1.2872 -0.1495  0.9690
   31DOPE  H11Y 3977   2.488   3.922   4.586 -0.4608  0.5995  2.2844
   31DOPE  C312 3978   2.638   3.956   4.739  0.6813 -0.8648  0.1449
   31DOPE  H12X 3979   2.726   3.895   4.767  0.5927 -1.0494  0.0191
   31DOPE  H12Y 3980   2.560   3.939   4.816  1.4247  0.1304  1.1685
   31DOPE  C313 3981   2.693   4.101   4.735  0.7285  0.0501 -0.4873
   31DOPE  H13X 3982   2.795   4.104   4.691  0.0976 -0.8597 -2.0624
   31DOPE  H13Y 3983   2.645   4.173   4.666  0.5872  1.9957  1.5194
   31DOPE  C314 3984   2.711   4.175   4.872 -0.1588 -0.0393  0.7496
   31DOPE  H14X 3985   2.798   4.130   4.923  1.7766  1.7747 -0.7557
   31DOPE  H14Y 3986   2.612   4.160   4.921 -1.6751  0.8577 -1.7876
   31DOPE  C315 3987   2.746   4.321   4.858  0.1652  0.5334  0.5958
   31DOPE  H15X 3988   2.660   4.385   4.829 -1.2523 -0.6253  2.0995
   31DOPE  H15Y 3989   2.819   4.325   4.774 -0.8805 -0.6863 -0.4128
   31DOPE  C316 3990   2.823   4.362   4.986  0.1418 -0.1725  0.1856
   31DOPE  H16X 3991   2.911   4.296   4.994 -0.1024 -0.2712  3.2415
   31DOPE  H16Y 3992   2.763   4.337   5.076  0.5715 -2.2464 -0.0661
   31DOPE  C317 3993   2.875   4.504   4.971 -0.4832  0.4773 -0.0908
   31DOPE  H17X 3994   2.937   4.492   4.880  0.4781  1.9827  0.3231
   31DOPE  H17Y 3995   2.788   4.573   4.954 -0.9819 -0.1055  0.0625
   31DOPE  C318 3996   2.959   4.542   5.089  0.4869  0.3078  0.3177
   31DOPE  H18X 3997   3.047   4.478   5.110  1.0511  1.5881  2.1065
   31DOPE  H18Y 3998   3.001   4.644   5.076  0.0033  0.4202 -0.4101
   31DOPE  H18Z 3999   2.894   4.531   5.178 -0.9198 -0.3519 -0.7557
   32DOPE     N 4000   5.935   2.393   2.265  0.2769  0.4556 -0.1711
   32DOPE   HN1 4001   6.023   2.338   2.255 -0.5400 -0.9728  0.1946
   32DOPE   HN2 4002   5.884   2.359   2.349  1.1283  0.4592  0.3535
   32DOPE   HN3 4003   5.883   2.377   2.177 -0.5398  1.4597  0.1139
   32DOPE   C12 4004   5.971   2.536   2.283  1.1322 -0.6374 -0.0468
   32DOPE  H12A 4005   5.908   2.601   2.219  1.9864 -0.9867 -1.2617
   32DOPE  H12B 4006   6.071   2.559   2.241  1.5398 -1.9772  0.1384
   32DOPE   C11 4007   5.960   2.576   2.436 -0.0617  0.1068  1.1698
   32DOPE  H11A 4008   5.859   2.553   2.476 -0.5697 -0.5226 -0.3934
   32DOPE  H11B 4009   5.970   2.686   2.450  2.3429 -0.0062  0.8349
   32DOPE     P 4010   6.190   2.569   2.552 -0.4964 -0.2923  0.0563
   32DOPE   O13 4011   6.221   2.681   2.461  0.1043 -0.0414  0.3750
   32DOPE   O14 4012   6.292   2.457   2.567  0.1333 -0.6741 -0.0735
   32DOPE   O11 4013   6.152   2.619   2.704  0.0768  0.2136 -0.0774
   32DOPE   O12 4014   6.057   2.500   2.507  0.2810  0.3183  0.0915
   32DOPE    C1 4015   6.139   2.514   2.801  0.1550  0.2540  0.2462
   32DOPE    HA 4016   6.236   2.464   2.821 -0.3612 -0.2694  1.4939
   32DOPE    HB 4017   6.061   2.446   2.761  1.6244 -0.1731 -2.0985
   32DOPE    C2 4018   6.084   2.562   2.940  0.9059 -0.0605 -0.2068
   32DOPE    HS 4019   5.980   2.596   2.921  0.5374 -1.7068 -1.4156
   32DOPE   O21 4020   6.163   2.670   2.992  0.0507  0.1828 -0.1447
   32DOPE   C21 4021   6.098   2.766   3.061  0.1962 -0.4273  0.4455
   32DOPE   O22 4022   5.977   2.779   3.060 -0.1046  0.2886  0.6888
   32DOPE   C22 4023   6.207   2.832   3.142 -0.3618 -0.4217  0.6454
   32DOPE   H2R 4024   6.221   2.923   3.080 -2.3388 -1.9394 -2.2319
   32DOPE   H2S 4025   6.308   2.787   3.133  0.5624  1.7829 -1.2720
   32DOPE    C3 4026   6.071   2.440   3.040 -0.6848 -0.5375 -0.4880
   32DOPE    HX 4027   6.170   2.391   3.048 -1.2998 -1.6460  0.8588
   32DOPE    HY 4028   6.001   2.359   3.009 -0.3836 -0.9427 -0.1132
   32DOPE   O31 4029   6.032   2.493   3.172 -0.3035  0.3438  0.0401
   32DOPE   C31 4030   5.896   2.515   3.184  1.0185 -0.7797 -0.2347
   32DOPE   O32 4031   5.811   2.497   3.097 -0.0336 -0.6597 -0.6495
   32DOPE   C32 4032   5.873   2.562   3.324 -0.0054  0.4650 -0.2822
   32DOPE   H2X 4033   5.847   2.471   3.383 -2.7013 -0.0214 -2.0511
   32DOPE   H2Y 4034   5.956   2.622   3.367  0.2226  0.4883 -0.7533
   32DOPE   C23 4035   6.169   2.855   3.288  0.1210 -0.1618 -0.2379
   32DOPE   H3R 4036   6.265   2.879   3.339  0.7873 -1.0441 -1.0325
   32DOPE   H3S 4037   6.139   2.755   3.326  2.4013 -1.7126 -2.1781
   32DOPE   C24 4038   6.065   2.965   3.316  0.2571  0.2761 -0.0708
   32DOPE   H4R 4039   5.961   2.930   3.301  0.6089 -1.1207  0.5722
   32DOPE   H4S 4040   6.086   3.046   3.243 -2.0310  2.3064  1.3634
   32DOPE   C25 4041   6.081   3.025   3.456 -0.1761  0.5311  0.1305
   32DOPE   H5R 4042   6.187   3.016   3.488 -0.2641 -0.5143  0.1786
   32DOPE   H5S 4043   6.024   2.941   3.503 -1.8531 -0.3527 -3.1162
   32DOPE   C26 4044   6.016   3.154   3.492 -0.2008 -0.6734  0.5713
   32DOPE   H6R 4045   5.915   3.165   3.447  0.0069 -0.1076  0.2290
   32DOPE   H6S 4046   6.078   3.231   3.442 -1.2659 -0.6936 -0.8397
   32DOPE   C27 4047   5.997   3.191   3.641  0.0611  0.4569 -0.2513
   32DOPE   H7R 4048   6.102   3.203   3.673 -0.4349  2.7084  0.6661
   32DOPE   H7S 4049   5.970   3.093   3.686 -0.3190 -0.5452 -2.4830
   32DOPE   C28 4050   5.882   3.292   3.675 -0.0504  0.2171  0.6188
   32DOPE   H8R 4051   5.876   3.302   3.785 -0.7350  1.3172  0.4929
   32DOPE   H8S 4052   5.780   3.257   3.649  1.5001 -2.4604 -2.7011
   32DOPE   C29 4053   5.912   3.426   3.623  0.0200  0.0685 -0.0218
   32DOPE   H9R 4054   6.007   3.443   3.569 -0.4122  1.7273 -0.3363
   32DOPE  C210 4055   5.824   3.527   3.633 -0.4963 -0.2207 -0.3705
   32DOPE  H10R 4056   5.836   3.624   3.582 -1.1792 -1.1428 -2.3737
   32DOPE  C211 4057   5.686   3.511   3.701  0.2234  1.6451  0.0544
   32DOPE  H11R 4058   5.664   3.407   3.731 -0.2092  2.3244  2.3078
   32DOPE  H11S 4059   5.608   3.520   3.622  2.6658  0.2907 -2.7107
   32DOPE  C212 4060   5.656   3.610   3.816 -0.0256 -0.0641 -0.0547
   32DOPE  H12R 4061   5.546   3.602   3.834 -0.7384  2.9643 -2.3258
   32DOPE  H12S 4062   5.692   3.710   3.783 -0.7238 -0.4013 -1.9947
   32DOPE  C213 4063   5.725   3.574   3.945 -0.4921 -0.5426  0.9023
   32DOPE  H13R 4064   5.825   3.621   3.930 -0.1341 -1.7650 -0.9027
   32DOPE  H13S 4065   5.740   3.465   3.961 -2.4061 -1.0307 -0.3482
   32DOPE  C214 4066   5.656   3.647   4.064 -0.0093  0.0600  0.2859
   32DOPE  H14R 4067   5.573   3.579   4.093 -1.3554  2.0298  1.2410
   32DOPE  H14S 4068   5.610   3.740   4.026 -0.6061 -0.1276  0.5477
   32DOPE  C215 4069   5.748   3.669   4.187  0.4317 -0.0373  0.0070
   32DOPE  H15R 4070   5.698   3.753   4.240 -0.9977  0.0546 -1.4211
   32DOPE  H15S 4071   5.851   3.687   4.148  0.0958  2.1192 -0.0291
   32DOPE  C216 4072   5.741   3.558   4.298  0.0266 -0.1050  0.2095
   32DOPE  H16R 4073   5.755   3.465   4.240 -2.0866  0.2307 -0.9377
   32DOPE  H16S 4074   5.637   3.546   4.336  0.4390 -0.7557  1.1694
   32DOPE  C217 4075   5.836   3.575   4.416 -0.1162 -0.4420 -0.0142
   32DOPE  H17R 4076   5.934   3.588   4.366  0.8892  0.4827  2.0709
   32DOPE  H17S 4077   5.833   3.491   4.489  0.9067 -0.3817  0.1164
   32DOPE  C218 4078   5.820   3.699   4.503  0.8419 -0.5679  0.1232
   32DOPE  H18R 4079   5.898   3.701   4.582  0.7709 -0.8909  0.2023
   32DOPE  H18S 4080   5.724   3.691   4.558  0.3734 -0.7583 -0.7011
   32DOPE  H18T 4081   5.807   3.788   4.438 -2.1057 -1.5156 -0.7718
   32DOPE   C33 4082   5.745   2.646   3.329  0.4388  0.4352  0.0047
   32DOPE   H3X 4083   5.669   2.608   3.258  0.5036 -1.6799  0.9991
   32DOPE   H3Y 4084   5.769   2.748   3.291 -0.7646  0.7421 -0.0022
   32DOPE   C34 4085   5.678   2.640   3.469  0.0633 -0.0283 -0.4270
   32DOPE   H4X 4086   5.631   2.539   3.477  0.9628 -0.4297 -0.0285
   32DOPE   H4Y 4087   5.764   2.644   3.539  1.0008  0.0310 -1.5554
   32DOPE   C35 4088   5.568   2.741   3.494  0.4041 -0.7282 -0.8380
   32DOPE   H5X 4089   5.534   2.717   3.598 -0.6819 -0.6098 -1.1561
   32DOPE   H5Y 4090   5.476   2.715   3.438 -1.2673  1.5705  0.6931
   32DOPE   C36 4091   5.597   2.890   3.489  0.7071  0.0823  0.4398
   32DOPE   H6X 4092   5.496   2.932   3.508 -0.5175 -1.0381 -2.9198
   32DOPE   H6Y 4093   5.630   2.921   3.387  0.7612 -1.4208 -0.0164
   32DOPE   C37 4094   5.700   2.946   3.591  0.0837  0.8218  0.2516
   32DOPE   H7X 4095   5.797   2.894   3.579  0.7124  1.7364  1.2382
   32DOPE   H7Y 4096   5.727   3.052   3.572 -0.3907  1.0023  0.5591
   32DOPE   C38 4097   5.661   2.938   3.734  0.1330  0.6730 -0.4004
   32DOPE   H8X 4098   5.755   2.961   3.789 -0.5604  2.4949  0.0798
   32DOPE   H8Y 4099   5.630   2.836   3.767  0.0116  0.9817  0.4792
   32DOPE   C39 4100   5.560   3.038   3.782  0.6678  0.5831 -0.3710
   32DOPE   H9X 4101   5.469   3.055   3.723 -0.0951  0.0694  0.6371
   32DOPE  C310 4102   5.575   3.105   3.898 -0.5701  0.5831 -0.1593
   32DOPE  H10X 4103   5.493   3.175   3.919 -1.1964  0.0813 -0.8495
   32DOPE  C311 4104   5.689   3.085   4.005  0.5159  0.4809 -0.7547
   32DOPE  H11X 4105   5.683   2.982   4.048  0.1027  1.1551  0.8953
   32DOPE  H11Y 4106   5.787   3.096   3.954  0.9477  2.1220  0.3498
   32DOPE  C312 4107   5.673   3.195   4.114 -0.2253 -0.1098 -0.6708
   32DOPE  H12X 4108   5.646   3.290   4.063 -3.5747 -0.5782  0.0274
   32DOPE  H12Y 4109   5.773   3.207   4.161 -0.0081 -0.2795 -1.0772
   32DOPE  C313 4110   5.573   3.142   4.217  0.1878 -0.7474 -0.1745
   32DOPE  H13X 4111   5.468   3.144   4.179 -0.1641 -2.1269  0.6731
   32DOPE  H13Y 4112   5.594   3.038   4.247 -0.3318 -0.5953  0.7414
   32DOPE  C314 4113   5.581   3.233   4.338  0.2753 -0.7447  0.4791
   32DOPE  H14X 4114   5.523   3.325   4.315 -0.4724 -1.1158  0.8372
   32DOPE  H14Y 4115   5.685   3.270   4.356  0.1707 -0.6678  0.9468
   32DOPE  C315 4116   5.535   3.165   4.468  0.2457  0.2381  0.1671
   32DOPE  H15X 4117   5.602   3.079   4.483  1.3013  0.9391 -0.4066
   32DOPE  H15Y 4118   5.434   3.119   4.460 -1.1445  3.0951 -0.4641
   32DOPE  C316 4119   5.536   3.262   4.589 -0.3728 -0.6324  0.0609
   32DOPE  H16X 4120   5.464   3.343   4.567  0.3979 -0.2396 -1.1292
   32DOPE  H16Y 4121   5.640   3.299   4.602 -0.3283 -0.6608 -0.2064
   32DOPE  C317 4122   5.491   3.188   4.711 -0.5587  0.6717  0.6254
   32DOPE  H17X 4123   5.447   3.257   4.786 -1.7883 -0.4089  0.9512
   32DOPE  H17Y 4124   5.416   3.116   4.672  2.1915 -1.3612 -1.3037
   32DOPE  C318 4125   5.602   3.111   4.789  0.8177 -0.3162  0.1842
   32DOPE  H18X 4126   5.555   3.020   4.831 -0.1116 -0.4299 -1.0454
   32DOPE  H18Y 4127   5.692   3.095   4.727  0.8898  2.5805 -0.6231
   32DOPE  H18Z 4128   5.630   3.183   4.869  0.8343 -0.1451  0.0258
   33DOPE     N 4129   2.338   3.554   2.855  0.2054  0.0405  0.5138
   33DOPE   HN1 4130   2.412   3.619   2.888 -1.4492  2.2031  0.2471
   33DOPE   HN2 4131   2.375   3.458   2.867  3.0756  1.0109  0.1911
   33DOPE   HN3 4132   2.330   3.576   2.754  0.3737  1.8181  0.8437
   33DOPE   C12 4133   2.208   3.573   2.926  0.4097 -0.4425  0.9905
   33DOPE  H12A 4134   2.142   3.488   2.900 -0.2734  0.2693  0.3394
   33DOPE  H12B 4135   2.161   3.667   2.888  0.0526 -0.6975  0.7932
   33DOPE   C11 4136   2.236   3.573   3.081 -0.1225 -0.3590  0.0278
   33DOPE  H11A 4137   2.274   3.470   3.101 -3.4522 -1.6891  0.1932
   33DOPE  H11B 4138   2.142   3.584   3.141  0.0317  2.1732 -0.0916
   33DOPE     P 4139   2.306   3.815   3.146 -0.0411  0.0681 -0.3269
   33DOPE   O13 4140   2.263   3.876   3.019  0.4963  0.2904  0.1415
   33DOPE   O14 4141   2.423   3.877   3.209  0.1424 -0.0636 -0.6536
   33DOPE   O11 4142   2.188   3.797   3.248  0.3566 -0.0691  0.8935
   33DOPE   O12 4143   2.337   3.661   3.115  0.4659 -0.1514  0.0842
   33DOPE    C1 4144   2.203   3.822   3.381  0.2212  0.4640 -0.5539
   33DOPE    HA 4145   2.101   3.837   3.422 -0.1074  1.8854 -1.8226
   33DOPE    HB 4146   2.270   3.907   3.403  0.7355 -0.5223  2.1134
   33DOPE    C2 4147   2.262   3.692   3.460  0.1988 -0.1224  0.9774
   33DOPE    HS 4148   2.363   3.683   3.413 -0.8686 -0.9021 -1.3392
   33DOPE   O21 4149   2.172   3.577   3.431  0.7454 -0.1620  0.0583
   33DOPE   C21 4150   2.231   3.461   3.435 -0.1810  0.2422 -0.1130
   33DOPE   O22 4151   2.352   3.445   3.450  0.3285 -0.0483  0.1775
   33DOPE   C22 4152   2.130   3.347   3.412  0.0793 -0.0494 -0.0277
   33DOPE   H2R 4153   2.142   3.308   3.309 -0.8819 -3.6810  1.0867
   33DOPE   H2S 4154   2.025   3.380   3.420  0.1966  0.6120 -1.0994
   33DOPE    C3 4155   2.266   3.711   3.602  0.3614 -0.7721  0.3500
   33DOPE    HX 4156   2.331   3.794   3.636 -0.2428 -1.2047  2.7591
   33DOPE    HY 4157   2.310   3.620   3.647  1.4917 -0.5029 -0.1830
   33DOPE   O31 4158   2.133   3.729   3.647  0.4828 -0.0068  0.1029
   33DOPE   C31 4159   2.091   3.700   3.768  0.6926 -0.2708  0.1226
   33DOPE   O32 4160   2.153   3.665   3.865  0.1034  0.0461 -0.0729
   33DOPE   C32 4161   1.932   3.695   3.768 -0.0342  0.4060 -0.5100
   33DOPE   H2X 4162   1.902   3.789   3.819 -3.8684  0.8924 -3.2425
   33DOPE   H2Y 4163   1.897   3.703   3.663  0.0733  3.1697 -0.3979
   33DOPE   C23 4164   2.152   3.230   3.514 -0.0405 -0.0979 -0.1215
   33DOPE   H3R 4165   2.254   3.188   3.513  0.2980  0.5685  1.8295
   33DOPE   H3S 4166   2.088   3.144   3.484 -1.2409  1.0052 -0.8468
   33DOPE   C24 4167   2.091   3.283   3.653 -0.4590  0.0971 -0.3286
   33DOPE   H4R 4168   1.981   3.279   3.636 -0.2586 -0.8248 -1.4567
   33DOPE   H4S 4169   2.125   3.384   3.686 -2.6427  0.0352  2.4687
   33DOPE   C25 4170   2.120   3.184   3.765 -1.3064 -0.4037 -0.3304
   33DOPE   H5R 4171   2.230   3.166   3.765 -1.4184 -1.2085 -1.5917
   33DOPE   H5S 4172   2.076   3.084   3.744 -1.2042 -1.0481  2.1884
   33DOPE   C26 4173   2.082   3.253   3.904  0.3459  0.2007  0.5959
   33DOPE   H6R 4174   1.981   3.295   3.883 -0.7777 -3.0633 -1.1308
   33DOPE   H6S 4175   2.157   3.334   3.913  1.5540 -0.8225  0.0662
   33DOPE   C27 4176   2.092   3.156   4.020 -0.2738 -0.2004  0.1025
   33DOPE   H7R 4177   2.185   3.096   4.010 -0.1260 -0.1118  0.8955
   33DOPE   H7S 4178   2.006   3.086   4.023 -0.4341 -0.0706 -0.9416
   33DOPE   C28 4179   2.076   3.238   4.152 -1.0136  0.5049  0.4111
   33DOPE   H8R 4180   2.051   3.165   4.232 -0.8021  0.2767  0.2717
   33DOPE   H8S 4181   1.988   3.303   4.133 -2.2522 -1.2826 -0.2196
   33DOPE   C29 4182   2.206   3.316   4.184  0.3350 -0.2648 -0.0533
   33DOPE   H9R 4183   2.211   3.410   4.127 -2.4828 -0.0058 -0.0025
   33DOPE  C210 4184   2.295   3.302   4.282  0.1069 -0.4008 -0.1561
   33DOPE  H10R 4185   2.384   3.365   4.278 -1.5946  2.1301 -0.2180
   33DOPE  C211 4186   2.297   3.194   4.385 -0.7590 -0.6904 -0.2628
   33DOPE  H11R 4187   2.257   3.101   4.339 -1.5192  0.5039 -2.1423
   33DOPE  H11S 4188   2.230   3.216   4.471 -2.0871  1.5991 -1.7660
   33DOPE  C212 4189   2.451   3.193   4.431 -0.1744 -0.3060 -0.9288
   33DOPE  H12R 4190   2.475   3.296   4.464  1.6665 -0.2591 -2.3037
   33DOPE  H12S 4191   2.523   3.170   4.349  1.8473 -2.7081  1.3176
   33DOPE  C213 4192   2.465   3.085   4.541 -0.0904 -0.3933 -0.1694
   33DOPE  H13R 4193   2.466   2.987   4.489 -1.9331 -0.2859 -0.4738
   33DOPE  H13S 4194   2.378   3.095   4.610 -0.6719  0.3131 -0.9770
   33DOPE  C214 4195   2.595   3.105   4.624  0.5237  0.5960  0.1712
   33DOPE  H14R 4196   2.580   3.204   4.673 -0.7270  0.2094  0.6095
   33DOPE  H14S 4197   2.685   3.110   4.559  0.7446 -0.1356  0.4168
   33DOPE  C215 4198   2.605   2.996   4.734 -0.2050 -0.1662  0.0531
   33DOPE  H15R 4199   2.590   2.898   4.684  0.1196 -0.2407  0.0996
   33DOPE  H15S 4200   2.524   3.013   4.808 -0.3955 -1.1671  0.0778
   33DOPE  C216 4201   2.731   3.005   4.816  0.2955  0.0412  0.1868
   33DOPE  H16R 4202   2.735   3.091   4.885  1.2286 -0.7207  1.1135
   33DOPE  H16S 4203   2.815   3.013   4.744 -0.2645  0.0765 -0.4701
   33DOPE  C217 4204   2.752   2.878   4.903 -0.1697 -0.1981 -0.2484
   33DOPE  H17R 4205   2.760   2.808   4.816 -0.6805 -0.6067  0.0260
   33DOPE  H17S 4206   2.665   2.841   4.961  0.8302 -2.0612  0.1365
   33DOPE  C218 4207   2.873   2.877   4.999  0.1436  0.2268 -0.1551
   33DOPE  H18R 4208   2.895   2.771   5.024 -2.7309 -0.5052 -0.3679
   33DOPE  H18S 4209   2.843   2.922   5.096  0.1579  0.4477 -0.2534
   33DOPE  H18T 4210   2.956   2.926   4.945 -2.0420  1.5235 -2.5713
   33DOPE   C33 4211   1.868   3.577   3.846 -0.4767 -0.1052 -0.3698
   33DOPE   H3X 4212   1.894   3.565   3.954 -3.8589 -1.3042  0.4361
   33DOPE   H3Y 4213   1.893   3.484   3.790 -1.1259 -2.2402  2.6145
   33DOPE   C34 4214   1.715   3.583   3.849 -0.1916 -0.1102  0.4361
   33DOPE   H4X 4215   1.667   3.657   3.917 -0.7715 -0.3098  0.2521
   33DOPE   H4Y 4216   1.681   3.599   3.745  0.2010  0.7977  0.4367
   33DOPE   C35 4217   1.657   3.445   3.886  0.0742  0.2931 -0.1277
   33DOPE   H5X 4218   1.701   3.369   3.817  0.6802  0.5198  0.0044
   33DOPE   H5Y 4219   1.550   3.433   3.859  0.9746 -1.7568 -3.4710
   33DOPE   C36 4220   1.674   3.435   4.036  0.3659  0.5897  0.3544
   33DOPE   H6X 4221   1.624   3.515   4.095  0.3522  0.7291  0.1527
   33DOPE   H6Y 4222   1.777   3.458   4.070 -0.2512  3.2945  0.5931
   33DOPE   C37 4223   1.611   3.302   4.081 -0.1366 -0.0741 -0.0206
   33DOPE   H7X 4224   1.511   3.287   4.034 -0.7912  0.2236  1.2402
   33DOPE   H7Y 4225   1.671   3.214   4.046 -0.3808  0.3560 -1.6092
   33DOPE   C38 4226   1.605   3.291   4.234 -0.3844 -0.1016 -0.6569
   33DOPE   H8X 4227   1.562   3.190   4.254 -0.0425 -0.0515  0.4011
   33DOPE   H8Y 4228   1.536   3.366   4.280  1.2769  0.4909  1.0131
   33DOPE   C39 4229   1.739   3.304   4.304  0.3683 -0.3429 -0.1228
   33DOPE   H9X 4230   1.815   3.247   4.248  0.2835 -1.6034  0.9829
   33DOPE  C310 4231   1.770   3.362   4.425 -0.5177 -0.2705  1.0537
   33DOPE  H10X 4232   1.877   3.354   4.452 -0.6123 -1.5898  1.1185
   33DOPE  C311 4233   1.689   3.429   4.531  0.8968 -0.3706 -0.1418
   33DOPE  H11X 4234   1.736   3.527   4.556  0.3324  0.0082 -0.5530
   33DOPE  H11Y 4235   1.584   3.437   4.498  1.0512 -2.4075 -1.2577
   33DOPE  C312 4236   1.679   3.359   4.669  0.1284 -0.6743  0.5947
   33DOPE  H12X 4237   1.637   3.256   4.669 -0.4145 -0.4823  1.9695
   33DOPE  H12Y 4238   1.612   3.418   4.736  1.8107 -0.4772  2.1923
   33DOPE  C313 4239   1.813   3.363   4.749 -0.2494 -0.8376 -0.4926
   33DOPE  H13X 4240   1.889   3.291   4.711  0.9226 -0.4651  1.0493
   33DOPE  H13Y 4241   1.852   3.463   4.721 -1.8216 -0.1100 -0.1787
   33DOPE  C314 4242   1.804   3.364   4.906  0.2526  0.2665  0.4678
   33DOPE  H14X 4243   1.782   3.257   4.925 -0.8886  0.1523 -1.2478
   33DOPE  H14Y 4244   1.719   3.430   4.934  0.9548  2.0567 -1.3443
   33DOPE  C315 4245   1.916   3.438   4.975  0.0919  1.1659 -0.3461
   33DOPE  H15X 4246   1.967   3.516   4.914  3.6994  1.0087  2.1112
   33DOPE  H15Y 4247   1.994   3.363   5.001  0.6811  2.2169  1.0754
   33DOPE  C316 4248   1.873   3.493   5.111 -0.6074 -0.2848 -0.0986
   33DOPE  H16X 4249   1.846   3.402   5.169 -3.2282 -1.2428 -2.5445
   33DOPE  H16Y 4250   1.782   3.556   5.101 -0.8719 -0.9829 -2.8700
   33DOPE  C317 4251   1.992   3.561   5.176 -0.5408  0.2105 -0.3232
   33DOPE  H17X 4252   2.083   3.498   5.162 -1.1532 -1.4675  2.3927
   33DOPE  H17Y 4253   2.011   3.657   5.124  1.1740 -0.1023 -0.3421
   33DOPE  C318 4254   1.982   3.580   5.328  0.1538 -0.6554 -0.3981
   33DOPE  H18X 4255   1.968   3.488   5.389 -2.2803  0.8940  1.5875
   33DOPE  H18Y 4256   2.060   3.638   5.383  0.3949 -0.3872 -1.0180
   33DOPE  H18Z 4257   1.887   3.631   5.354 -0.5573 -1.4683 -1.3408
   34DOPE     N 4258   3.535   4.115   3.123  0.1305  0.0115  0.4173
   34DOPE   HN1 4259   3.451   4.059   3.149  1.5057 -2.3715  0.0103
   34DOPE   HN2 4260   3.509   4.215   3.110  1.8718  0.1340 -3.6368
   34DOPE   HN3 4261   3.550   4.086   3.024  0.3610 -0.0815  0.4788
   34DOPE   C12 4262   3.648   4.093   3.212  0.0825  0.0543  0.3308
   34DOPE  H12A 4263   3.599   4.120   3.308 -0.7316 -0.3354  0.0352
   34DOPE  H12B 4264   3.730   4.158   3.172 -0.7331  0.2092 -1.1847
   34DOPE   C11 4265   3.688   3.948   3.220 -0.3475 -0.5909 -0.3237
   34DOPE  H11A 4266   3.752   3.943   3.311 -0.2649 -0.6823 -0.3879
   34DOPE  H11B 4267   3.732   3.906   3.127 -2.3833 -2.4177 -0.5711
   34DOPE     P 4268   3.546   3.802   3.375 -0.0051  0.5691  0.2970
   34DOPE   O13 4269   3.668   3.725   3.407 -0.1499 -0.5927  0.2579
   34DOPE   O14 4270   3.425   3.724   3.367 -0.1569  0.0098  0.3915
   34DOPE   O11 4271   3.526   3.937   3.467 -0.5389 -0.2542  0.2856
   34DOPE   O12 4272   3.570   3.866   3.233  0.1681  0.4549  0.0265
   34DOPE    C1 4273   3.395   3.994   3.462 -0.5530  0.0856 -0.2824
   34DOPE    HA 4274   3.315   3.918   3.477  0.6811 -1.1326  0.3583
   34DOPE    HB 4275   3.378   4.032   3.359 -0.1571  0.2309 -0.2937
   34DOPE    C2 4276   3.381   4.099   3.580  0.2620  0.1029  0.4161
   34DOPE    HS 4277   3.456   4.180   3.565 -0.5768  1.2559  2.1501
   34DOPE   O21 4278   3.395   4.033   3.706  0.6195  0.9848 -0.2977
   34DOPE   C21 4279   3.517   4.047   3.757  0.0342  0.4169 -0.6814
   34DOPE   O22 4280   3.606   4.119   3.712 -0.2837  0.0705 -0.1180
   34DOPE   C22 4281   3.534   3.956   3.879 -0.0733  0.1802  0.5287
   34DOPE   H2R 4282   3.521   3.849   3.851  2.5692 -0.4193  1.2927
   34DOPE   H2S 4283   3.442   3.978   3.938 -1.1656 -0.8988 -0.6951
   34DOPE    C3 4284   3.231   4.153   3.568 -0.3702 -0.4314 -0.4543
   34DOPE    HX 4285   3.168   4.070   3.607  1.1020 -1.5935 -0.4375
   34DOPE    HY 4286   3.217   4.172   3.459 -1.1066 -2.8118 -0.8358
   34DOPE   O31 4287   3.230   4.274   3.646 -0.0061  0.3204 -0.0517
   34DOPE   C31 4288   3.175   4.270   3.768  0.8259  0.3973  0.4085
   34DOPE   O32 4289   3.134   4.167   3.820  0.7114 -0.0091 -0.0830
   34DOPE   C32 4290   3.174   4.414   3.820 -0.2662  0.3960 -0.3811
   34DOPE   H2X 4291   3.276   4.457   3.825  0.0744 -0.4555  0.0941
   34DOPE   H2Y 4292   3.117   4.479   3.750  0.0284  1.7504  0.6025
   34DOPE   C23 4293   3.664   3.970   3.956 -0.2291 -0.7830  0.0435
   34DOPE   H3R 4294   3.686   4.076   3.982 -4.9167  0.0620  1.5505
   34DOPE   H3S 4295   3.751   3.920   3.909 -0.5654 -2.4285  1.1104
   34DOPE   C24 4296   3.656   3.899   4.093 -1.3546 -0.6290  0.2249
   34DOPE   H4R 4297   3.614   3.798   4.077 -2.3456 -0.1387 -0.4531
   34DOPE   H4S 4298   3.589   3.958   4.160  0.7774  1.3403  0.7619
   34DOPE   C25 4299   3.782   3.896   4.165 -0.2754  0.3494  0.1101
   34DOPE   H5R 4300   3.818   3.996   4.197  1.2117 -0.7184  1.9501
   34DOPE   H5S 4301   3.870   3.867   4.103  0.9449 -0.5921  2.1853
   34DOPE   C26 4302   3.787   3.812   4.290  0.4790 -0.0632 -0.4969
   34DOPE   H6R 4303   3.891   3.800   4.328  0.7743 -1.7998 -1.7688
   34DOPE   H6S 4304   3.732   3.719   4.268 -1.0288  0.6595  0.1116
   34DOPE   C27 4305   3.719   3.893   4.406  0.3493 -0.3309  0.2886
   34DOPE   H7R 4306   3.624   3.926   4.357  0.0268 -1.0179  0.4444
   34DOPE   H7S 4307   3.781   3.980   4.435  0.6430 -1.0371  1.8327
   34DOPE   C28 4308   3.679   3.810   4.533  0.0731 -0.0591 -0.0797
   34DOPE   H8R 4309   3.636   3.719   4.487 -0.6597 -0.6205  1.6431
   34DOPE   H8S 4310   3.601   3.846   4.603 -0.0436 -2.2817  1.0216
   34DOPE   C29 4311   3.800   3.779   4.614  0.4365  0.4134  0.0067
   34DOPE   H9R 4312   3.899   3.776   4.567 -0.0896  0.0723 -1.1112
   34DOPE  C210 4313   3.789   3.740   4.739  0.2183 -0.0657  0.2693
   34DOPE  H10R 4314   3.880   3.727   4.800  1.7384  0.7557 -1.6832
   34DOPE  C211 4315   3.656   3.726   4.818  0.6690  1.0748  0.2522
   34DOPE  H11R 4316   3.656   3.627   4.869  0.7560  1.2637  0.6296
   34DOPE  H11S 4317   3.568   3.711   4.753  2.0168  0.2081 -1.4714
   34DOPE  C212 4318   3.607   3.835   4.904  0.1632 -0.2853  0.3897
   34DOPE  H12R 4319   3.522   3.809   4.971  0.2979  1.5759  1.3516
   34DOPE  H12S 4320   3.580   3.919   4.836  0.2582 -0.0189  0.6782
   34DOPE  C213 4321   3.723   3.866   5.008  0.6620  0.1193  0.3846
   34DOPE  H13R 4322   3.674   3.933   5.081  3.0034  1.2546  1.0033
   34DOPE  H13S 4323   3.795   3.921   4.943  0.8777  0.0671  0.5797
   34DOPE  C214 4324   3.780   3.752   5.091  0.4211 -0.4067  0.6040
   34DOPE  H14R 4325   3.818   3.670   5.026  0.7918 -0.3567  0.7532
   34DOPE  H14S 4326   3.694   3.713   5.150  0.3575 -0.8747  0.2094
   34DOPE  C215 4327   3.894   3.807   5.172  1.0362  0.2948  0.3011
   34DOPE  H15R 4328   3.844   3.873   5.245  0.2971 -0.2717  0.3183
   34DOPE  H15S 4329   3.951   3.883   5.115  0.8623  0.7439  0.7265
   34DOPE  C216 4330   3.993   3.708   5.238  0.3306  0.3104  0.1749
   34DOPE  H16R 4331   4.057   3.670   5.155  0.9246  0.6187  0.4880
   34DOPE  H16S 4332   3.933   3.630   5.291 -0.3667  0.6439 -0.1057
   34DOPE  C217 4333   4.100   3.766   5.336 -0.0869  0.5791 -0.3420
   34DOPE  H17R 4334   4.046   3.818   5.419 -0.7732 -0.7828  0.0953
   34DOPE  H17S 4335   4.148   3.844   5.273  2.0746 -0.8032 -0.4967
   34DOPE  C218 4336   4.201   3.660   5.383 -0.0404 -0.0296 -0.1866
   34DOPE  H18R 4337   4.152   3.563   5.404  1.7903 -1.6729 -2.8509
   34DOPE  H18S 4338   4.269   3.691   5.466  1.3535 -1.0716 -0.8950
   34DOPE  H18T 4339   4.270   3.629   5.301 -1.5304 -0.2009 -1.4203
   34DOPE   C33 4340   3.112   4.427   3.962  0.4672  0.4230  0.3847
   34DOPE   H3X 4341   3.013   4.378   3.960  0.5441  0.2653 -1.3507
   34DOPE   H3Y 4342   3.100   4.536   3.975 -1.1665  0.3706 -0.4927
   34DOPE   C34 4343   3.201   4.374   4.076  0.1488  0.9090 -0.1562
   34DOPE   H4X 4344   3.209   4.263   4.071 -0.2561  0.9097 -1.3265
   34DOPE   H4Y 4345   3.302   4.419   4.080 -0.1269  1.5151  0.1868
   34DOPE   C35 4346   3.138   4.384   4.212  0.5703  0.5257 -0.1367
   34DOPE   H5X 4347   3.049   4.318   4.224  0.6402  0.2786 -0.8916
   34DOPE   H5Y 4348   3.116   4.490   4.237  1.7787  0.8557 -0.4134
   34DOPE   C36 4349   3.240   4.343   4.324  0.1797  0.5150  0.4012
   34DOPE   H6X 4350   3.326   4.411   4.307  0.4542 -0.0455 -0.5284
   34DOPE   H6Y 4351   3.272   4.237   4.318  0.8138  0.5741  2.2812
   34DOPE   C37 4352   3.175   4.364   4.461  0.8376  0.1157  0.1662
   34DOPE   H7X 4353   3.143   4.470   4.463  0.2836  0.0026 -1.4328
   34DOPE   H7Y 4354   3.091   4.292   4.468 -0.1144  0.9831 -1.6403
   34DOPE   C38 4355   3.269   4.356   4.583 -0.2208  0.5546  0.4933
   34DOPE   H8X 4356   3.223   4.399   4.674 -1.8132 -0.6039  0.2655
   34DOPE   H8Y 4357   3.353   4.426   4.560  0.6167  0.0419  1.8584
   34DOPE   C39 4358   3.328   4.224   4.621 -0.8142  0.4199  0.0261
   34DOPE   H9X 4359   3.372   4.170   4.536  0.2039  0.2740  0.6342
   34DOPE  C310 4360   3.326   4.171   4.742  0.4774  0.4220 -0.2092
   34DOPE  H10X 4361   3.363   4.070   4.765  0.3781  0.5255  0.4100
   34DOPE  C311 4362   3.259   4.227   4.864  0.8497  0.1110  1.1163
   34DOPE  H11X 4363   3.272   4.336   4.884  0.5007  0.0091  1.9011
   34DOPE  H11Y 4364   3.149   4.226   4.848  0.9875 -0.1420  0.1161
   34DOPE  C312 4365   3.274   4.157   5.003  0.4796  0.4666  0.2285
   34DOPE  H12X 4366   3.228   4.226   5.076 -0.1011  0.9999 -0.6289
   34DOPE  H12Y 4367   3.384   4.153   5.020  0.6798 -1.6759 -1.1610
   34DOPE  C313 4368   3.216   4.015   5.008  0.6152 -0.6289 -0.0075
   34DOPE  H13X 4369   3.109   4.010   4.977 -0.1829 -0.0751  2.3792
   34DOPE  H13Y 4370   3.285   3.956   4.944  0.4706 -2.0177  1.0548
   34DOPE  C314 4371   3.228   3.948   5.144 -1.0664  0.8328  0.4387
   34DOPE  H14X 4372   3.202   4.020   5.225  2.1719  1.5482  0.9752
   34DOPE  H14Y 4373   3.333   3.922   5.169 -1.0127 -0.4066 -0.9414
   34DOPE  C315 4374   3.134   3.826   5.158  0.1803  0.6503 -0.5411
   34DOPE  H15X 4375   3.162   3.751   5.082  1.0654 -0.9259  1.2498
   34DOPE  H15Y 4376   3.027   3.849   5.140  0.1322  0.3647 -0.6278
   34DOPE  C316 4377   3.147   3.745   5.285  0.0077  0.3603 -0.2034
   34DOPE  H16X 4378   3.152   3.808   5.377  2.2165 -0.6245  0.4226
   34DOPE  H16Y 4379   3.234   3.677   5.275 -0.5021 -0.4903  0.8545
   34DOPE  C317 4380   3.040   3.634   5.297 -0.9423 -0.3107 -0.2540
   34DOPE  H17X 4381   2.947   3.694   5.312 -2.4869 -2.8652  1.1086
   34DOPE  H17Y 4382   3.028   3.570   5.207  1.1877 -1.0548 -0.0561
   34DOPE  C318 4383   3.053   3.542   5.420 -0.0251 -0.0383 -0.3748
   34DOPE  H18X 4384   2.977   3.461   5.415  1.4121 -1.4385 -0.4615
   34DOPE  H18Y 4385   3.152   3.493   5.432 -0.0191  0.0268 -0.1527
   34DOPE  H18Z 4386   3.039   3.597   5.516  0.3692 -0.9795  0.2335
   35DOPE     N 4387   7.251   2.661   2.938 -0.1305  0.0998  0.1275
   35DOPE   HN1 4388   7.159   2.688   2.897 -0.2861 -1.8126 -0.9271
   35DOPE   HN2 4389   7.329   2.682   2.873  0.0952  0.1306  0.4083
   35DOPE   HN3 4390   7.253   2.557   2.930  1.0332  0.1620 -0.6447
   35DOPE   C12 4391   7.284   2.708   3.078  0.1598  0.5928 -0.6811
   35DOPE  H12A 4392   7.395   2.700   3.079  0.0743 -0.8672  0.3501
   35DOPE  H12B 4393   7.251   2.634   3.154  4.0112 -0.0973  0.5472
   35DOPE   C11 4394   7.231   2.847   3.113 -0.6368  0.1083  0.0784
   35DOPE  H11A 4395   7.294   2.914   3.049  0.7127 -2.5389 -1.5722
   35DOPE  H11B 4396   7.252   2.871   3.219  1.4989 -1.2492  0.0322
   35DOPE     P 4397   6.988   2.829   3.168 -0.1206 -0.2744 -0.1972
   35DOPE   O13 4398   6.861   2.821   3.084  0.5079  0.7036 -0.5836
   35DOPE   O14 4399   6.991   2.926   3.281 -0.1547 -0.0256  0.4626
   35DOPE   O11 4400   7.031   2.689   3.216  0.0621 -0.4950  0.4199
   35DOPE   O12 4401   7.103   2.865   3.067  0.4245  0.3812  0.1746
   35DOPE    C1 4402   6.974   2.572   3.150 -0.5709  1.0847  0.5680
   35DOPE    HA 4403   7.049   2.491   3.141 -0.5302  1.2404 -0.6436
   35DOPE    HB 4404   6.938   2.590   3.046 -1.7105  0.2566  0.8048
   35DOPE    C2 4405   6.858   2.518   3.238 -0.9191  0.6831 -0.6547
   35DOPE    HS 4406   6.792   2.604   3.263  0.0852  0.3423  4.0674
   35DOPE   O21 4407   6.914   2.465   3.364 -0.5748 -0.2487  0.4175
   35DOPE   C21 4408   6.837   2.463   3.469  0.4990 -0.0649 -0.2040
   35DOPE   O22 4409   6.726   2.505   3.474  0.7147  0.1294  0.2495
   35DOPE   C22 4410   6.931   2.419   3.584  0.8133 -0.0288 -0.5054
   35DOPE   H2R 4411   6.996   2.503   3.616  0.5312 -0.3577  1.0055
   35DOPE   H2S 4412   7.000   2.339   3.549  3.1184  0.2017  3.0300
   35DOPE    C3 4413   6.791   2.411   3.156  0.3110  0.2340  0.3862
   35DOPE    HX 4414   6.863   2.332   3.128 -0.4715 -0.2416 -0.3290
   35DOPE    HY 4415   6.753   2.456   3.062  0.0793 -0.7208  0.0066
   35DOPE   O31 4416   6.682   2.345   3.234  0.2397 -0.0874  0.0308
   35DOPE   C31 4417   6.565   2.405   3.234 -0.4121  0.5196 -0.0235
   35DOPE   O32 4418   6.531   2.490   3.158  0.5856 -0.9371  1.0644
   35DOPE   C32 4419   6.468   2.335   3.334 -0.1249 -0.2153  0.4712
   35DOPE   H2X 4420   6.449   2.234   3.292 -1.0567  0.7308 -1.5297
   35DOPE   H2Y 4421   6.521   2.336   3.431  2.1619  2.0534 -0.6644
   35DOPE   C23 4422   6.856   2.381   3.718  0.0964  0.1909 -0.2392
   35DOPE   H3R 4423   6.807   2.284   3.696 -1.4786  0.9758 -0.3393
   35DOPE   H3S 4424   6.777   2.457   3.739 -0.5188 -0.3506 -0.5640
   35DOPE   C24 4425   6.958   2.358   3.832  0.3827 -0.0706 -0.1287
   35DOPE   H4R 4426   7.017   2.452   3.841  0.5030 -0.1088 -0.5381
   35DOPE   H4S 4427   7.026   2.278   3.797 -0.4877 -0.0308 -2.0107
   35DOPE   C25 4428   6.889   2.342   3.969 -0.3717 -0.1578 -0.3848
   35DOPE   H5R 4429   6.841   2.242   3.973 -0.8334  0.0876  0.6127
   35DOPE   H5S 4430   6.814   2.423   3.978  0.0014  0.3954 -2.0573
   35DOPE   C26 4431   6.994   2.344   4.080  0.5231 -0.1789  0.1979
   35DOPE   H6R 4432   7.048   2.440   4.096  1.4853 -0.1655 -2.5747
   35DOPE   H6S 4433   7.078   2.274   4.059  1.1729  1.2642 -2.5790
   35DOPE   C27 4434   6.934   2.310   4.216  0.2639  0.1243 -0.2577
   35DOPE   H7R 4435   6.853   2.385   4.229 -0.0057 -0.1588 -0.2988
   35DOPE   H7S 4436   7.017   2.320   4.289 -0.8747  0.3845  1.0500
   35DOPE   C28 4437   6.869   2.165   4.232 -0.9363 -0.3699 -0.1481
   35DOPE   H8R 4438   6.953   2.103   4.192  1.0371  0.8850  1.8287
   35DOPE   H8S 4439   6.776   2.160   4.172 -0.4703 -2.5686 -0.7878
   35DOPE   C29 4440   6.848   2.152   4.375 -0.0250  1.0321 -0.1718
   35DOPE   H9R 4441   6.937   2.104   4.419  1.5196  2.0904 -1.9453
   35DOPE  C210 4442   6.738   2.177   4.446 -0.6333  0.1158 -0.1987
   35DOPE  H10R 4443   6.735   2.160   4.555 -2.9403 -0.3360 -0.2918
   35DOPE  C211 4444   6.608   2.224   4.401  0.8195  0.3096 -1.9072
   35DOPE  H11R 4445   6.529   2.164   4.451  2.6004 -0.0723  0.7016
   35DOPE  H11S 4446   6.595   2.216   4.291  1.4852 -3.1713 -1.8644
   35DOPE  C212 4447   6.566   2.369   4.440  0.2136 -0.3452  0.1536
   35DOPE  H12R 4448   6.466   2.372   4.392  0.4097  3.1763 -0.2929
   35DOPE  H12S 4449   6.625   2.452   4.395 -2.0184  1.4040  0.2975
   35DOPE  C213 4450   6.540   2.390   4.595  0.0919 -0.3787  0.3272
   35DOPE  H13R 4451   6.638   2.406   4.645  0.3729 -0.2186 -0.2727
   35DOPE  H13S 4452   6.490   2.295   4.624 -3.3728  1.5139  1.0495
   35DOPE  C214 4453   6.441   2.507   4.619  0.0350  0.2921  0.1845
   35DOPE  H14R 4454   6.419   2.489   4.726  0.8868 -0.6291  0.2207
   35DOPE  H14S 4455   6.347   2.494   4.560  0.3610 -0.3377 -0.2084
   35DOPE  C215 4456   6.506   2.647   4.599  0.3867 -0.2110 -0.0077
   35DOPE  H15R 4457   6.530   2.644   4.490  0.3946 -1.1538  0.0123
   35DOPE  H15S 4458   6.602   2.659   4.654 -0.4187 -1.3079  1.7113
   35DOPE  C216 4459   6.416   2.774   4.644  0.1220  0.0555  0.3494
   35DOPE  H16R 4460   6.380   2.749   4.745  1.7215 -2.4650  0.3779
   35DOPE  H16S 4461   6.328   2.771   4.575  0.0660  0.7793  0.3779
   35DOPE  C217 4462   6.494   2.904   4.637 -0.5950  0.1855 -0.2970
   35DOPE  H17R 4463   6.542   2.914   4.537  0.7186  1.2096  0.3982
   35DOPE  H17S 4464   6.577   2.885   4.708 -1.0742 -0.1532  0.1821
   35DOPE  C218 4465   6.417   3.029   4.669 -0.0531 -0.0276 -0.0262
   35DOPE  H18R 4466   6.368   3.030   4.768  1.6699 -1.0322  0.8991
   35DOPE  H18S 4467   6.365   3.080   4.586  0.9454  4.2430  1.7172
   35DOPE  H18T 4468   6.502   3.100   4.669  1.5107 -1.8059 -0.2906
   35DOPE   C33 4469   6.319   2.396   3.335  0.0896  0.2497  0.5639
   35DOPE   H3X 4470   6.252   2.332   3.396 -1.7854 -1.0416 -2.6049
   35DOPE   H3Y 4471   6.280   2.389   3.232 -0.7692  0.7019  0.8583
   35DOPE   C34 4472   6.313   2.536   3.399  0.7241  0.1856  0.3444
   35DOPE   H4X 4473   6.371   2.602   3.331  1.7291  0.1090  1.1042
   35DOPE   H4Y 4474   6.208   2.571   3.392  0.9407  0.5899 -1.3751
   35DOPE   C35 4475   6.360   2.535   3.545  1.3448 -0.1785 -0.0650
   35DOPE   H5X 4476   6.471   2.535   3.547  1.3991 -2.8830 -0.1616
   35DOPE   H5Y 4477   6.341   2.435   3.589 -1.7405 -0.3274 -1.4745
   35DOPE   C36 4478   6.306   2.652   3.632  0.2660  0.0758 -0.2925
   35DOPE   H6X 4479   6.328   2.749   3.583  0.9306  0.4901  0.7826
   35DOPE   H6Y 4480   6.363   2.654   3.728 -0.8476 -1.9965  0.4700
   35DOPE   C37 4481   6.150   2.651   3.653  0.0233  0.0857 -0.4008
   35DOPE   H7X 4482   6.105   2.634   3.553  2.2201 -1.2196 -1.2440
   35DOPE   H7Y 4483   6.127   2.556   3.705 -1.0229 -0.0915 -1.1581
   35DOPE   C38 4484   6.095   2.777   3.726  0.5129  0.0270 -0.0056
   35DOPE   H8X 4485   5.984   2.785   3.720  0.4702  1.2203  1.5204
   35DOPE   H8Y 4486   6.121   2.877   3.686  1.0256  0.3586  1.1221
   35DOPE   C39 4487   6.122   2.781   3.878  0.3468  0.4188 -0.0333
   35DOPE   H9X 4488   6.226   2.801   3.910 -0.0183  0.4530  1.1757
   35DOPE  C310 4489   6.030   2.745   3.966  0.3034  0.4450  0.1896
   35DOPE  H10X 4490   6.047   2.738   4.074 -0.6621  1.2756  0.4068
   35DOPE  C311 4491   5.893   2.699   3.952  0.3766 -0.5008  0.0306
   35DOPE  H11X 4492   5.833   2.751   4.029 -0.8142  0.2015 -1.3289
   35DOPE  H11Y 4493   5.842   2.719   3.855 -0.8264  0.7065  0.8784
   35DOPE  C312 4494   5.885   2.551   3.969  0.1372 -0.2918 -0.2833
   35DOPE  H12X 4495   5.970   2.496   3.924  0.5888 -0.5120  0.8202
   35DOPE  H12Y 4496   5.790   2.513   3.925 -1.8994  1.8110  1.9817
   35DOPE  C313 4497   5.874   2.503   4.116 -0.7136  0.1447 -0.1270
   35DOPE  H13X 4498   5.976   2.518   4.158  1.0756 -0.5173 -3.8940
   35DOPE  H13Y 4499   5.798   2.559   4.175  0.0514  0.7282  0.3257
   35DOPE  C314 4500   5.843   2.358   4.137  0.5297 -0.0474  0.0727
   35DOPE  H14X 4501   5.833   2.334   4.244  0.5324  1.5338  0.4607
   35DOPE  H14Y 4502   5.921   2.289   4.100  0.1233  0.5393 -2.0658
   35DOPE  C315 4503   5.709   2.316   4.083 -0.1313  0.0902  0.2357
   35DOPE  H15X 4504   5.704   2.325   3.972 -1.4864  0.0444  0.2730
   35DOPE  H15Y 4505   5.631   2.385   4.124 -1.0723  0.5651 -2.1728
   35DOPE  C316 4506   5.668   2.170   4.110 -0.5166  0.6488  0.0169
   35DOPE  H16X 4507   5.754   2.115   4.066 -0.7604 -0.7514  1.2236
   35DOPE  H16Y 4508   5.578   2.149   4.048 -1.6460 -0.4321  1.9265
   35DOPE  C317 4509   5.662   2.138   4.256 -0.4653  0.4434 -0.3023
   35DOPE  H17X 4510   5.663   2.027   4.261  0.7262  0.4452 -0.3842
   35DOPE  H17Y 4511   5.755   2.167   4.308 -1.2024  2.1552  0.1289
   35DOPE  C318 4512   5.541   2.190   4.323 -0.7126  0.0721  0.7517
   35DOPE  H18X 4513   5.547   2.298   4.346  0.5013  0.3374 -0.6457
   35DOPE  H18Y 4514   5.455   2.166   4.256 -0.0428  1.7282 -0.7896
   35DOPE  H18Z 4515   5.516   2.131   4.414  0.0515 -0.6275  0.5249
   36DOPE     N 4516   5.466   3.991   3.041  0.0236 -0.7868  0.7150
   36DOPE   HN1 4517   5.382   4.037   3.083  0.7924  0.3505  1.0453
   36DOPE   HN2 4518   5.442   3.930   2.960 -0.3553  1.9755 -1.3782
   36DOPE   HN3 4519   5.501   3.925   3.114 -1.0069 -1.0460  0.9949
   36DOPE   C12 4520   5.562   4.093   2.993 -0.6428  0.0243 -0.0495
   36DOPE  H12A 4521   5.597   4.155   3.078  4.4837  0.0772 -1.8575
   36DOPE  H12B 4522   5.520   4.158   2.913 -0.7417 -0.7563 -0.6531
   36DOPE   C11 4523   5.680   4.025   2.925 -0.1571  0.2111  0.4405
   36DOPE  H11A 4524   5.746   4.101   2.878 -0.5993  0.9160  0.9402
   36DOPE  H11B 4525   5.656   3.952   2.846 -0.6073  0.0728  0.7046
   36DOPE     P 4526   5.899   3.898   2.995  0.1199 -0.5126 -0.4587
   36DOPE   O13 4527   5.925   3.907   2.852 -0.0622  0.1848  0.2473
   36DOPE   O14 4528   5.936   3.771   3.057  0.4390  0.2443 -0.1334
   36DOPE   O11 4529   5.989   4.006   3.066  0.4199  0.1198 -0.2921
   36DOPE   O12 4530   5.749   3.937   3.014  0.7458 -0.1542  0.8394
   36DOPE    C1 4531   6.028   4.001   3.204  0.3640  0.6663 -0.4031
   36DOPE    HA 4532   6.007   3.900   3.243 -1.5979  1.0068 -0.4582
   36DOPE    HB 4533   5.967   4.071   3.265 -0.3089  1.0632 -1.4936
   36DOPE    C2 4534   6.183   4.035   3.219  0.0846 -0.4625  0.9051
   36DOPE    HS 4535   6.229   4.004   3.315  4.4300  0.5194 -0.6233
   36DOPE   O21 4536   6.204   4.178   3.200  0.5393 -0.1184  0.4359
   36DOPE   C21 4537   6.169   4.250   3.313 -0.0747  0.4609 -0.0476
   36DOPE   O22 4538   6.128   4.195   3.415 -0.1762 -0.5934 -0.3591
   36DOPE   C22 4539   6.193   4.397   3.296 -0.3686  0.6124 -0.8607
   36DOPE   H2R 4540   6.144   4.436   3.204  1.0203 -0.8919 -2.3302
   36DOPE   H2S 4541   6.303   4.404   3.277 -0.3313  1.4224 -0.3841
   36DOPE    C3 4542   6.266   3.953   3.115 -0.8121  0.0510  0.5613
   36DOPE    HX 4543   6.247   3.986   3.010 -1.5600  0.4794  0.8248
   36DOPE    HY 4544   6.222   3.851   3.111  0.4707 -0.5264  0.3810
   36DOPE   O31 4545   6.408   3.941   3.159 -0.1428 -0.6293  0.3654
   36DOPE   C31 4546   6.493   4.045   3.125 -0.4746  0.2912 -0.6296
   36DOPE   O32 4547   6.466   4.130   3.045  0.4535 -0.2843 -0.0139
   36DOPE   C32 4548   6.630   4.028   3.190  0.3195 -0.1159  1.3152
   36DOPE   H2X 4549   6.669   3.925   3.177  1.6665  0.4549  0.5725
   36DOPE   H2Y 4550   6.698   4.083   3.121  2.1764 -3.2060  0.4695
   36DOPE   C23 4551   6.178   4.488   3.421  0.3187 -0.4783 -0.0273
   36DOPE   H3R 4552   6.229   4.585   3.404  0.1803 -0.6791 -1.8213
   36DOPE   H3S 4553   6.230   4.434   3.503 -0.5164 -0.1742  0.7262
   36DOPE   C24 4554   6.033   4.525   3.442  0.5200 -0.3188  0.1241
   36DOPE   H4R 4555   5.967   4.446   3.400 -0.3341 -0.0254  0.8727
   36DOPE   H4S 4556   6.001   4.621   3.396  1.2083  0.4154  1.1228
   36DOPE   C25 4557   5.993   4.549   3.592 -0.9046  0.0132 -0.3148
   36DOPE   H5R 4558   6.045   4.637   3.636  0.1862 -1.0989  0.6752
   36DOPE   H5S 4559   6.014   4.462   3.657  0.2236  0.6985  0.2653
   36DOPE   C26 4560   5.844   4.578   3.606  0.0118 -0.2318  0.5037
   36DOPE   H6R 4561   5.795   4.498   3.548 -0.4157  1.6592 -1.9115
   36DOPE   H6S 4562   5.814   4.666   3.545  0.6053 -0.4309 -0.0941
   36DOPE   C27 4563   5.793   4.563   3.748 -0.4263 -0.2049 -0.2990
   36DOPE   H7R 4564   5.816   4.459   3.781  0.1155  0.2915  0.9149
   36DOPE   H7S 4565   5.682   4.566   3.747 -0.6105 -3.2960 -0.5670
   36DOPE   C28 4566   5.840   4.662   3.863  0.7344  0.3682 -0.5140
   36DOPE   H8R 4567   5.948   4.652   3.891  0.5935  0.8502  0.2467
   36DOPE   H8S 4568   5.790   4.620   3.953 -0.8975 -0.7278 -1.8762
   36DOPE   C29 4569   5.799   4.805   3.838 -0.3725 -0.3570  0.5408
   36DOPE   H9R 4570   5.710   4.820   3.775 -0.9889 -2.0230  0.9421
   36DOPE  C210 4571   5.868   4.911   3.883  0.0477 -0.0898  0.6836
   36DOPE  H10R 4572   5.840   5.010   3.844  0.2098 -0.8114 -1.3555
   36DOPE  C211 4573   5.993   4.909   3.965  0.5533 -0.1664  0.1846
   36DOPE  H11R 4574   5.992   4.823   4.036 -1.6477 -0.3277  0.0303
   36DOPE  H11S 4575   5.999   4.989   4.042 -1.7350  0.0933  0.1494
   36DOPE  C212 4576   6.118   4.889   3.885  0.5127 -0.3154  0.4865
   36DOPE  H12R 4577   6.136   4.968   3.809  0.2722 -1.3505 -0.6811
   36DOPE  H12S 4578   6.109   4.801   3.819  2.0635  0.8860 -1.4403
   36DOPE  C213 4579   6.245   4.874   3.971  0.1727 -0.1617  0.0223
   36DOPE  H13R 4580   6.239   4.770   4.010 -0.3898 -0.6106 -1.1944
   36DOPE  H13S 4581   6.245   4.923   4.071  2.4546 -3.4993  1.8564
   36DOPE  C214 4582   6.374   4.919   3.909  0.1751 -0.1433 -0.0731
   36DOPE  H14R 4583   6.438   4.978   3.978 -0.9180  1.4754 -0.3962
   36DOPE  H14S 4584   6.355   5.007   3.843 -0.8538  1.6030  2.3897
   36DOPE  C215 4585   6.466   4.816   3.837  0.3325 -0.4427  0.0840
   36DOPE  H15R 4586   6.460   4.721   3.894  0.9185  0.0795  1.0373
   36DOPE  H15S 4587   6.572   4.847   3.848  0.1117 -0.2539  2.0302
   36DOPE  C216 4588   6.430   4.757   3.708  0.0496  0.3915 -0.0657
   36DOPE  H16R 4589   6.323   4.775   3.685 -0.5075  1.0692  2.6712
   36DOPE  H16S 4590   6.439   4.646   3.706 -3.0972  0.0432 -1.4670
   36DOPE  C217 4591   6.513   4.819   3.597 -0.6758 -0.3552  0.5483
   36DOPE  H17R 4592   6.622   4.812   3.618 -0.8264 -1.6242  0.9963
   36DOPE  H17S 4593   6.496   4.928   3.579  3.1176  0.0420 -1.7875
   36DOPE  C218 4594   6.496   4.748   3.459 -0.1722  0.3803 -0.5691
   36DOPE  H18R 4595   6.540   4.808   3.377  1.7253 -0.8556 -0.5052
   36DOPE  H18S 4596   6.388   4.730   3.441 -0.3669  1.3371 -0.4153
   36DOPE  H18T 4597   6.545   4.648   3.456  2.4223  1.5810 -0.5381
   36DOPE   C33 4598   6.630   4.081   3.338  0.2447 -0.1194  0.0667
   36DOPE   H3X 4599   6.737   4.068   3.367 -0.3416 -2.4922  1.4648
   36DOPE   H3Y 4600   6.573   4.016   3.407  0.1733  2.1087  2.2288
   36DOPE   C34 4601   6.581   4.221   3.367  0.2648 -0.5207  0.6741
   36DOPE   H4X 4602   6.656   4.282   3.314 -0.1131  0.2550  1.0171
   36DOPE   H4Y 4603   6.485   4.249   3.317 -0.4831 -0.8165  1.8909
   36DOPE   C35 4604   6.565   4.262   3.513 -0.1424  0.2431 -0.7228
   36DOPE   H5X 4605   6.576   4.372   3.527  1.9414  0.2164 -1.7928
   36DOPE   H5Y 4606   6.645   4.206   3.566 -0.8755  0.5012  0.6877
   36DOPE   C36 4607   6.439   4.207   3.584 -0.3554  0.2253 -0.5548
   36DOPE   H6X 4608   6.425   4.098   3.565 -0.9217  0.7371 -3.4957
   36DOPE   H6Y 4609   6.353   4.249   3.528 -0.7458 -0.8715 -0.8117
   36DOPE   C37 4610   6.438   4.225   3.741  0.0698 -0.2601  0.0039
   36DOPE   H7X 4611   6.538   4.199   3.782  0.1794  0.3838  0.1514
   36DOPE   H7Y 4612   6.428   4.335   3.748  0.7354  0.1371 -3.4221
   36DOPE   C38 4613   6.324   4.152   3.808 -0.3145  0.0569 -0.8689
   36DOPE   H8X 4614   6.354   4.147   3.915  1.7464  1.3682 -1.3258
   36DOPE   H8Y 4615   6.315   4.045   3.782 -0.5412 -0.4622  1.1307
   36DOPE   C39 4616   6.191   4.219   3.790  1.0408  0.0409 -0.9608
   36DOPE   H9X 4617   6.151   4.190   3.692 -0.2250 -2.3395  0.1735
   36DOPE  C310 4618   6.120   4.300   3.870 -0.7391 -0.5122 -0.0536
   36DOPE  H10X 4619   6.020   4.334   3.841  0.7130  1.8749 -2.6965
   36DOPE  C311 4620   6.175   4.335   4.006 -0.9478 -0.7843 -0.3584
   36DOPE  H11X 4621   6.159   4.248   4.073 -3.4027  0.8817  1.3687
   36DOPE  H11Y 4622   6.281   4.367   4.001 -1.4032  0.8697  0.0926
   36DOPE  C312 4623   6.101   4.451   4.064  0.2138  0.9406  0.0719
   36DOPE  H12X 4624   5.992   4.432   4.075  0.4215 -0.8702 -0.7416
   36DOPE  H12Y 4625   6.118   4.546   4.009  3.0053  0.9938  0.8806
   36DOPE  C313 4626   6.150   4.456   4.208 -0.1505  0.0460 -0.1111
   36DOPE  H13X 4627   6.124   4.362   4.261  2.0743  0.5886  2.1711
   36DOPE  H13Y 4628   6.261   4.462   4.213 -0.1523 -0.6052  3.1878
   36DOPE  C314 4629   6.092   4.580   4.284  0.0283  0.0136 -0.1243
   36DOPE  H14X 4630   5.997   4.561   4.338 -1.0225  3.7472 -0.3936
   36DOPE  H14Y 4631   6.063   4.661   4.214 -1.3333  0.2318  0.6554
   36DOPE  C315 4632   6.185   4.642   4.397  0.0792 -0.0791  0.7864
   36DOPE  H15X 4633   6.274   4.684   4.346 -0.1261 -0.6112 -0.0230
   36DOPE  H15Y 4634   6.211   4.565   4.473  0.0795  0.3561  1.2388
   36DOPE  C316 4635   6.104   4.739   4.484 -0.1711 -0.4905  0.6024
   36DOPE  H16X 4636   6.019   4.681   4.528 -0.8189 -1.2714 -1.5681
   36DOPE  H16Y 4637   6.070   4.826   4.423  0.0549  0.5260  1.8837
   36DOPE  C317 4638   6.183   4.797   4.596 -0.1408  0.0634 -0.0161
   36DOPE  H17X 4639   6.293   4.788   4.581 -0.3303 -1.6518 -0.5152
   36DOPE  H17Y 4640   6.168   4.907   4.593 -1.1407 -0.0113  1.2192
   36DOPE  C318 4641   6.152   4.742   4.737 -0.0450  0.0244 -0.0752
   36DOPE  H18X 4642   6.221   4.788   4.811 -0.4187 -0.3752  0.5310
   36DOPE  H18Y 4643   6.048   4.757   4.773 -0.7399 -2.4083 -0.8701
   36DOPE  H18Z 4644   6.181   4.634   4.737  1.6206  0.4359  0.6293
   37DOPE     N 4645   2.165   4.365   2.963 -0.3266 -0.4778  0.3037
   37DOPE   HN1 4646   2.162   4.363   2.859  0.4659 -1.8990  0.2906
   37DOPE   HN2 4647   2.084   4.415   3.006  1.0085  0.8068  1.4398
   37DOPE   HN3 4648   2.255   4.397   3.005 -0.7132 -1.0449  1.6181
   37DOPE   C12 4649   2.159   4.227   3.001 -0.0721  0.4055  0.8914
   37DOPE  H12A 4650   2.256   4.177   2.978  0.6514  1.7785  0.8088
   37DOPE  H12B 4651   2.078   4.180   2.941 -0.3597  1.2334  0.6201
   37DOPE   C11 4652   2.125   4.220   3.145  0.1110  0.1701  0.8479
   37DOPE  H11A 4653   2.204   4.266   3.208  1.6726 -0.2518 -0.7223
   37DOPE  H11B 4654   2.126   4.113   3.173  0.7677 -0.0274  0.1042
   37DOPE     P 4655   1.865   4.192   3.175 -0.1169  0.0283 -0.0333
   37DOPE   O13 4656   1.842   4.139   3.037 -0.0077  0.0240 -0.0744
   37DOPE   O14 4657   1.755   4.269   3.241 -0.2299 -0.3445  0.0477
   37DOPE   O11 4658   1.908   4.069   3.278 -0.0896  0.4848 -0.3327
   37DOPE   O12 4659   1.999   4.282   3.178 -0.6354 -0.4463 -0.4275
   37DOPE    C1 4660   1.926   4.099   3.416  0.1465 -0.1493  0.5874
   37DOPE    HA 4661   1.968   4.200   3.434  0.2878  0.1489 -1.1795
   37DOPE    HB 4662   1.998   4.023   3.454  0.0885 -0.4619  0.0817
   37DOPE    C2 4663   1.799   4.073   3.501  0.1911  0.2391 -0.4180
   37DOPE    HS 4664   1.719   4.147   3.480 -0.2181 -0.3835 -1.0678
   37DOPE   O21 4665   1.840   4.071   3.638 -0.3878 -0.2311 -0.1407
   37DOPE   C21 4666   1.854   4.185   3.695 -0.1931  0.0747 -0.3727
   37DOPE   O22 4667   1.814   4.294   3.661  0.4242  0.2417 -0.1257
   37DOPE   C22 4668   1.924   4.161   3.830  1.0041 -0.2121 -0.1177
   37DOPE   H2R 4669   2.029   4.196   3.825  0.1159  2.5690 -0.7818
   37DOPE   H2S 4670   1.922   4.051   3.848 -3.2176 -0.3190 -0.2502
   37DOPE    C3 4671   1.728   3.940   3.454 -0.6122  0.1365 -1.1825
   37DOPE    HX 4672   1.801   3.860   3.429 -1.4105 -0.5119 -1.4537
   37DOPE    HY 4673   1.683   3.970   3.357 -0.2346  0.6213 -1.2132
   37DOPE   O31 4674   1.619   3.889   3.536 -0.0769  0.0790  0.2198
   37DOPE   C31 4675   1.589   3.766   3.506  0.3139 -0.6933 -0.4165
   37DOPE   O32 4676   1.637   3.694   3.421 -0.2348 -0.1636  0.2843
   37DOPE   C32 4677   1.476   3.730   3.608 -0.4233  0.0888 -0.5495
   37DOPE   H2X 4678   1.497   3.629   3.649 -1.4560  1.1926  3.1492
   37DOPE   H2Y 4679   1.459   3.799   3.694 -1.6428  0.3013 -0.9367
   37DOPE   C23 4680   1.855   4.231   3.951  1.0923  0.0701  0.0818
   37DOPE   H3R 4681   1.748   4.216   3.925  1.9840 -3.4969 -2.2490
   37DOPE   H3S 4682   1.884   4.337   3.939 -0.4036  0.6333  1.0975
   37DOPE   C24 4683   1.898   4.175   4.080  0.2610 -0.3840 -1.2625
   37DOPE   H4R 4684   2.009   4.178   4.089  0.1791 -0.0702 -0.2216
   37DOPE   H4S 4685   1.881   4.066   4.070 -0.5804 -0.3616 -0.2891
   37DOPE   C25 4686   1.852   4.229   4.218 -0.6446  0.5327 -0.2696
   37DOPE   H5R 4687   1.743   4.249   4.216 -0.9042 -0.8194 -0.1856
   37DOPE   H5S 4688   1.907   4.325   4.228  2.6199 -0.4649 -5.1376
   37DOPE   C26 4689   1.884   4.134   4.336  0.3019  0.3068  0.3357
   37DOPE   H6R 4690   1.869   4.184   4.434 -2.2763  0.6311 -0.1572
   37DOPE   H6S 4691   1.990   4.101   4.332 -0.0439 -0.9771  1.2274
   37DOPE   C27 4692   1.788   4.013   4.328  0.2972  0.6233  0.0115
   37DOPE   H7R 4693   1.790   3.971   4.225 -0.4037  1.1313 -0.2156
   37DOPE   H7S 4694   1.686   4.049   4.354  0.6698  0.0675  2.5000
   37DOPE   C28 4695   1.826   3.908   4.435 -1.0691  0.2229 -0.3375
   37DOPE   H8R 4696   1.765   3.941   4.522  1.0352  0.2215  1.2107
   37DOPE   H8S 4697   1.929   3.923   4.475 -1.5508  1.1145  0.6166
   37DOPE   C29 4698   1.781   3.768   4.385  0.2527 -0.0012  0.4780
   37DOPE   H9R 4699   1.690   3.725   4.428 -0.7541  0.9257 -0.6372
   37DOPE  C210 4700   1.852   3.690   4.307 -0.3568 -0.4516  0.2076
   37DOPE  H10R 4701   1.812   3.589   4.290  1.2275 -1.1477  0.4495
   37DOPE  C211 4702   1.986   3.718   4.247  0.0044  0.0716  0.4520
   37DOPE  H11R 4703   2.023   3.814   4.290 -2.3936  0.5086  1.7516
   37DOPE  H11S 4704   1.980   3.728   4.137  1.9316 -0.4991  0.2627
   37DOPE  C212 4705   2.098   3.618   4.277 -0.8756  0.0847 -0.0433
   37DOPE  H12R 4706   2.188   3.661   4.228 -0.2858 -0.2647  0.7109
   37DOPE  H12S 4707   2.061   3.529   4.222 -0.1720 -0.1276 -0.1875
   37DOPE  C213 4708   2.130   3.584   4.426 -0.3807  0.0485  0.0230
   37DOPE  H13R 4709   2.205   3.502   4.429 -0.9413 -0.4470  2.2886
   37DOPE  H13S 4710   2.046   3.534   4.479  0.1889 -3.3411 -1.9323
   37DOPE  C214 4711   2.169   3.693   4.522  0.1908 -0.2739  1.2743
   37DOPE  H14R 4712   2.074   3.741   4.555  0.4447  1.8746 -0.7993
   37DOPE  H14S 4713   2.247   3.757   4.477  0.0236 -1.0625 -0.2072
   37DOPE  C215 4714   2.243   3.645   4.649 -0.3451  0.0007  0.0692
   37DOPE  H15R 4715   2.262   3.731   4.716 -0.4030 -0.1974  0.3392
   37DOPE  H15S 4716   2.348   3.615   4.627 -0.2602  1.2134 -1.3581
   37DOPE  C216 4717   2.175   3.537   4.723 -0.1624  0.0756 -0.8864
   37DOPE  H16R 4718   2.157   3.446   4.661 -2.0546 -0.4689  0.3437
   37DOPE  H16S 4719   2.081   3.579   4.765  1.3663  3.6854 -0.7520
   37DOPE  C217 4720   2.257   3.470   4.837 -0.7876  0.3085  0.4545
   37DOPE  H17R 4721   2.196   3.437   4.924  0.0947 -0.8061  0.6754
   37DOPE  H17S 4722   2.314   3.552   4.886  1.9793  0.4765 -2.7279
   37DOPE  C218 4723   2.347   3.355   4.788  0.1430 -0.0824 -0.0127
   37DOPE  H18R 4724   2.278   3.278   4.747 -1.4739  1.9915 -1.3659
   37DOPE  H18S 4725   2.411   3.313   4.869  2.3789  1.5111 -0.8272
   37DOPE  H18T 4726   2.424   3.387   4.715  1.4409  2.1072  2.1462
   37DOPE   C33 4727   1.339   3.738   3.541  0.7086  0.0896 -0.5127
   37DOPE   H3X 4728   1.338   3.680   3.446 -0.2753 -1.3823  0.3662
   37DOPE   H3Y 4729   1.318   3.840   3.501 -2.3981 -0.3669 -0.2558
   37DOPE   C34 4730   1.210   3.705   3.625  0.0668  0.6519 -0.1115
   37DOPE   H4X 4731   1.226   3.610   3.680 -4.1063 -0.0560  0.2459
   37DOPE   H4Y 4732   1.191   3.777   3.708  0.2580 -1.6344  2.0247
   37DOPE   C35 4733   1.086   3.704   3.535 -0.2108  0.3404  0.6267
   37DOPE   H5X 4734   1.082   3.797   3.474 -1.9933 -0.9894 -1.3991
   37DOPE   H5Y 4735   1.001   3.691   3.605 -1.8223  0.7024 -1.1847
   37DOPE   C36 4736   1.075   3.576   3.442 -0.5150 -0.0098  0.6391
   37DOPE   H6X 4737   1.096   3.483   3.498  0.2163  0.4720  1.1859
   37DOPE   H6Y 4738   1.153   3.595   3.365  0.3237 -1.1204  1.1826
   37DOPE   C37 4739   0.946   3.572   3.365  0.3392  0.3986 -0.1250
   37DOPE   H7X 4740   0.949   3.669   3.310  2.4261 -0.0129 -0.8268
   37DOPE   H7Y 4741   0.946   3.490   3.290 -0.7995 -2.0076  2.3484
   37DOPE   C38 4742   0.816   3.565   3.447 -0.6819  0.4743 -0.0040
   37DOPE   H8X 4743   0.803   3.633   3.533  0.3315  1.1161 -0.3447
   37DOPE   H8Y 4744   0.804   3.462   3.486 -1.4353  0.5501 -0.0110
   37DOPE   C39 4745   0.706   3.589   3.350 -0.7898 -0.2947  0.5988
   37DOPE   H9X 4746   0.723   3.553   3.248 -0.1522  0.6050  0.3712
   37DOPE  C310 4747   0.587   3.651   3.369 -0.0922  0.0792 -0.5327
   37DOPE  H10X 4748   0.519   3.646   3.283  0.0898 -0.9466 -0.6366
   37DOPE  C311 4749   0.534   3.710   3.496  0.2294 -0.1203 -0.2437
   37DOPE  H11X 4750   0.604   3.697   3.581  0.9534  0.2096 -0.7867
   37DOPE  H11Y 4751   0.532   3.820   3.480  1.7797 -0.1159 -0.5051
   37DOPE  C312 4752   0.388   3.672   3.515 -0.4662  0.0157 -0.0356
   37DOPE  H12X 4753   0.375   3.562   3.509 -0.6513  0.0106  0.3911
   37DOPE  H12Y 4754   0.330   3.704   3.426  0.6768 -0.1065 -0.8365
   37DOPE  C313 4755   0.314   3.731   3.638  0.4161 -0.8220  0.5153
   37DOPE  H13X 4756   0.309   3.841   3.620  1.1350 -0.8404  0.1756
   37DOPE  H13Y 4757   0.208   3.701   3.630 -0.3005  1.9367 -1.6677
   37DOPE  C314 4758   0.379   3.716   3.774  0.2773  0.5016 -0.4534
   37DOPE  H14X 4759   0.318   3.775   3.846  1.4603 -0.2434  1.2317
   37DOPE  H14Y 4760   0.483   3.755   3.781  1.2708 -2.0329  0.0358
   37DOPE  C315 4761   0.386   3.568   3.814 -0.3868  0.3272 -0.0772
   37DOPE  H15X 4762   0.464   3.556   3.892 -1.4797 -0.0237  0.9855
   37DOPE  H15Y 4763   0.430   3.513   3.729 -0.0585 -0.7952  0.7933
   37DOPE  C316 4764   0.256   3.497   3.844  1.0391  0.5630  0.1157
   37DOPE  H16X 4765   0.181   3.522   3.766  0.4170 -0.8251  0.2345
   37DOPE  H16Y 4766   0.208   3.518   3.942  1.2454 -1.3575  0.6672
   37DOPE  C317 4767   0.274   3.344   3.824 -0.8893 -0.1462 -0.0916
   37DOPE  H17X 4768   0.364   3.315   3.882 -0.4938  0.9644 -0.1177
   37DOPE  H17Y 4769   0.187   3.301   3.876  0.2010 -0.4350  1.5545
   37DOPE  C318 4770   0.290   3.302   3.681 -0.2282  0.3198  0.8418
   37DOPE  H18X 4771   0.380   3.336   3.626 -0.2305 -0.8394  0.0771
   37DOPE  H18Y 4772   0.286   3.191   3.675  1.2170  0.1930  1.7315
   37DOPE  H18Z 4773   0.204   3.332   3.618  0.2122  2.5020  1.2065
   38DOPE     N 4774   4.170   4.735   2.956 -0.1112 -0.2632  0.6786
   38DOPE   HN1 4775   4.239   4.768   2.886 -1.4973  0.6653 -0.3290
   38DOPE   HN2 4776   4.150   4.635   2.938  2.1751 -0.4951 -1.0078
   38DOPE   HN3 4777   4.088   4.799   2.947  0.1315 -0.0549 -0.1295
   38DOPE   C12 4778   4.240   4.767   3.087 -0.0071  0.9488 -0.2468
   38DOPE  H12A 4779   4.188   4.720   3.173  1.1056  0.5512  0.2403
   38DOPE  H12B 4780   4.244   4.878   3.093  0.2665  0.8855  0.9508
   38DOPE   C11 4781   4.389   4.713   3.086  0.0467  1.0441 -0.1172
   38DOPE  H11A 4782   4.373   4.603   3.086  1.1789  0.8678  0.7564
   38DOPE  H11B 4783   4.445   4.743   3.178  0.8192 -0.3162 -0.1221
   38DOPE     P 4784   4.553   4.869   2.954  0.2076 -0.6904 -0.2494
   38DOPE   O13 4785   4.472   4.995   2.942  0.0883  0.1814 -0.3270
   38DOPE   O14 4786   4.645   4.839   2.844 -0.1898  0.1016  0.1592
   38DOPE   O11 4787   4.619   4.859   3.095 -0.4552  0.1815  0.2809
   38DOPE   O12 4788   4.453   4.751   2.959 -0.0999  0.2716 -0.0199
   38DOPE    C1 4789   4.709   4.753   3.134  0.3284  0.7922 -0.4388
   38DOPE    HA 4790   4.808   4.756   3.084 -0.2722  0.6829 -1.6603
   38DOPE    HB 4791   4.662   4.660   3.099 -1.0382  0.6179  1.6487
   38DOPE    C2 4792   4.724   4.745   3.290  0.5415 -0.3376  0.2633
   38DOPE    HS 4793   4.808   4.686   3.334  0.0712 -1.1334  0.1258
   38DOPE   O21 4794   4.617   4.679   3.339  0.5379  0.0769  0.2805
   38DOPE   C21 4795   4.608   4.547   3.306 -0.0874 -0.2702  0.2338
   38DOPE   O22 4796   4.694   4.486   3.244 -0.5831  0.9589 -0.3015
   38DOPE   C22 4797   4.481   4.486   3.361 -0.2480 -0.1712  0.0058
   38DOPE   H2R 4798   4.454   4.399   3.298 -0.1072 -0.8228  0.8329
   38DOPE   H2S 4799   4.402   4.564   3.364  1.1645  1.4338 -1.8470
   38DOPE    C3 4800   4.719   4.887   3.362  0.2689  0.5683 -0.0794
   38DOPE    HX 4801   4.704   4.873   3.471 -0.6786 -0.2151 -0.2885
   38DOPE    HY 4802   4.626   4.931   3.320  0.8712  0.7033 -1.3238
   38DOPE   O31 4803   4.831   4.970   3.320 -0.1779 -0.2148 -0.3380
   38DOPE   C31 4804   4.935   4.981   3.402 -0.3025  0.3054 -0.3788
   38DOPE   O32 4805   4.939   4.946   3.518 -0.2301  0.2478 -0.0504
   38DOPE   C32 4806   5.045   5.051   3.326 -0.2205 -0.2113  0.7439
   38DOPE   H2X 4807   5.073   4.974   3.251  2.4665  4.4117 -3.6421
   38DOPE   H2Y 4808   5.000   5.131   3.264 -0.9681 -0.5960  0.7791
   38DOPE   C23 4809   4.520   4.435   3.506  0.1768 -0.1836  0.2436
   38DOPE   H3R 4810   4.572   4.512   3.565 -0.2683  1.4549 -1.4073
   38DOPE   H3S 4811   4.602   4.364   3.484 -0.7383 -1.1624 -0.1453
   38DOPE   C24 4812   4.409   4.357   3.576  0.0114 -0.5003 -0.6566
   38DOPE   H4R 4813   4.377   4.277   3.505 -0.8164  0.1819 -1.0721
   38DOPE   H4S 4814   4.319   4.422   3.585  0.4270  0.6153 -3.4466
   38DOPE   C25 4815   4.457   4.303   3.715 -0.0173  0.7342  0.5164
   38DOPE   H5R 4816   4.492   4.374   3.793 -3.0086  1.4578  1.3478
   38DOPE   H5S 4817   4.546   4.238   3.702  1.6404  2.6047  1.8871
   38DOPE   C26 4818   4.359   4.199   3.767  0.3445  0.7241 -0.4864
   38DOPE   H6R 4819   4.348   4.118   3.692 -0.0095 -2.7842  3.0194
   38DOPE   H6S 4820   4.265   4.257   3.779  0.6249  0.9844  0.6228
   38DOPE   C27 4821   4.405   4.131   3.888 -0.5076 -0.9489 -0.4700
   38DOPE   H7R 4822   4.414   4.208   3.967  1.3616 -0.4197 -1.1335
   38DOPE   H7S 4823   4.511   4.099   3.876 -0.7142 -1.6901 -0.3367
   38DOPE   C28 4824   4.305   4.022   3.937 -0.1852 -0.2993  0.3337
   38DOPE   H8R 4825   4.355   3.963   4.017  1.3271  1.3022  0.6201
   38DOPE   H8S 4826   4.292   3.954   3.851 -0.2051 -2.8868  2.2490
   38DOPE   C29 4827   4.173   4.085   3.987 -0.3081  0.8657 -0.3338
   38DOPE   H9R 4828   4.091   4.085   3.915 -1.1332 -2.6733  0.3964
   38DOPE  C210 4829   4.148   4.133   4.107  0.3275 -0.8884 -0.3341
   38DOPE  H10R 4830   4.045   4.166   4.126  0.5166 -0.9383  0.8446
   38DOPE  C211 4831   4.223   4.144   4.233  0.4128 -0.2909 -0.1793
   38DOPE  H11R 4832   4.237   4.250   4.262  2.0840 -0.7642  0.8305
   38DOPE  H11S 4833   4.326   4.105   4.224  1.4688  2.1730  0.6127
   38DOPE  C212 4834   4.151   4.077   4.360 -0.2429  0.3257  0.6920
   38DOPE  H12R 4835   4.118   3.975   4.333  0.3927 -0.1347  1.6158
   38DOPE  H12S 4836   4.057   4.135   4.371 -0.9269  0.4990 -3.8638
   38DOPE  C213 4837   4.235   4.068   4.483 -1.0133 -0.3738  0.2655
   38DOPE  H13R 4838   4.271   4.168   4.514 -1.9483 -0.4061  1.5627
   38DOPE  H13S 4839   4.322   4.006   4.455 -2.3789 -2.5630  0.5926
   38DOPE  C214 4840   4.173   4.001   4.600 -0.4068 -0.8533 -0.0381
   38DOPE  H14R 4841   4.153   3.896   4.571  1.1110 -1.4351  0.8747
   38DOPE  H14S 4842   4.080   4.059   4.617  0.1996  0.3968 -0.7723
   38DOPE  C215 4843   4.245   4.016   4.727 -0.0583 -1.0001 -0.4372
   38DOPE  H15R 4844   4.270   4.123   4.744 -1.2611 -0.6428 -0.8526
   38DOPE  H15S 4845   4.343   3.965   4.710  0.0351 -0.6486 -0.9606
   38DOPE  C216 4846   4.159   3.949   4.838 -0.2367 -0.2998  0.6196
   38DOPE  H16R 4847   4.122   3.851   4.802  2.0513 -0.7045 -0.8678
   38DOPE  H16S 4848   4.066   4.009   4.848 -0.5948 -0.7485  0.0593
   38DOPE  C217 4849   4.231   3.924   4.972 -0.6240 -0.5412 -0.0073
   38DOPE  H17R 4850   4.306   3.851   4.936 -0.0069 -1.0505  2.1195
   38DOPE  H17S 4851   4.158   3.886   5.047 -0.2899  0.8115  1.0449
   38DOPE  C218 4852   4.316   4.035   5.027  0.3610 -0.3975  0.0555
   38DOPE  H18R 4853   4.360   4.012   5.127  0.4477  4.0314  1.2520
   38DOPE  H18S 4854   4.267   4.135   5.034  0.3236 -0.0869 -3.3198
   38DOPE  H18T 4855   4.405   4.049   4.961  0.4205 -2.0656 -0.2693
   38DOPE   C33 4856   5.166   5.101   3.413 -0.5585 -0.1164 -0.4378
   38DOPE   H3X 4857   5.239   5.154   3.348 -0.6952 -1.2871 -1.5950
   38DOPE   H3Y 4858   5.207   5.005   3.451 -0.5625 -0.3195 -0.9376
   38DOPE   C34 4859   5.143   5.190   3.535 -0.4468 -1.0907 -0.3440
   38DOPE   H4X 4860   5.070   5.269   3.507 -0.0803 -0.5217  0.2870
   38DOPE   H4Y 4861   5.090   5.131   3.613  0.6863 -0.4991  0.9207
   38DOPE   C35 4862   5.270   5.256   3.587 -0.3027 -0.2794 -0.2166
   38DOPE   H5X 4863   5.295   5.342   3.523  0.9824  2.2905  3.4210
   38DOPE   H5Y 4864   5.350   5.179   3.588  2.0577  2.0372  0.7184
   38DOPE   C36 4865   5.243   5.293   3.729  0.5706  0.3325 -0.2543
   38DOPE   H6X 4866   5.199   5.211   3.790 -2.1702  2.6354  1.1101
   38DOPE   H6Y 4867   5.168   5.375   3.731  1.7204  1.4035  0.9558
   38DOPE   C37 4868   5.374   5.322   3.805 -0.0126 -0.1041  0.3645
   38DOPE   H7X 4869   5.358   5.298   3.912 -1.8641 -0.1953  0.1057
   38DOPE   H7Y 4870   5.440   5.242   3.767 -1.9963 -1.5052 -0.2982
   38DOPE   C38 4871   5.436   5.464   3.788  0.2252  0.0373 -0.9845
   38DOPE   H8X 4872   5.435   5.481   3.679  1.4282  2.3920 -0.6804
   38DOPE   H8Y 4873   5.539   5.458   3.830 -0.7029  0.3615  1.5202
   38DOPE   C39 4874   5.355   5.571   3.855  1.3281  0.6751 -0.0203
   38DOPE   H9X 4875   5.284   5.626   3.791  0.7970 -0.0533 -0.0627
   38DOPE  C310 4876   5.368   5.615   3.982 -0.2759 -0.5479  0.0715
   38DOPE  H10X 4877   5.299   5.691   4.023  2.7022  2.3334  0.1638
   38DOPE  C311 4878   5.474   5.565   4.083 -0.0448 -0.8909  0.2032
   38DOPE  H11X 4879   5.437   5.542   4.185  1.6885  0.0782  1.1025
   38DOPE  H11Y 4880   5.528   5.477   4.042  0.7982 -0.5546  0.5610
   38DOPE  C312 4881   5.583   5.674   4.090  0.1105 -1.0955  0.1445
   38DOPE  H12X 4882   5.619   5.709   3.991 -1.6754  1.7232  0.3936
   38DOPE  H12Y 4883   5.673   5.647   4.149 -0.1408  0.6552  1.4294
   38DOPE  C313 4884   5.533   5.798   4.160 -0.2614 -0.3753 -0.1421
   38DOPE  H13X 4885   5.605   5.880   4.144  0.1160 -1.0849 -2.3687
   38DOPE  H13Y 4886   5.437   5.832   4.114 -1.8761 -1.8887  1.8664
   38DOPE  C314 4887   5.513   5.785   4.319  0.0690  0.0111 -0.2546
   38DOPE  H14X 4888   5.435   5.708   4.340  0.9562 -0.5114  1.3143
   38DOPE  H14Y 4889   5.485   5.885   4.357  2.6078  0.4828  0.5515
   38DOPE  C315 4890   5.634   5.725   4.394 -0.2712  0.1909 -0.0546
   38DOPE  H15X 4891   5.718   5.796   4.382  0.0320 -0.3578 -1.3098
   38DOPE  H15Y 4892   5.679   5.640   4.339 -0.9767  0.1296 -0.5521
   38DOPE  C316 4893   5.605   5.717   4.536  0.0114  0.4067  0.1748
   38DOPE  H16X 4894   5.563   5.617   4.559 -2.1241  0.8897 -1.3492
   38DOPE  H16Y 4895   5.514   5.780   4.553  0.4553  1.1229 -0.0650
   38DOPE  C317 4896   5.719   5.758   4.628  0.1579 -0.4683  0.6270
   38DOPE  H17X 4897   5.787   5.671   4.621 -0.0630 -0.5727 -0.5438
   38DOPE  H17Y 4898   5.771   5.850   4.593  1.1628 -0.9356  0.8723
   38DOPE  C318 4899   5.682   5.779   4.776 -0.1804 -0.2564 -0.0639
   38DOPE  H18X 4900   5.636   5.878   4.795 -2.5067 -1.2076 -0.4402
   38DOPE  H18Y 4901   5.612   5.699   4.808  0.1534 -0.7064 -0.4238
   38DOPE  H18Z 4902   5.768   5.763   4.844  0.4120  0.6330 -0.5909
   39DOPE     N 4903   1.150   4.788   3.017  0.8189  0.4291 -0.2949
   39DOPE   HN1 4904   1.071   4.739   3.063  1.3305 -1.1770 -1.0569
   39DOPE   HN2 4905   1.234   4.746   3.062 -0.3544 -2.0055 -0.2191
   39DOPE   HN3 4906   1.142   4.891   3.033  1.0811  0.5425 -0.8905
   39DOPE   C12 4907   1.137   4.774   2.869  0.7936  0.3161  0.7680
   39DOPE  H12A 4908   1.240   4.763   2.829  0.3894 -1.1484  0.0349
   39DOPE  H12B 4909   1.100   4.865   2.817 -0.3829  0.0457  1.0930
   39DOPE   C11 4910   1.066   4.645   2.836  0.3288  0.8304 -0.2345
   39DOPE  H11A 4911   1.077   4.620   2.728  1.8766 -0.6173  0.2151
   39DOPE  H11B 4912   0.957   4.647   2.856  0.2653 -2.7217  0.4740
   39DOPE     P 4913   1.067   4.391   2.924 -0.0948  0.3794  0.1740
   39DOPE   O13 4914   1.179   4.305   2.977 -0.1867  0.2009  0.1421
   39DOPE   O14 4915   1.002   4.344   2.803 -0.3006  0.4245 -0.1677
   39DOPE   O11 4916   0.955   4.408   3.029  0.6570 -0.2168  0.0623
   39DOPE   O12 4917   1.134   4.534   2.908 -0.6231 -0.0733 -0.0495
   39DOPE    C1 4918   0.999   4.452   3.159 -0.3354 -0.3348  0.2858
   39DOPE    HA 4919   0.914   4.515   3.193  1.1844  1.5989  0.6268
   39DOPE    HB 4920   1.079   4.529   3.154 -1.6684  1.0058 -2.8278
   39DOPE    C2 4921   1.030   4.342   3.262 -0.2630  0.2856  0.1257
   39DOPE    HS 4922   1.092   4.265   3.210  0.9829  0.4586  1.2928
   39DOPE   O21 4923   0.910   4.279   3.315 -0.2278 -0.7659 -0.1935
   39DOPE   C21 4924   0.918   4.146   3.350 -0.8906 -0.2243  0.1367
   39DOPE   O22 4925   1.006   4.071   3.311  0.1077 -0.0531  0.8534
   39DOPE   C22 4926   0.788   4.098   3.423 -0.8206  0.7149 -0.3357
   39DOPE   H2R 4927   0.715   4.090   3.339 -0.9330 -0.9698 -0.1043
   39DOPE   H2S 4928   0.757   4.179   3.492  0.9881  1.7092 -0.6284
   39DOPE    C3 4929   1.124   4.399   3.380  0.3444 -0.0714  0.4896
   39DOPE    HX 4930   1.090   4.495   3.424 -1.8893 -1.1724  1.3607
   39DOPE    HY 4931   1.225   4.414   3.337  0.8368  0.9882  1.9262
   39DOPE   O31 4932   1.134   4.313   3.497 -0.2458 -0.8599 -0.3959
   39DOPE   C31 4933   1.253   4.270   3.535 -0.5046  0.5023  0.0948
   39DOPE   O32 4934   1.354   4.291   3.471  0.1056  0.2296  0.0329
   39DOPE   C32 4935   1.250   4.176   3.664 -0.0883 -0.2449 -0.2304
   39DOPE   H2X 4936   1.185   4.214   3.746  3.0774  0.5249  2.1390
   39DOPE   H2Y 4937   1.209   4.082   3.622 -0.4503  0.3802 -1.3033
   39DOPE   C23 4938   0.819   3.969   3.497  0.0633  0.9040  0.5092
   39DOPE   H3R 4939   0.866   3.892   3.432  1.8890  0.6914  1.9874
   39DOPE   H3S 4940   0.718   3.922   3.508  0.7411 -1.0136 -0.9685
   39DOPE   C24 4941   0.896   3.988   3.620  0.1574  0.2386 -0.2736
   39DOPE   H4R 4942   0.975   4.066   3.610 -0.7157  1.0010 -1.4038
   39DOPE   H4S 4943   0.932   3.893   3.664 -0.8725 -0.1501 -0.2706
   39DOPE   C25 4944   0.797   4.044   3.723 -0.3631 -0.3625  0.7216
   39DOPE   H5R 4945   0.705   3.986   3.745 -1.0367  0.4406  0.1038
   39DOPE   H5S 4946   0.778   4.147   3.686  0.5247 -0.3915  0.1750
   39DOPE   C26 4947   0.859   4.063   3.862 -0.0271 -0.7689  0.6781
   39DOPE   H6R 4948   0.935   4.144   3.867 -1.1756  0.4065 -0.1260
   39DOPE   H6S 4949   0.901   3.966   3.895  1.3516 -0.3329  0.2739
   39DOPE   C27 4950   0.754   4.105   3.968 -0.2393 -0.1538 -0.0616
   39DOPE   H7R 4951   0.666   4.140   3.911  0.2743  0.1264 -0.6849
   39DOPE   H7S 4952   0.795   4.189   4.028 -0.8380  1.7102 -2.1516
   39DOPE   C28 4953   0.710   3.999   4.066  0.7666 -0.0925  0.6677
   39DOPE   H8R 4954   0.692   3.914   3.997  1.0669  0.2117  0.2063
   39DOPE   H8S 4955   0.611   4.025   4.108 -0.0790 -0.8934 -0.7515
   39DOPE   C29 4956   0.815   3.960   4.168  0.4475 -0.5359  0.6249
   39DOPE   H9R 4957   0.905   3.915   4.123  1.4099 -1.0826  2.9391
   39DOPE  C210 4958   0.805   3.952   4.305 -0.2778  0.0724 -0.3143
   39DOPE  H10R 4959   0.891   3.915   4.363 -0.9265 -1.3145 -0.1954
   39DOPE  C211 4960   0.684   3.978   4.391  0.1610 -0.4360  0.6713
   39DOPE  H11R 4961   0.593   3.971   4.328  0.8937  0.1427 -0.4969
   39DOPE  H11S 4962   0.686   4.073   4.448  0.2174 -0.2554  0.3686
   39DOPE  C212 4963   0.662   3.866   4.499 -0.6055 -0.5807  0.4217
   39DOPE  H12R 4964   0.756   3.863   4.559 -0.6534 -0.5750  0.4978
   39DOPE  H12S 4965   0.667   3.765   4.452  2.6389 -0.9653  1.3491
   39DOPE  C213 4966   0.542   3.880   4.598 -0.2973 -0.2143  0.1687
   39DOPE  H13R 4967   0.455   3.917   4.541 -0.1308  0.8703  0.5849
   39DOPE  H13S 4968   0.577   3.951   4.676  0.2345  0.6619 -0.8387
   39DOPE  C214 4969   0.508   3.746   4.670  0.1873  0.1845  0.4241
   39DOPE  H14R 4970   0.596   3.688   4.705  0.6719  0.9368  0.4670
   39DOPE  H14S 4971   0.457   3.680   4.597 -0.1672 -0.4152  1.1986
   39DOPE  C215 4972   0.408   3.768   4.791 -0.0564  0.5632 -0.2285
   39DOPE  H15R 4973   0.319   3.819   4.749  0.2171 -0.2406 -1.8677
   39DOPE  H15S 4974   0.465   3.828   4.865  1.9402 -3.1468  1.5491
   39DOPE  C216 4975   0.375   3.643   4.873  0.0629  0.0751  0.0326
   39DOPE  H16R 4976   0.447   3.558   4.865 -0.7367 -0.9505  2.6331
   39DOPE  H16S 4977   0.283   3.593   4.837 -0.8041  1.3170  0.4725
   39DOPE  C217 4978   0.352   3.679   5.022  0.1804  0.9657 -0.7062
   39DOPE  H17R 4979   0.443   3.731   5.058  1.3577 -2.4273  1.6479
   39DOPE  H17S 4980   0.348   3.581   5.073  3.6839  1.1022  0.1171
   39DOPE  C218 4981   0.233   3.759   5.057  0.1050  0.6763  0.3885
   39DOPE  H18R 4982   0.249   3.865   5.029 -1.2871  0.8893  0.3620
   39DOPE  H18S 4983   0.213   3.756   5.166 -1.7509  0.6646  0.0692
   39DOPE  H18T 4984   0.142   3.731   5.000  0.5118  1.2224 -0.5567
   39DOPE   C33 4985   1.392   4.138   3.708 -0.4544 -0.8876  0.4612
   39DOPE   H3X 4986   1.456   4.229   3.702 -1.7217 -0.0249 -0.7569
   39DOPE   H3Y 4987   1.430   4.069   3.630  1.3780  0.1912  0.3492
   39DOPE   C34 4988   1.391   4.056   3.838 -0.2910 -0.0074  0.3627
   39DOPE   H4X 4989   1.344   4.118   3.918 -1.0510  2.0109 -1.5354
   39DOPE   H4Y 4990   1.314   3.977   3.825 -3.0578  2.6360 -0.5912
   39DOPE   C35 4991   1.520   4.002   3.898  0.0945 -0.7644  0.7063
   39DOPE   H5X 4992   1.576   4.092   3.931 -1.0945 -0.2857  1.4750
   39DOPE   H5Y 4993   1.576   3.949   3.818  0.6171 -1.2607  1.3872
   39DOPE   C36 4994   1.502   3.906   4.011 -0.1256 -0.1872  0.1901
   39DOPE   H6X 4995   1.606   3.881   4.044  0.4637  0.5897 -0.9946
   39DOPE   H6Y 4996   1.448   3.821   3.965  0.1315  0.0163 -0.5000
   39DOPE   C37 4997   1.410   3.957   4.120  0.0745 -0.7240 -0.3844
   39DOPE   H7X 4998   1.454   4.055   4.147  0.3323 -0.8426 -0.3751
   39DOPE   H7Y 4999   1.304   3.961   4.086  0.2329  2.5288 -0.8454
   39DOPE   C38 5000   1.428   3.862   4.244 -0.0678  0.4401 -0.8896
   39DOPE   H8X 5001   1.365   3.908   4.323  0.5619 -0.9373  0.4697
   39DOPE   H8Y 5002   1.533   3.866   4.280 -0.1510 -0.3994 -0.5443
   39DOPE   C39 5003   1.390   3.712   4.209  0.3114 -0.2604  0.7333
   39DOPE   H9X 5004   1.458   3.668   4.134 -1.7361  0.3830 -1.6185
   39DOPE  C310 5005   1.277   3.651   4.253 -0.0448 -0.2252 -0.9637
   39DOPE  H10X 5006   1.261   3.545   4.226 -2.0873 -0.0121 -0.7225
   39DOPE  C311 5007   1.166   3.701   4.343 -0.4948  0.1600  0.4895
   39DOPE  H11X 5008   1.150   3.811   4.336  1.3874  0.3857 -1.1438
   39DOPE  H11Y 5009   1.075   3.658   4.294 -1.3706  0.8328  1.4985
   39DOPE  C312 5010   1.197   3.670   4.493  0.1887  0.4297  0.2158
   39DOPE  H12X 5011   1.275   3.736   4.538  1.3515 -0.5587 -0.2888
   39DOPE  H12Y 5012   1.228   3.564   4.503 -2.1356 -0.1678  2.2934
   39DOPE  C313 5013   1.071   3.684   4.577  0.1168 -0.3796  0.4629
   39DOPE  H13X 5014   1.043   3.791   4.579  0.5346 -0.0373 -3.6952
   39DOPE  H13Y 5015   0.991   3.623   4.528  1.1632 -3.2308  2.0289
   39DOPE  C314 5016   1.097   3.642   4.718 -0.1544 -0.1305 -0.3611
   39DOPE  H14X 5017   1.188   3.697   4.752  0.4259 -0.2857 -1.5846
   39DOPE  H14Y 5018   1.137   3.539   4.720  1.1484  0.3497 -0.6358
   39DOPE  C315 5019   0.981   3.657   4.806 -0.0742  0.2408  0.0866
   39DOPE  H15X 5020   0.898   3.588   4.776  0.6461 -0.2296 -0.8721
   39DOPE  H15Y 5021   0.936   3.755   4.831 -1.1677 -0.3825  0.6608
   39DOPE  C316 5022   1.029   3.615   4.947  0.4717  0.1514  0.1048
   39DOPE  H16X 5023   1.112   3.685   4.971  1.7771 -0.3236 -2.6275
   39DOPE  H16Y 5024   1.058   3.508   4.943 -1.4079 -0.4360  1.1545
   39DOPE  C317 5025   0.926   3.625   5.061  0.6359  0.2393 -0.2426
   39DOPE  H17X 5026   0.924   3.727   5.106 -1.8391  0.6333 -1.0815
   39DOPE  H17Y 5027   0.827   3.613   5.013 -0.1273  0.9447  1.0765
   39DOPE  C318 5028   0.946   3.516   5.163  0.0612  0.0365  0.0444
   39DOPE  H18X 5029   0.910   3.419   5.123 -0.1888 -0.2740  0.9947
   39DOPE  H18Y 5030   1.049   3.510   5.205  0.2850  0.1042 -0.4890
   39DOPE  H18Z 5031   0.880   3.541   5.249 -2.4049 -1.3620 -1.3275
   40DOPE     N 5032   3.400   6.600   3.252  0.7310 -0.1761  0.3030
   40DOPE   HN1 5033   3.320   6.533   3.251  1.1631 -0.7349  1.7027
   40DOPE   HN2 5034   3.483   6.547   3.219  0.4249 -0.1507 -0.5402
   40DOPE   HN3 5035   3.401   6.639   3.348  0.1101  2.9401 -0.8175
   40DOPE   C12 5036   3.363   6.723   3.173 -0.7423  0.7013 -0.2958
   40DOPE  H12A 5037   3.356   6.691   3.067  1.7134 -0.8971 -0.0534
   40DOPE  H12B 5038   3.448   6.793   3.177  0.5943 -0.9262  1.9463
   40DOPE   C11 5039   3.238   6.792   3.223 -0.2597 -0.1593 -0.1692
   40DOPE  H11A 5040   3.217   6.881   3.161  1.7712 -0.7604 -1.8269
   40DOPE  H11B 5041   3.264   6.823   3.326  0.7874 -1.1016 -0.1228
   40DOPE     P 5042   3.025   6.698   3.114  0.2034  0.0692  0.1974
   40DOPE   O13 5043   2.944   6.579   3.131 -0.5517 -0.3384 -0.4456
   40DOPE   O14 5044   3.082   6.712   2.976 -0.0774 -0.7898  0.0514
   40DOPE   O11 5045   2.943   6.830   3.144  0.4397  0.2677  0.4793
   40DOPE   O12 5046   3.133   6.703   3.222 -0.2241 -0.3178  0.2656
   40DOPE    C1 5047   2.861   6.835   3.263  0.3840 -0.4331 -0.1003
   40DOPE    HA 5048   2.834   6.737   3.308 -0.8707 -0.2907 -0.5128
   40DOPE    HB 5049   2.765   6.890   3.258  0.6534  0.3405  1.9064
   40DOPE    C2 5050   2.944   6.920   3.370  0.3134 -0.9350 -0.0355
   40DOPE    HS 5051   3.032   6.866   3.412  0.9419  1.7046  2.3710
   40DOPE   O21 5052   2.856   6.960   3.474  0.7678 -0.7445  0.0935
   40DOPE   C21 5053   2.818   6.860   3.553  0.1109 -0.2022  0.0223
   40DOPE   O22 5054   2.878   6.753   3.566 -0.1467 -0.1385 -0.4123
   40DOPE   C22 5055   2.691   6.897   3.629  0.1488  0.1283  0.0278
   40DOPE   H2R 5056   2.685   7.007   3.646  0.4491 -0.1392  2.0842
   40DOPE   H2S 5057   2.677   6.845   3.726 -1.9105  2.7267  1.2315
   40DOPE    C3 5058   2.993   7.057   3.299  0.4068  0.4494 -0.2847
   40DOPE    HX 5059   2.903   7.092   3.244  1.4391  2.5007 -0.7884
   40DOPE    HY 5060   3.073   7.030   3.227  2.0691 -1.6119  2.1510
   40DOPE   O31 5061   3.035   7.170   3.382  0.5160  0.1116  0.3486
   40DOPE   C31 5062   3.165   7.170   3.414  0.4650 -0.2226 -0.3912
   40DOPE   O32 5063   3.237   7.073   3.412  0.1936  0.5747 -0.6624
   40DOPE   C32 5064   3.202   7.313   3.472 -0.2573  0.2796 -0.2141
   40DOPE   H2X 5065   3.185   7.378   3.384 -0.0898  2.6750  1.4092
   40DOPE   H2Y 5066   3.127   7.338   3.551  0.5898  2.2952  0.0079
   40DOPE   C23 5067   2.571   6.850   3.542  0.3323 -0.7482  0.1665
   40DOPE   H3R 5068   2.571   6.740   3.553  0.9205 -1.0809 -2.4702
   40DOPE   H3S 5069   2.588   6.875   3.435 -2.1529  1.3799  0.1819
   40DOPE   C24 5070   2.425   6.895   3.581 -0.4293 -0.8794 -0.6384
   40DOPE   H4R 5071   2.352   6.848   3.511 -0.4288 -0.3989 -0.9648
   40DOPE   H4S 5072   2.419   7.006   3.581  0.1502 -0.8452 -0.1999
   40DOPE   C25 5073   2.390   6.844   3.719 -0.3668  1.0574  0.5181
   40DOPE   H5R 5074   2.467   6.887   3.787  0.4707  2.5868 -1.2955
   40DOPE   H5S 5075   2.393   6.733   3.722 -1.9090  0.9787 -0.0995
   40DOPE   C26 5076   2.253   6.890   3.773 -0.2821 -0.2789 -0.8770
   40DOPE   H6R 5077   2.173   6.815   3.753  0.9284 -1.2458 -2.3413
   40DOPE   H6S 5078   2.224   6.987   3.728 -0.3818 -0.0868 -0.3975
   40DOPE   C27 5079   2.267   6.924   3.926 -0.6677 -0.0582 -0.0499
   40DOPE   H7R 5080   2.342   7.004   3.942 -1.2241  0.4391  0.1398
   40DOPE   H7S 5081   2.293   6.829   3.976 -1.7341 -0.4345 -0.1795
   40DOPE   C28 5082   2.132   6.974   3.988  0.2356  0.4079  0.1160
   40DOPE   H8R 5083   2.041   6.914   3.967  0.9555 -1.0353  0.9076
   40DOPE   H8S 5084   2.113   7.079   3.959  0.5818  0.1261 -1.1921
   40DOPE   C29 5085   2.149   6.980   4.138 -0.5327 -0.1447  0.2310
   40DOPE   H9R 5086   2.220   7.062   4.160 -0.5931  0.4486 -1.5818
   40DOPE  C210 5087   2.118   6.885   4.229  0.0182 -0.0612  0.0547
   40DOPE  H10R 5088   2.144   6.913   4.332 -2.5166  1.2219  0.4162
   40DOPE  C211 5089   2.052   6.744   4.195 -0.0058  0.0117  0.0902
   40DOPE  H11R 5090   2.137   6.678   4.167 -0.1225 -0.9532  1.8827
   40DOPE  H11S 5091   1.984   6.765   4.110 -0.3503 -0.0470  0.3482
   40DOPE  C212 5092   1.968   6.691   4.310 -0.3620 -0.0490  0.7753
   40DOPE  H12R 5093   1.898   6.613   4.273 -0.2248  1.5044 -3.1566
   40DOPE  H12S 5094   1.904   6.770   4.355 -0.9782  0.2700 -0.6148
   40DOPE  C213 5095   2.048   6.629   4.427 -0.3519 -0.6856 -0.0262
   40DOPE  H13R 5096   2.137   6.693   4.450 -0.8975 -0.5048  1.7242
   40DOPE  H13S 5097   2.073   6.524   4.401 -2.2474 -0.5740 -2.6832
   40DOPE  C214 5098   1.963   6.624   4.556 -0.3977 -0.1628 -0.6897
   40DOPE  H14R 5099   1.876   6.558   4.539 -0.2613 -0.6805  0.4878
   40DOPE  H14S 5100   1.923   6.725   4.580  1.1221  0.3237 -0.0820
   40DOPE  C215 5101   2.029   6.572   4.682  0.4861 -0.4412  0.0643
   40DOPE  H15R 5102   2.094   6.652   4.726 -2.4929  1.6313  0.9932
   40DOPE  H15S 5103   2.087   6.483   4.650  1.4920  0.5549 -1.0046
   40DOPE  C216 5104   1.926   6.546   4.787  0.2873 -0.5540  0.6375
   40DOPE  H16R 5105   1.844   6.479   4.754 -2.1099  1.6098  1.8903
   40DOPE  H16S 5106   1.886   6.646   4.811  4.5360  1.2568  1.1019
   40DOPE  C217 5107   2.001   6.502   4.918  0.1717  0.1654  0.5090
   40DOPE  H17R 5108   2.080   6.576   4.941 -0.6676  1.0222  0.6772
   40DOPE  H17S 5109   2.040   6.402   4.890  0.5197  0.8608 -1.6740
   40DOPE  C218 5110   1.914   6.474   5.045  0.0516  0.0800  0.5281
   40DOPE  H18R 5111   1.955   6.379   5.085  1.7266 -0.3285 -1.8872
   40DOPE  H18S 5112   1.813   6.444   5.007  1.1447 -0.4560 -2.2100
   40DOPE  H18T 5113   1.913   6.552   5.123  1.0537 -1.7111  2.4266
   40DOPE   C33 5114   3.353   7.326   3.509 -0.2002  0.0122 -0.4341
   40DOPE   H3X 5115   3.419   7.270   3.439 -0.9602 -0.6768 -0.6228
   40DOPE   H3Y 5116   3.373   7.296   3.614  0.9535  0.7164 -0.4435
   40DOPE   C34 5117   3.388   7.478   3.492 -0.4875  0.4271 -0.3061
   40DOPE   H4X 5118   3.498   7.490   3.485 -0.6982  2.0834 -1.3795
   40DOPE   H4Y 5119   3.346   7.526   3.401  1.1515 -0.8746 -1.8057
   40DOPE   C35 5120   3.336   7.555   3.615 -0.1937  0.2219 -0.6566
   40DOPE   H5X 5121   3.363   7.495   3.704 -3.1732 -1.9214 -1.0363
   40DOPE   H5Y 5122   3.226   7.554   3.601 -0.0407 -0.9428 -2.0552
   40DOPE   C36 5123   3.407   7.691   3.643  0.0247 -0.2279 -0.2504
   40DOPE   H6X 5124   3.397   7.759   3.556  0.5874  0.8002  0.4705
   40DOPE   H6Y 5125   3.515   7.665   3.643 -0.3622 -1.9906 -1.0591
   40DOPE   C37 5126   3.367   7.751   3.781  0.4122  0.2742  0.3557
   40DOPE   H7X 5127   3.258   7.774   3.779 -0.1319 -2.0799 -0.5068
   40DOPE   H7Y 5128   3.352   7.669   3.855 -1.0378  0.2016  0.0222
   40DOPE   C38 5129   3.447   7.874   3.828 -0.7542  0.0488 -0.5570
   40DOPE   H8X 5130   3.551   7.835   3.841 -0.9798 -0.0065  1.4206
   40DOPE   H8Y 5131   3.411   7.896   3.931  0.1469  1.9552 -0.6094
   40DOPE   C39 5132   3.438   7.995   3.731 -0.1442 -1.0065  1.4573
   40DOPE   H9X 5133   3.530   8.014   3.674 -2.1040 -2.4277 -2.4954
   40DOPE  C310 5134   3.331   8.084   3.725 -0.3090  0.1370 -0.5368
   40DOPE  H10X 5135   3.340   8.173   3.661 -2.4208  1.5137  0.9564
   40DOPE  C311 5136   3.194   8.082   3.804 -0.1234 -0.1325 -0.6521
   40DOPE  H11X 5137   3.174   7.982   3.849 -0.9948 -0.0957 -0.9490
   40DOPE  H11Y 5138   3.200   8.156   3.886  1.1412 -1.5311  0.5764
   40DOPE  C312 5139   3.084   8.116   3.709  0.4572 -0.3649 -0.1084
   40DOPE  H12X 5140   3.045   8.043   3.636 -1.5924  0.3987  0.1500
   40DOPE  H12Y 5141   3.118   8.206   3.653 -2.3347  1.3667  0.7275
   40DOPE  C313 5142   2.945   8.161   3.772 -0.1211 -0.4465 -0.2059
   40DOPE  H13X 5143   2.909   8.073   3.829 -0.0486 -0.5995 -0.3942
   40DOPE  H13Y 5144   2.962   8.237   3.851 -2.0851 -0.4076  0.2410
   40DOPE  C314 5145   2.840   8.201   3.662 -0.3961  0.5158  0.4610
   40DOPE  H14X 5146   2.826   8.117   3.590 -0.9264  0.4078  0.6810
   40DOPE  H14Y 5147   2.874   8.298   3.621 -1.3869  0.3239 -0.8868
   40DOPE  C315 5148   2.704   8.217   3.714  0.3864  0.3387  0.3423
   40DOPE  H15X 5149   2.709   8.306   3.780 -1.8802 -1.2165  2.8334
   40DOPE  H15Y 5150   2.667   8.132   3.777  0.7175 -0.7053 -0.8286
   40DOPE  C316 5151   2.595   8.250   3.609 -0.7997  0.1332 -0.6376
   40DOPE  H16X 5152   2.505   8.286   3.665  0.7371  0.0115  2.1171
   40DOPE  H16Y 5153   2.560   8.155   3.563  0.8732 -1.4268  1.1128
   40DOPE  C317 5154   2.628   8.357   3.509 -0.9185  0.0045 -0.0203
   40DOPE  H17X 5155   2.642   8.451   3.567 -0.1138  0.0859 -0.3356
   40DOPE  H17Y 5156   2.718   8.328   3.452  0.2931  2.5108  0.4418
   40DOPE  C318 5157   2.513   8.370   3.404 -0.3646  0.9252  0.1747
   40DOPE  H18X 5158   2.483   8.277   3.351 -0.4125  0.6538  0.6667
   40DOPE  H18Y 5159   2.426   8.429   3.441 -0.3204  2.3399 -1.8308
   40DOPE  H18Z 5160   2.551   8.434   3.322 -0.0615 -0.5977 -0.9225
   41DOPE     N 5161   3.933   5.658   2.728  0.3279 -0.0389  0.3417
   41DOPE   HN1 5162   3.982   5.568   2.745 -1.1657 -1.5876 -2.7324
   41DOPE   HN2 5163   3.865   5.630   2.654  1.1156 -0.7416 -0.1356
   41DOPE   HN3 5164   4.006   5.714   2.680  0.6645 -0.6454  0.1367
   41DOPE   C12 5165   3.871   5.727   2.850 -0.2956 -0.8844  0.3868
   41DOPE  H12A 5166   3.948   5.764   2.921 -1.0972  4.2455 -1.0035
   41DOPE  H12B 5167   3.824   5.642   2.904  1.2522 -1.6775  0.5087
   41DOPE   C11 5168   3.776   5.840   2.818 -0.4822  0.4969 -0.7370
   41DOPE  H11A 5169   3.743   5.874   2.918 -1.4147  1.6231 -1.4002
   41DOPE  H11B 5170   3.687   5.801   2.763 -0.4868  0.1137 -0.4589
   41DOPE     P 5171   3.898   6.078   2.807 -0.1375  0.3182 -0.1064
   41DOPE   O13 5172   3.785   6.175   2.798 -0.4585  0.1402  0.1515
   41DOPE   O14 5173   4.027   6.111   2.739  0.4831  0.3903  0.3105
   41DOPE   O11 5174   3.924   6.033   2.952  0.2188  0.3946 -1.0357
   41DOPE   O12 5175   3.845   5.942   2.732 -0.4087  1.0483 -0.1259
   41DOPE    C1 5176   3.883   6.113   3.060  0.2353  0.2187  0.3356
   41DOPE    HA 5177   3.777   6.147   3.063  0.2319  0.1945  0.5073
   41DOPE    HB 5178   3.944   6.205   3.053 -0.1994  0.3768 -2.6658
   41DOPE    C2 5179   3.927   6.061   3.198  0.0714 -0.1989  0.0370
   41DOPE    HS 5180   4.037   6.051   3.192  0.2829  1.6695  0.4276
   41DOPE   O21 5181   3.850   5.949   3.237 -0.3959  0.1125  0.5162
   41DOPE   C21 5182   3.925   5.847   3.269 -1.0550 -0.1425  0.2015
   41DOPE   O22 5183   4.046   5.843   3.256 -0.2604  0.0374 -0.8760
   41DOPE   C22 5184   3.839   5.737   3.327 -0.1457  0.1404 -0.2832
   41DOPE   H2R 5185   3.890   5.639   3.313  0.0441  0.3618 -1.2075
   41DOPE   H2S 5186   3.744   5.720   3.272 -1.8326  0.4213  2.3612
   41DOPE    C3 5187   3.900   6.167   3.308 -0.5134 -0.1873 -0.5685
   41DOPE    HX 5188   3.791   6.187   3.315 -0.9001 -2.2739 -0.0652
   41DOPE    HY 5189   3.948   6.265   3.285 -2.1849  0.7745 -0.1452
   41DOPE   O31 5190   3.930   6.122   3.444 -0.3425 -0.0007  0.1850
   41DOPE   C31 5191   4.056   6.148   3.472  0.2139 -0.1087 -0.8295
   41DOPE   O32 5192   4.142   6.198   3.404 -0.4454  0.1566  0.3178
   41DOPE   C32 5193   4.076   6.110   3.621  0.1074  0.5117 -0.2668
   41DOPE   H2X 5194   4.159   6.037   3.618  0.5475  1.0075 -0.3924
   41DOPE   H2Y 5195   4.117   6.204   3.665 -2.1683  1.0992  0.7197
   41DOPE   C23 5196   3.813   5.747   3.471  0.3753 -0.1044 -0.2921
   41DOPE   H3R 5197   3.764   5.844   3.493  1.3983  0.8609 -2.0403
   41DOPE   H3S 5198   3.905   5.717   3.527  1.4533  2.4602 -0.5553
   41DOPE   C24 5199   3.708   5.644   3.516  0.0520 -0.1273 -0.6137
   41DOPE   H4R 5200   3.739   5.539   3.498  0.0963 -0.2004 -0.1331
   41DOPE   H4S 5201   3.608   5.673   3.478  0.1993 -0.0357 -0.9327
   41DOPE   C25 5202   3.679   5.651   3.666  0.5751  0.1397  0.3373
   41DOPE   H5R 5203   3.622   5.743   3.690 -0.4209 -0.8515  2.0520
   41DOPE   H5S 5204   3.776   5.664   3.719  0.6769 -0.5130  0.3144
   41DOPE   C26 5205   3.610   5.522   3.715  0.8928 -0.1773  0.5406
   41DOPE   H6R 5206   3.606   5.531   3.825  1.4259  1.2169  0.4567
   41DOPE   H6S 5207   3.661   5.431   3.677  0.5176 -0.5184  0.8439
   41DOPE   C27 5208   3.456   5.503   3.662 -0.3432 -0.5292  0.5255
   41DOPE   H7R 5209   3.460   5.544   3.559 -0.8994 -2.2066 -0.1897
   41DOPE   H7S 5210   3.401   5.575   3.727  0.8979  0.6836  0.2822
   41DOPE   C28 5211   3.404   5.359   3.654 -0.4100 -0.5630 -0.2273
   41DOPE   H8R 5212   3.449   5.299   3.572 -0.0992 -2.5554  1.3053
   41DOPE   H8S 5213   3.296   5.365   3.633 -0.1414 -0.3951 -1.6027
   41DOPE   C29 5214   3.428   5.300   3.789  0.1946  0.3878 -0.0190
   41DOPE   H9R 5215   3.516   5.235   3.794 -0.7702 -1.1567 -1.7897
   41DOPE  C210 5216   3.351   5.310   3.902 -0.1392  0.6603  0.5577
   41DOPE  H10R 5217   3.376   5.249   3.990 -1.4691  0.7749  1.0349
   41DOPE  C211 5218   3.217   5.391   3.907 -0.3928 -0.4454  0.3500
   41DOPE  H11R 5219   3.131   5.321   3.892 -0.5161  0.0186 -1.3592
   41DOPE  H11S 5220   3.204   5.461   3.822 -0.9917 -0.9568  0.0097
   41DOPE  C212 5221   3.209   5.465   4.044  0.3827  0.3972  0.0649
   41DOPE  H12R 5222   3.298   5.530   4.056 -0.3054  1.1250  1.4074
   41DOPE  H12S 5223   3.204   5.389   4.124 -1.0787 -0.9478 -1.2128
   41DOPE  C213 5224   3.082   5.553   4.051  0.4260  0.5510  0.5289
   41DOPE  H13R 5225   2.996   5.482   4.048  0.5388  0.4008  0.8536
   41DOPE  H13S 5226   3.077   5.613   3.958  1.5271 -0.3614 -0.1448
   41DOPE  C214 5227   3.067   5.631   4.181 -0.0174 -0.1521 -0.2277
   41DOPE  H14R 5228   3.160   5.689   4.201  0.2579 -0.3304 -0.9452
   41DOPE  H14S 5229   3.046   5.561   4.264 -1.4811  1.1121  0.5179
   41DOPE  C215 5230   2.948   5.725   4.185 -0.9629  0.3601 -0.0080
   41DOPE  H15R 5231   2.859   5.659   4.185  0.2077 -1.4660  3.4429
   41DOPE  H15S 5232   2.948   5.785   4.092 -0.1642 -0.7032 -0.7279
   41DOPE  C216 5233   2.949   5.822   4.304 -0.2976 -0.3886  0.2911
   41DOPE  H16R 5234   2.887   5.909   4.271  0.6836  0.6146  1.0095
   41DOPE  H16S 5235   3.044   5.878   4.319 -2.1280  2.7659  1.0500
   41DOPE  C217 5236   2.922   5.756   4.439 -0.2013  0.0402 -0.5517
   41DOPE  H17R 5237   3.011   5.703   4.478 -1.4834  0.5641  3.5827
   41DOPE  H17S 5238   2.854   5.670   4.420  3.1338 -2.8580 -0.3725
   41DOPE  C218 5239   2.862   5.846   4.553  0.0424 -0.3397 -0.1009
   41DOPE  H18R 5240   2.767   5.883   4.509 -0.8876 -1.1101  1.1787
   41DOPE  H18S 5241   2.932   5.923   4.590 -0.5674  0.0755  0.1914
   41DOPE  H18T 5242   2.825   5.787   4.639  2.6060 -0.5144  0.9891
   41DOPE   C33 5243   3.958   6.058   3.696 -0.2053  0.6881  0.2825
   41DOPE   H3X 5244   3.921   5.963   3.651 -1.4586  0.9059  0.8229
   41DOPE   H3Y 5245   3.883   6.139   3.703  1.0191  1.8261  0.5833
   41DOPE   C34 5246   3.996   5.993   3.833  0.2811 -0.0435  0.5680
   41DOPE   H4X 5247   4.084   5.926   3.832 -0.3961 -0.9742 -0.9725
   41DOPE   H4Y 5248   4.031   6.075   3.899  1.1091 -0.0562  0.1582
   41DOPE   C35 5249   3.875   5.927   3.884  0.5767 -0.1682 -0.9935
   41DOPE   H5X 5250   3.854   5.826   3.841  0.7354 -0.4280 -0.4751
   41DOPE   H5Y 5251   3.785   5.987   3.860  0.7177  1.0860  1.3105
   41DOPE   C36 5252   3.864   5.915   4.037 -0.3641  0.1520 -0.0216
   41DOPE   H6X 5253   3.835   6.019   4.064 -0.5791  0.5514 -1.6547
   41DOPE   H6Y 5254   3.961   5.901   4.089  1.3226  0.3629 -2.8807
   41DOPE   C37 5255   3.753   5.818   4.070  0.9588 -0.7426 -0.4440
   41DOPE   H7X 5256   3.661   5.841   4.012  1.4369 -0.0436 -0.9501
   41DOPE   H7Y 5257   3.787   5.718   4.037  2.8855 -0.8230  1.5379
   41DOPE   C38 5258   3.721   5.829   4.219  0.0685 -0.1309  0.8589
   41DOPE   H8X 5259   3.679   5.928   4.245 -1.9985  0.0566 -2.6314
   41DOPE   H8Y 5260   3.817   5.798   4.266  0.6103 -0.5521 -0.4578
   41DOPE   C39 5261   3.617   5.727   4.255 -0.7862 -0.1541  0.2792
   41DOPE   H9X 5262   3.648   5.623   4.236 -0.2676  0.3588 -1.9092
   41DOPE  C310 5263   3.490   5.746   4.287 -0.5219  0.8152 -0.4067
   41DOPE  H10X 5264   3.428   5.656   4.303 -1.5784  1.4806 -0.6630
   41DOPE  C311 5265   3.419   5.876   4.284 -0.1682 -0.5959  0.7925
   41DOPE  H11X 5266   3.471   5.957   4.229 -0.2701 -1.4872 -0.6816
   41DOPE  H11Y 5267   3.326   5.862   4.225 -0.8176  2.1016  1.0834
   41DOPE  C312 5268   3.382   5.939   4.419  0.1884  0.6592 -0.4723
   41DOPE  H12X 5269   3.348   6.044   4.402  1.0015  1.1680  0.9176
   41DOPE  H12Y 5270   3.473   5.931   4.482  0.9155 -0.2567 -1.5858
   41DOPE  C313 5271   3.276   5.862   4.504  0.0563 -0.3699 -0.0292
   41DOPE  H13X 5272   3.186   5.864   4.439  0.6092  1.6492 -0.8163
   41DOPE  H13Y 5273   3.316   5.758   4.505 -1.3189 -0.9557 -1.4816
   41DOPE  C314 5274   3.251   5.927   4.644 -0.0517  0.2106 -0.9118
   41DOPE  H14X 5275   3.336   5.905   4.713  1.1939  3.4174 -1.2428
   41DOPE  H14Y 5276   3.163   5.875   4.688  0.7778 -1.3306 -1.0094
   41DOPE  C315 5277   3.231   6.080   4.655 -0.0271  0.0410 -0.0699
   41DOPE  H15X 5278   3.163   6.104   4.570 -1.1982 -1.2135  0.4663
   41DOPE  H15Y 5279   3.330   6.126   4.633 -1.2082  2.8333  0.0305
   41DOPE  C316 5280   3.180   6.118   4.787 -0.6758  0.3546 -0.7316
   41DOPE  H16X 5281   3.242   6.080   4.871  1.1223 -0.8564 -2.5178
   41DOPE  H16Y 5282   3.079   6.074   4.804 -0.6753  0.4966 -0.3622
   41DOPE  C317 5283   3.167   6.268   4.813  0.5986 -0.5419  0.2134
   41DOPE  H17X 5284   3.146   6.282   4.922 -2.9476 -1.6379 -0.1981
   41DOPE  H17Y 5285   3.260   6.322   4.787  0.5715 -0.0950  0.9902
   41DOPE  C318 5286   3.056   6.336   4.732  0.2747  1.3749 -0.2750
   41DOPE  H18X 5287   3.075   6.329   4.623  2.0431  0.1118  0.0584
   41DOPE  H18Y 5288   2.959   6.288   4.757  0.3942  2.1250  1.8335
   41DOPE  H18Z 5289   3.046   6.445   4.752  1.4418  1.9103 -2.2716
   42DOPE     N 5290   2.366   4.818   3.267 -0.7782 -0.6583  0.6661
   42DOPE   HN1 5291   2.316   4.905   3.239  1.5850  0.0360 -1.7720
   42DOPE   HN2 5292   2.311   4.739   3.226 -0.0024 -1.7177  1.5815
   42DOPE   HN3 5293   2.368   4.809   3.371  2.3558 -2.0190  0.6133
   42DOPE   C12 5294   2.502   4.808   3.203 -0.2423  0.0955  0.3218
   42DOPE  H12A 5295   2.567   4.892   3.236  1.0224 -0.9750  0.6618
   42DOPE  H12B 5296   2.495   4.827   3.094 -2.8804  0.6035  0.5174
   42DOPE   C11 5297   2.577   4.679   3.244 -0.6205  0.0033  0.1640
   42DOPE  H11A 5298   2.560   4.662   3.353  0.1420  0.1866  0.3183
   42DOPE  H11B 5299   2.684   4.705   3.238 -0.9834  2.3380  2.2617
   42DOPE     P 5300   2.416   4.469   3.203  0.2440  0.0644 -0.2798
   42DOPE   O13 5301   2.401   4.362   3.098  0.3479  0.2208  0.0625
   42DOPE   O14 5302   2.296   4.544   3.229  0.5443 -0.2602 -0.3972
   42DOPE   O11 5303   2.460   4.397   3.342  0.1742 -0.0096 -0.5696
   42DOPE   O12 5304   2.537   4.562   3.166  0.4921  0.0027 -0.3096
   42DOPE    C1 5305   2.448   4.451   3.473  0.4766 -0.2131 -0.4982
   42DOPE    HA 5306   2.446   4.562   3.477 -1.1924 -0.2026 -0.7011
   42DOPE    HB 5307   2.542   4.434   3.529 -0.5300 -1.5531  0.8820
   42DOPE    C2 5308   2.312   4.417   3.544 -0.5961  0.4804  0.1186
   42DOPE    HS 5309   2.225   4.479   3.512 -1.5817  0.5826  2.7111
   42DOPE   O21 5310   2.331   4.429   3.683  0.3378 -0.6543  0.0639
   42DOPE   C21 5311   2.223   4.429   3.755  0.1151 -0.1204 -0.0765
   42DOPE   O22 5312   2.108   4.402   3.718 -0.2212  0.3278  0.0483
   42DOPE   C22 5313   2.259   4.446   3.904 -0.4549  0.1416 -0.1691
   42DOPE   H2R 5314   2.310   4.545   3.904  1.1508 -0.6583  0.2466
   42DOPE   H2S 5315   2.333   4.365   3.922 -0.0159  0.1347 -1.8346
   42DOPE    C3 5316   2.279   4.262   3.515  0.3677  1.0416 -0.8498
   42DOPE    HX 5317   2.282   4.255   3.404  1.0960  1.8089 -0.8852
   42DOPE    HY 5318   2.173   4.235   3.535  1.0056 -1.8519 -0.9461
   42DOPE   O31 5319   2.372   4.176   3.576  0.9454 -0.2585  0.1790
   42DOPE   C31 5320   2.327   4.097   3.677  0.7548  0.4194 -0.1245
   42DOPE   O32 5321   2.209   4.076   3.709 -0.0363 -0.6868  0.2433
   42DOPE   C32 5322   2.447   4.049   3.758 -0.4264  0.2510  0.0965
   42DOPE   H2X 5323   2.503   3.988   3.685 -2.6188 -1.2320 -0.4386
   42DOPE   H2Y 5324   2.510   4.139   3.777 -0.4505  0.3228 -0.1580
   42DOPE   C23 5325   2.142   4.437   4.003  0.6032 -0.2756 -0.5828
   42DOPE   H3R 5326   2.100   4.336   3.987 -0.1843 -0.0653  0.1063
   42DOPE   H3S 5327   2.063   4.515   3.995 -0.3923 -1.0140  1.3141
   42DOPE   C24 5328   2.197   4.439   4.150 -0.3212  0.2018  0.3821
   42DOPE   H4R 5329   2.262   4.349   4.164 -0.6929  0.0039  0.8765
   42DOPE   H4S 5330   2.112   4.396   4.206 -0.4075 -1.2881 -0.7988
   42DOPE   C25 5331   2.264   4.556   4.215  0.2361  0.0583 -0.5776
   42DOPE   H5R 5332   2.197   4.642   4.193 -1.5875  0.4280  4.8665
   42DOPE   H5S 5333   2.366   4.559   4.173  0.1437  1.8983 -0.7621
   42DOPE   C26 5334   2.270   4.549   4.368  0.1512  0.3422 -0.1044
   42DOPE   H6R 5335   2.321   4.460   4.412  0.3450  0.5420  0.0736
   42DOPE   H6S 5336   2.163   4.550   4.398  0.1637  2.8404  0.0638
   42DOPE   C27 5337   2.326   4.679   4.422  0.0375 -0.1643 -0.3777
   42DOPE   H7R 5338   2.280   4.770   4.379  1.5077  0.9000  0.2342
   42DOPE   H7S 5339   2.435   4.675   4.401 -0.0027 -1.2868 -0.4550
   42DOPE   C28 5340   2.305   4.694   4.573  0.4010 -0.2081  0.3163
   42DOPE   H8R 5341   2.197   4.685   4.597  0.6282  1.3395  2.1230
   42DOPE   H8S 5342   2.328   4.799   4.600 -0.6574 -0.5770  2.9221
   42DOPE   C29 5343   2.373   4.586   4.658  0.3538 -0.5042  0.3653
   42DOPE   H9R 5344   2.375   4.483   4.618  1.3204 -1.2367  2.1794
   42DOPE  C210 5345   2.439   4.603   4.774 -0.2018  0.5240  0.1609
   42DOPE  H10R 5346   2.464   4.514   4.835 -0.7318  0.1562 -0.1488
   42DOPE  C211 5347   2.459   4.733   4.850 -0.5623 -0.0820 -0.9925
   42DOPE  H11R 5348   2.467   4.819   4.780 -0.4969  0.2777 -0.5497
   42DOPE  H11S 5349   2.563   4.740   4.887  0.1740  0.4178 -3.0608
   42DOPE  C212 5350   2.358   4.758   4.968 -0.7296  0.3199  0.1714
   42DOPE  H12R 5351   2.401   4.838   5.033 -0.5616  1.3161 -1.1262
   42DOPE  H12S 5352   2.339   4.668   5.030  0.7237  0.8870  1.5059
   42DOPE  C213 5353   2.221   4.795   4.917  0.3696 -1.0069  0.6676
   42DOPE  H13R 5354   2.179   4.714   4.854  2.5840 -2.3576  0.8372
   42DOPE  H13S 5355   2.225   4.884   4.851 -0.3362  1.4491  3.6806
   42DOPE  C214 5356   2.112   4.826   5.026  0.1239 -0.2950 -0.2820
   42DOPE  H14R 5357   2.134   4.765   5.116  0.3319  0.4549  0.1753
   42DOPE  H14S 5358   2.017   4.784   4.987  0.0095  1.9034 -2.6392
   42DOPE  C215 5359   2.104   4.970   5.078  0.6513  0.4541  0.1995
   42DOPE  H15R 5360   2.015   4.973   5.144  0.3321 -0.2629 -0.1880
   42DOPE  H15S 5361   2.073   5.033   4.991 -1.9043 -1.6299 -0.5232
   42DOPE  C216 5362   2.224   5.019   5.152 -0.4166  0.4029 -0.2232
   42DOPE  H16R 5363   2.315   5.021   5.087 -1.3635 -1.0993 -1.6772
   42DOPE  H16S 5364   2.252   4.948   5.232 -1.1901 -0.4061 -0.6607
   42DOPE  C217 5365   2.202   5.163   5.202 -0.1305  0.2054  0.5503
   42DOPE  H17R 5366   2.105   5.160   5.257 -0.3569  0.8088  0.1881
   42DOPE  H17S 5367   2.191   5.233   5.117 -2.0042 -0.1466  0.4665
   42DOPE  C218 5368   2.311   5.221   5.288 -0.5214  0.4960 -0.3469
   42DOPE  H18R 5369   2.290   5.328   5.309  1.4508  1.1045 -1.2701
   42DOPE  H18S 5370   2.409   5.221   5.237 -0.5962 -3.4794 -0.8106
   42DOPE  H18T 5371   2.331   5.179   5.389  2.2658  1.3072 -0.4966
   42DOPE   C33 5372   2.423   3.954   3.885  0.2243 -0.2708 -0.7391
   42DOPE   H3X 5373   2.518   3.909   3.921 -0.3331 -0.8156  0.0954
   42DOPE   H3Y 5374   2.335   3.891   3.860 -0.7463  0.8453 -0.2204
   42DOPE   C34 5375   2.364   4.034   4.007  0.0275 -0.1825  0.2491
   42DOPE   H4X 5376   2.447   4.100   4.041 -0.6016  0.4551  0.5730
   42DOPE   H4Y 5377   2.280   4.097   3.972  0.9941 -0.0041 -1.9143
   42DOPE   C35 5378   2.301   3.941   4.111  0.2343 -0.5070  0.1169
   42DOPE   H5X 5379   2.379   3.871   4.147  0.4767  0.5951  1.8821
   42DOPE   H5Y 5380   2.216   3.881   4.072 -0.0629  0.0386 -0.0872
   42DOPE   C36 5381   2.241   4.016   4.228  0.3019  0.7775  0.5953
   42DOPE   H6X 5382   2.178   3.954   4.296  0.0057 -1.5013 -1.6091
   42DOPE   H6Y 5383   2.174   4.100   4.199  0.8915  1.5101  1.3337
   42DOPE   C37 5384   2.340   4.071   4.335  0.3252  0.1552  0.6361
   42DOPE   H7X 5385   2.386   3.988   4.393  1.0414 -0.8879 -1.3116
   42DOPE   H7Y 5386   2.430   4.123   4.295  0.1015 -0.3852 -0.6041
   42DOPE   C38 5387   2.261   4.163   4.425 -0.0333 -0.5110  0.3412
   42DOPE   H8X 5388   2.180   4.099   4.464 -0.9149 -0.1375 -0.8025
   42DOPE   H8Y 5389   2.225   4.244   4.358 -1.3902 -1.7925 -0.5204
   42DOPE   C39 5390   2.339   4.226   4.543  0.2533 -0.1153  0.1092
   42DOPE   H9X 5391   2.434   4.268   4.508 -0.5633 -0.1819 -2.3763
   42DOPE  C310 5392   2.315   4.227   4.675  0.1030  1.0073  0.5968
   42DOPE  H10X 5393   2.398   4.277   4.727  2.3932  1.1771 -2.9305
   42DOPE  C311 5394   2.197   4.166   4.749  0.2050  0.9072 -0.4889
   42DOPE  H11X 5395   2.201   4.210   4.851  0.2776  0.7250 -0.4124
   42DOPE  H11Y 5396   2.100   4.193   4.702 -0.3000 -1.4860 -0.9419
   42DOPE  C312 5397   2.211   4.011   4.766 -0.1522  0.0715  0.2595
   42DOPE  H12X 5398   2.308   3.969   4.799  1.0895  1.7463 -1.0786
   42DOPE  H12Y 5399   2.195   3.963   4.666 -1.7980 -2.4119  1.6079
   42DOPE  C313 5400   2.111   3.940   4.859 -0.3261 -0.2702  0.6470
   42DOPE  H13X 5401   2.141   3.835   4.881 -0.9590 -0.2407  1.7235
   42DOPE  H13Y 5402   2.125   3.976   4.963 -0.0637 -1.2681  0.9706
   42DOPE  C314 5403   1.968   3.946   4.811  0.0410  0.0594 -0.2283
   42DOPE  H14X 5404   1.961   3.951   4.700 -0.5381  2.2577 -0.1336
   42DOPE  H14Y 5405   1.926   4.041   4.849  2.8783  2.1720 -2.0246
   42DOPE  C315 5406   1.881   3.826   4.848 -0.1991 -0.8716  0.2549
   42DOPE  H15X 5407   1.901   3.830   4.957 -0.0895  1.8016  0.1943
   42DOPE  H15Y 5408   1.919   3.733   4.800 -0.2983 -0.9173  0.2647
   42DOPE  C316 5409   1.724   3.843   4.823 -0.0312  0.3008 -0.0937
   42DOPE  H16X 5410   1.720   3.908   4.733 -0.4198 -0.6108 -0.7512
   42DOPE  H16Y 5411   1.674   3.901   4.903 -0.1240 -0.3970  0.3638
   42DOPE  C317 5412   1.657   3.711   4.784 -0.1642 -0.2708  0.3235
   42DOPE  H17X 5413   1.731   3.659   4.720 -0.4082 -0.5794  0.2847
   42DOPE  H17Y 5414   1.643   3.645   4.873  0.5976  0.2949  0.8759
   42DOPE  C318 5415   1.529   3.724   4.699  0.2888  0.5366  0.1280
   42DOPE  H18X 5416   1.544   3.777   4.603 -0.8169  2.1873  0.8138
   42DOPE  H18Y 5417   1.487   3.622   4.689 -0.9242  1.0603 -0.2506
   42DOPE  H18Z 5418   1.446   3.782   4.746  0.1735  0.4102  0.0807
   43DOPE     N 5419   1.855   2.969   2.687 -0.0052  0.1153 -0.3663
   43DOPE   HN1 5420   1.895   3.033   2.617 -0.6898 -0.5370 -1.3814
   43DOPE   HN2 5421   1.928   2.947   2.758  0.9963  0.1190 -1.3758
   43DOPE   HN3 5422   1.833   2.884   2.630  0.1881  0.5532 -1.0962
   43DOPE   C12 5423   1.738   3.033   2.746 -0.8864  0.7250 -0.4244
   43DOPE  H12A 5424   1.652   3.000   2.684 -2.5678  0.3993  1.9489
   43DOPE  H12B 5425   1.751   3.143   2.739  0.4580  0.6729  0.7749
   43DOPE   C11 5426   1.712   2.976   2.893  0.2521  0.4970 -0.3057
   43DOPE  H11A 5427   1.676   2.871   2.894  0.0378  0.5680 -0.4608
   43DOPE  H11B 5428   1.625   3.030   2.938 -0.3417 -1.1510  0.6241
   43DOPE     P 5429   1.866   3.119   3.051  0.3799  0.1165 -0.6255
   43DOPE   O13 5430   1.820   3.244   2.991  0.7419  0.8189 -0.1844
   43DOPE   O14 5431   2.013   3.111   3.068  0.0650 -0.3274 -0.3893
   43DOPE   O11 5432   1.795   3.111   3.192 -0.4462 -0.5169 -0.8226
   43DOPE   O12 5433   1.832   2.988   2.972 -0.1210  0.4617 -0.0727
   43DOPE    C1 5434   1.714   2.998   3.232  0.3235  0.6021 -0.1002
   43DOPE    HA 5435   1.743   2.900   3.188 -1.6068 -1.1934  2.3636
   43DOPE    HB 5436   1.605   3.003   3.212  0.6432  0.3787 -2.1421
   43DOPE    C2 5437   1.723   2.960   3.382 -1.0284  0.7489  0.0657
   43DOPE    HS 5438   1.672   2.862   3.391 -2.2801  1.2813 -0.9314
   43DOPE   O21 5439   1.652   3.053   3.464 -0.3350 -0.6248  0.4504
   43DOPE   C21 5440   1.575   3.016   3.564  1.0210  0.4373  0.6152
   43DOPE   O22 5441   1.550   2.901   3.593  0.1665  0.0831 -0.4045
   43DOPE   C22 5442   1.519   3.132   3.647  0.2734 -0.6290  0.2451
   43DOPE   H2R 5443   1.589   3.218   3.636  1.1068 -1.3264 -0.0389
   43DOPE   H2S 5444   1.514   3.096   3.752  0.4941 -0.9013  0.1644
   43DOPE    C3 5445   1.866   2.948   3.429 -0.0326  0.4364 -0.0764
   43DOPE    HX 5446   1.909   3.048   3.403  0.5646  0.0351 -0.6754
   43DOPE    HY 5447   1.920   2.867   3.375  0.8484  0.0035  1.4134
   43DOPE   O31 5448   1.866   2.939   3.573 -0.9358 -0.2203  0.8419
   43DOPE   C31 5449   1.862   2.812   3.615  0.7173  0.0301 -0.1275
   43DOPE   O32 5450   1.853   2.716   3.546  0.1266 -0.3639  0.6647
   43DOPE   C32 5451   1.889   2.808   3.765  0.3286  0.6265 -0.1730
   43DOPE   H2X 5452   1.985   2.756   3.784  0.9522  2.3579  1.8058
   43DOPE   H2Y 5453   1.914   2.914   3.791  0.7704  0.7808 -1.1456
   43DOPE   C23 5454   1.365   3.160   3.620  0.4358  0.4979 -0.0174
   43DOPE   H3R 5455   1.315   3.064   3.645  1.7990 -0.0035  0.8563
   43DOPE   H3S 5456   1.352   3.177   3.511  1.2297  0.4709 -0.1248
   43DOPE   C24 5457   1.301   3.276   3.706  0.3886  0.2489 -0.3092
   43DOPE   H4R 5458   1.217   3.331   3.659  0.1766 -0.5030 -0.8241
   43DOPE   H4S 5459   1.383   3.350   3.718 -1.6485  2.2828  2.0798
   43DOPE   C25 5460   1.259   3.226   3.851  0.0408 -0.4594 -0.7756
   43DOPE   H5R 5461   1.345   3.186   3.908 -0.2853  0.1800  0.1779
   43DOPE   H5S 5462   1.178   3.151   3.853 -0.1433 -0.2461  0.1749
   43DOPE   C26 5463   1.221   3.350   3.932  0.2571 -0.4209 -0.7942
   43DOPE   H6R 5464   1.288   3.433   3.899  0.0410  1.6427  3.2633
   43DOPE   H6S 5465   1.238   3.330   4.041 -0.0760 -0.2621 -0.7135
   43DOPE   C27 5466   1.078   3.408   3.910 -0.8813 -0.5952 -0.0338
   43DOPE   H7R 5467   1.007   3.329   3.941 -4.2508  1.5826 -1.5602
   43DOPE   H7S 5468   1.068   3.423   3.800 -0.1595  1.2590  0.1165
   43DOPE   C28 5469   1.038   3.525   3.999  0.1406  0.6566 -0.2533
   43DOPE   H8R 5470   1.117   3.599   4.023  0.0318  0.5465  0.4837
   43DOPE   H8S 5471   1.024   3.476   4.098 -0.7366 -0.9669 -1.1353
   43DOPE   C29 5472   0.916   3.606   3.969  0.2533 -0.0613  0.9172
   43DOPE   H9R 5473   0.936   3.707   3.929 -1.6622  0.3690  0.9496
   43DOPE  C210 5474   0.789   3.584   4.013 -0.0874  0.6869 -0.1493
   43DOPE  H10R 5475   0.701   3.632   3.967 -2.1236 -2.6895 -0.1309
   43DOPE  C211 5476   0.746   3.474   4.108 -0.0115  0.3202  0.0752
   43DOPE  H11R 5477   0.830   3.401   4.099  1.5644  1.9736  0.6514
   43DOPE  H11S 5478   0.659   3.423   4.060 -0.0192 -0.9305  1.3503
   43DOPE  C212 5479   0.724   3.517   4.246  0.7115 -0.0462 -0.4857
   43DOPE  H12R 5480   0.624   3.566   4.247  1.3677  1.3621  0.5685
   43DOPE  H12S 5481   0.786   3.602   4.284  0.7281 -0.1946 -0.1805
   43DOPE  C213 5482   0.723   3.408   4.357 -0.3478 -0.5521 -0.1864
   43DOPE  H13R 5483   0.828   3.373   4.352 -1.0101 -2.5668 -1.3737
   43DOPE  H13S 5484   0.653   3.328   4.324 -3.0865  1.8227 -0.5196
   43DOPE  C214 5485   0.699   3.460   4.496  0.5891  0.0609 -0.1864
   43DOPE  H14R 5486   0.601   3.512   4.492 -0.1510 -1.1269  1.4687
   43DOPE  H14S 5487   0.783   3.521   4.536  0.3065  0.1483  0.2849
   43DOPE  C215 5488   0.670   3.357   4.606 -0.7893  0.9826  0.7500
   43DOPE  H15R 5489   0.584   3.297   4.567  1.8963 -1.7616 -1.5192
   43DOPE  H15S 5490   0.644   3.405   4.702 -0.2699  3.3893 -0.2607
   43DOPE  C216 5491   0.792   3.264   4.631  0.0192 -0.6081  0.0423
   43DOPE  H16R 5492   0.889   3.318   4.630  0.6979 -1.7819  0.1550
   43DOPE  H16S 5493   0.785   3.181   4.558  1.4018  0.6575 -1.6072
   43DOPE  C217 5494   0.792   3.199   4.771 -0.2158 -0.4445  0.0352
   43DOPE  H17R 5495   0.807   3.090   4.762 -1.1390 -0.5664 -0.1775
   43DOPE  H17S 5496   0.691   3.224   4.810 -1.2193  0.3932 -2.8393
   43DOPE  C218 5497   0.896   3.254   4.868 -0.5730  0.6169 -0.0596
   43DOPE  H18R 5498   0.902   3.365   4.857  1.4079  0.5879  0.3367
   43DOPE  H18S 5499   1.001   3.221   4.850 -0.0446  0.1227  3.3231
   43DOPE  H18T 5500   0.876   3.225   4.973  1.8521  2.2981  0.9590
   43DOPE   C33 5501   1.781   2.750   3.860  0.5353  0.0190  0.2947
   43DOPE   H3X 5502   1.766   2.648   3.818  0.9182  0.7769 -1.7888
   43DOPE   H3Y 5503   1.691   2.814   3.858  1.7388  1.7667 -0.0980
   43DOPE   C34 5504   1.844   2.735   3.997 -1.1808  0.5826 -0.1109
   43DOPE   H4X 5505   1.927   2.662   3.982 -1.1543  0.5674  0.1029
   43DOPE   H4Y 5506   1.885   2.835   4.022 -4.5138  1.6130  1.8777
   43DOPE   C35 5507   1.745   2.681   4.097  0.4970  0.1537  0.5364
   43DOPE   H5X 5508   1.693   2.596   4.047 -0.4285  0.0585  1.6275
   43DOPE   H5Y 5509   1.665   2.757   4.103  0.8812  0.6695 -0.5524
   43DOPE   C36 5510   1.806   2.645   4.232  0.7643  1.0887 -0.0518
   43DOPE   H6X 5511   1.843   2.737   4.282  0.4820  0.2818  1.7243
   43DOPE   H6Y 5512   1.890   2.573   4.232 -0.1058  0.0270 -0.5955
   43DOPE   C37 5513   1.704   2.594   4.330  0.4957 -0.4526 -0.1083
   43DOPE   H7X 5514   1.638   2.679   4.360 -1.1888 -2.3122  1.7465
   43DOPE   H7Y 5515   1.639   2.524   4.274 -0.6496  0.0208  0.6138
   43DOPE   C38 5516   1.760   2.525   4.457  0.8306 -0.1851  0.5957
   43DOPE   H8X 5517   1.776   2.612   4.524  1.5000  1.2547 -1.3358
   43DOPE   H8Y 5518   1.858   2.483   4.425  1.6764  2.4537 -0.5898
   43DOPE   C39 5519   1.675   2.416   4.516  0.5260  0.0449 -0.6033
   43DOPE   H9X 5520   1.612   2.358   4.447  1.0461 -1.3385  0.0472
   43DOPE  C310 5521   1.645   2.402   4.646  0.2824 -0.9386 -0.7030
   43DOPE  H10X 5522   1.559   2.336   4.665  0.2302 -1.5742 -2.8899
   43DOPE  C311 5523   1.694   2.490   4.761  0.9733 -0.0605  0.0465
   43DOPE  H11X 5524   1.723   2.423   4.845  2.0668 -1.3396 -1.3065
   43DOPE  H11Y 5525   1.791   2.539   4.736 -0.6565  3.4132 -0.1023
   43DOPE  C312 5526   1.590   2.598   4.817  0.2336 -0.1361  0.3252
   43DOPE  H12X 5527   1.631   2.633   4.914  1.8081 -1.4135  0.1645
   43DOPE  H12Y 5528   1.485   2.568   4.839 -1.7352  3.6501 -2.6453
   43DOPE  C313 5529   1.575   2.724   4.727 -0.4994 -0.2002 -0.4722
   43DOPE  H13X 5530   1.548   2.690   4.625  0.2433  0.6658 -0.9754
   43DOPE  H13Y 5531   1.500   2.790   4.775  0.4668  0.5605  0.0502
   43DOPE  C314 5532   1.712   2.799   4.712  0.2924  0.4323 -0.0768
   43DOPE  H14X 5533   1.798   2.730   4.697 -0.4618 -1.1580  2.3095
   43DOPE  H14Y 5534   1.721   2.847   4.812  1.7770 -2.0585  1.1003
   43DOPE  C315 5535   1.702   2.899   4.601  1.0493 -0.0849  0.2269
   43DOPE  H15X 5536   1.608   2.959   4.601  2.5834  2.5181 -0.1193
   43DOPE  H15Y 5537   1.689   2.846   4.504 -2.9611 -0.3570  0.7614
   43DOPE  C316 5538   1.825   2.993   4.595 -0.3450  0.7050 -0.0237
   43DOPE  H16X 5539   1.845   3.042   4.692 -0.6076  1.2461 -0.2366
   43DOPE  H16Y 5540   1.813   3.074   4.520  3.0900 -1.0560 -2.7666
   43DOPE  C317 5541   1.947   2.917   4.534 -0.2079 -0.2372 -0.0328
   43DOPE  H17X 5542   1.967   2.820   4.585  1.0060  0.1587  0.2688
   43DOPE  H17Y 5543   1.944   2.896   4.425 -0.0285 -1.9186  0.2512
   43DOPE  C318 5544   2.069   3.001   4.572  0.3011 -0.1423  0.2209
   43DOPE  H18X 5545   2.083   2.995   4.682 -2.0386 -1.2548  0.5136
   43DOPE  H18Y 5546   2.158   2.961   4.518  0.7727  0.2569  0.6969
   43DOPE  H18Z 5547   2.044   3.106   4.548  0.1113 -0.6011 -1.8327
   44DOPE     N 5548   2.732   2.927   2.530  0.1754 -0.1597  0.0941
   44DOPE   HN1 5549   2.728   2.974   2.623  1.8248  1.1066 -0.4128
   44DOPE   HN2 5550   2.817   2.867   2.526  0.2318 -0.1505  1.0826
   44DOPE   HN3 5551   2.738   2.994   2.450 -0.1851 -0.3395 -0.0839
   44DOPE   C12 5552   2.602   2.846   2.515  0.6459 -0.7441  0.5981
   44DOPE  H12A 5553   2.612   2.776   2.430 -0.5367 -1.6688  1.1818
   44DOPE  H12B 5554   2.518   2.918   2.506  2.4845  1.5548  0.9934
   44DOPE   C11 5555   2.570   2.774   2.638 -0.2797 -0.9677 -0.1577
   44DOPE  H11A 5556   2.467   2.731   2.631 -1.1020  0.7611  0.7954
   44DOPE  H11B 5557   2.557   2.846   2.721 -1.1388 -0.3327 -0.8228
   44DOPE     P 5558   2.680   2.530   2.697 -0.0224  0.1996  0.2279
   44DOPE   O13 5559   2.817   2.497   2.738 -0.2437  0.3711  0.2692
   44DOPE   O14 5560   2.628   2.459   2.579  0.6433 -0.3863 -0.4486
   44DOPE   O11 5561   2.575   2.505   2.810  0.1463  0.3531  0.1512
   44DOPE   O12 5562   2.675   2.682   2.668  0.4996 -0.4874 -0.2700
   44DOPE    C1 5563   2.540   2.600   2.914  0.1248  0.1683  0.3230
   44DOPE    HA 5564   2.432   2.588   2.934 -0.3892 -0.0948 -2.2345
   44DOPE    HB 5565   2.551   2.709   2.897 -0.6565  0.1029 -0.6916
   44DOPE    C2 5566   2.613   2.561   3.041 -1.0584 -0.2209 -0.4086
   44DOPE    HS 5567   2.715   2.596   3.014 -1.6749  1.1649 -1.0404
   44DOPE   O21 5568   2.603   2.418   3.055  0.0116  0.0378  0.3089
   44DOPE   C21 5569   2.716   2.363   3.111  0.5392 -0.2104 -0.4375
   44DOPE   O22 5570   2.821   2.414   3.126 -0.4201 -0.4953  0.2610
   44DOPE   C22 5571   2.691   2.220   3.149  0.0484  0.3227  0.3606
   44DOPE   H2R 5572   2.784   2.171   3.113 -0.9667 -0.0693 -1.9548
   44DOPE   H2S 5573   2.618   2.163   3.088  1.7343  0.0150 -1.4703
   44DOPE    C3 5574   2.566   2.640   3.170 -0.5235  0.3679 -0.2387
   44DOPE    HX 5575   2.559   2.750   3.155 -1.3583  0.1461 -1.6569
   44DOPE    HY 5576   2.649   2.623   3.242 -0.6979 -1.2416 -0.3777
   44DOPE   O31 5577   2.446   2.582   3.219  0.0102  0.3065  0.1141
   44DOPE   C31 5578   2.339   2.651   3.202  0.4914 -0.8110 -0.0254
   44DOPE   O32 5579   2.321   2.750   3.127 -0.0722  0.3631 -0.7587
   44DOPE   C32 5580   2.232   2.594   3.292  0.7357  0.3640  0.6759
   44DOPE   H2X 5581   2.155   2.541   3.232  0.8365 -1.2772  1.9335
   44DOPE   H2Y 5582   2.282   2.514   3.350 -1.3700 -1.5927 -0.0850
   44DOPE   C23 5583   2.682   2.193   3.299  0.2074  0.1790 -0.0784
   44DOPE   H3R 5584   2.764   2.232   3.363  0.9276 -3.1126  1.2101
   44DOPE   H3S 5585   2.674   2.084   3.323  1.3096  0.0065 -0.4353
   44DOPE   C24 5586   2.548   2.256   3.346 -0.3808 -0.0113 -0.4737
   44DOPE   H4R 5587   2.461   2.197   3.310  1.4414 -1.8243 -2.2049
   44DOPE   H4S 5588   2.536   2.353   3.293 -0.4595  0.4199  0.3273
   44DOPE   C25 5589   2.540   2.271   3.505 -0.2368  0.1679 -0.5415
   44DOPE   H5R 5590   2.620   2.217   3.561  0.2601  3.1877  1.8913
   44DOPE   H5S 5591   2.440   2.235   3.536  0.8960 -1.3918  1.5224
   44DOPE   C26 5592   2.566   2.419   3.549  0.3181  0.9175 -1.0822
   44DOPE   H6R 5593   2.520   2.445   3.647  1.6705  2.1381 -0.7252
   44DOPE   H6S 5594   2.511   2.481   3.475  2.0136  3.1121 -0.6398
   44DOPE   C27 5595   2.718   2.445   3.569 -0.3467 -0.9510 -0.0327
   44DOPE   H7R 5596   2.754   2.437   3.464  0.0088  0.2973 -0.0136
   44DOPE   H7S 5597   2.770   2.365   3.625 -0.3247 -0.2788  0.9226
   44DOPE   C28 5598   2.732   2.585   3.629  0.9929 -0.4265 -0.4277
   44DOPE   H8R 5599   2.709   2.593   3.738  0.0965  0.0004 -0.6370
   44DOPE   H8S 5600   2.648   2.644   3.585  2.6322  1.5611 -1.0384
   44DOPE   C29 5601   2.857   2.649   3.590 -0.3520  0.2543 -0.5604
   44DOPE   H9R 5602   2.900   2.616   3.494 -2.0444 -0.3580 -1.1473
   44DOPE  C210 5603   2.929   2.742   3.659  0.0369  0.4945  0.3143
   44DOPE  H10R 5604   3.027   2.772   3.620 -1.0241  2.8529 -0.7818
   44DOPE  C211 5605   2.900   2.808   3.789 -0.4689  0.4602 -0.0579
   44DOPE  H11R 5606   2.818   2.763   3.849 -0.2769 -0.5634 -0.5373
   44DOPE  H11S 5607   2.876   2.915   3.771  1.3490  0.8251 -0.4731
   44DOPE  C212 5608   3.031   2.813   3.882 -0.2096  0.2535  0.3346
   44DOPE  H12R 5609   3.113   2.835   3.811 -0.6652 -1.4311 -0.7651
   44DOPE  H12S 5610   3.056   2.712   3.921 -1.2689 -0.2004 -0.1292
   44DOPE  C213 5611   3.015   2.902   4.000 -0.9110 -0.0450 -0.4530
   44DOPE  H13R 5612   2.947   2.846   4.068  0.0870 -0.2224  0.4311
   44DOPE  H13S 5613   2.965   2.999   3.979  0.8641  0.8716 -0.6345
   44DOPE  C214 5614   3.137   2.934   4.085  0.3966  0.1555 -0.2744
   44DOPE  H14R 5615   3.196   3.009   4.028  1.4623 -2.4999 -2.8685
   44DOPE  H14S 5616   3.208   2.849   4.096  0.8375  0.5041 -0.3967
   44DOPE  C215 5617   3.086   2.996   4.217 -0.1574 -0.1891 -0.1393
   44DOPE  H15R 5618   3.001   3.063   4.195  0.9731  1.1440 -0.5893
   44DOPE  H15S 5619   3.171   3.058   4.251 -0.8289  0.1461  0.9811
   44DOPE  C216 5620   3.056   2.894   4.329  0.6910  0.6932  0.2669
   44DOPE  H16R 5621   2.979   2.822   4.294  2.6023 -1.5629  0.3986
   44DOPE  H16S 5622   3.021   2.950   4.418 -2.5269 -1.3261  0.4503
   44DOPE  C217 5623   3.179   2.803   4.372  0.4022 -0.4688  0.2281
   44DOPE  H17R 5624   3.274   2.853   4.399  2.0828 -2.8952 -0.8108
   44DOPE  H17S 5625   3.214   2.741   4.287 -0.7784 -0.6322 -0.1601
   44DOPE  C218 5626   3.138   2.714   4.496 -0.1735 -0.5453 -0.3717
   44DOPE  H18R 5627   3.116   2.784   4.580  1.0472  1.8458 -1.9364
   44DOPE  H18S 5628   3.220   2.643   4.521  0.1124 -0.2084 -0.3429
   44DOPE  H18T 5629   3.043   2.665   4.467  0.5400 -1.8760 -0.5558
   44DOPE   C33 5630   2.170   2.700   3.384  0.4150 -0.0752 -0.0975
   44DOPE   H3X 5631   2.073   2.660   3.419  0.9069 -0.3855  0.9538
   44DOPE   H3Y 5632   2.151   2.799   3.337  1.1000  1.1312  2.0415
   44DOPE   C34 5633   2.249   2.733   3.514 -0.0008 -0.3361 -0.1468
   44DOPE   H4X 5634   2.354   2.742   3.479 -0.3343 -1.9894 -1.6805
   44DOPE   H4Y 5635   2.207   2.827   3.555 -0.1044  0.2007 -1.4506
   44DOPE   C35 5636   2.220   2.626   3.618 -1.3089  0.2199  0.2973
   44DOPE   H5X 5637   2.286   2.541   3.589 -0.8820  1.4778 -2.7418
   44DOPE   H5Y 5638   2.112   2.602   3.614 -1.1489 -0.3257 -1.5273
   44DOPE   C36 5639   2.251   2.670   3.764  0.5463 -0.6272 -0.2438
   44DOPE   H6X 5640   2.194   2.763   3.789 -0.0334 -1.1506  0.4359
   44DOPE   H6Y 5641   2.358   2.700   3.765  0.8261 -1.5687 -0.8095
   44DOPE   C37 5642   2.220   2.561   3.866  0.2221  0.7370  0.0929
   44DOPE   H7X 5643   2.114   2.529   3.855  1.2337 -1.9081 -3.9203
   44DOPE   H7Y 5644   2.269   2.468   3.832  1.6945  1.9552 -1.2500
   44DOPE   C38 5645   2.266   2.607   4.009  0.2324 -0.1914  0.2730
   44DOPE   H8X 5646   2.237   2.712   4.032 -0.0532 -0.3533  0.6713
   44DOPE   H8Y 5647   2.377   2.617   4.003  0.2577  0.4347  1.3917
   44DOPE   C39 5648   2.225   2.521   4.124 -0.2158  0.6202  0.9250
   44DOPE   H9X 5649   2.157   2.438   4.097  0.4077  0.4545 -0.1862
   44DOPE  C310 5650   2.266   2.539   4.249 -0.9368 -0.4637  0.3021
   44DOPE  H10X 5651   2.232   2.462   4.320 -1.2199 -1.7780 -1.2044
   44DOPE  C311 5652   2.361   2.644   4.301 -0.2945 -1.1518 -0.0542
   44DOPE  H11X 5653   2.461   2.600   4.316  0.1649  0.1229  0.7170
   44DOPE  H11Y 5654   2.377   2.724   4.226 -0.7641 -0.5455  0.4887
   44DOPE  C312 5655   2.309   2.702   4.433  0.2164  0.9888 -0.4946
   44DOPE  H12X 5656   2.205   2.737   4.415 -0.6054 -0.7120  0.6899
   44DOPE  H12Y 5657   2.381   2.781   4.465  0.5817  0.7845 -0.8071
   44DOPE  C313 5658   2.304   2.611   4.559  0.6180  0.1909  0.5152
   44DOPE  H13X 5659   2.261   2.511   4.536  0.2548  0.4651 -0.0433
   44DOPE  H13Y 5660   2.411   2.603   4.588  0.7742  1.0499  0.2118
   44DOPE  C314 5661   2.229   2.674   4.681 -0.3912 -0.6393 -0.0450
   44DOPE  H14X 5662   2.127   2.706   4.651 -0.1895  0.5033  0.4634
   44DOPE  H14Y 5663   2.294   2.760   4.706 -1.3554 -0.3691  1.7543
   44DOPE  C315 5664   2.239   2.606   4.813  0.2564 -0.2766 -0.0939
   44DOPE  H15X 5665   2.200   2.502   4.819  2.8476 -1.4247 -1.2061
   44DOPE  H15Y 5666   2.181   2.657   4.893 -2.0028  0.6612 -2.1778
   44DOPE  C316 5667   2.388   2.585   4.862  1.1231  0.1976  0.3445
   44DOPE  H16X 5668   2.453   2.673   4.843  0.4004  0.9894  1.4381
   44DOPE  H16Y 5669   2.432   2.506   4.798  1.6478 -0.8771  1.9892
   44DOPE  C317 5670   2.394   2.535   5.005 -0.2481 -0.7476 -0.7949
   44DOPE  H17X 5671   2.310   2.468   5.033 -0.3279 -1.0428 -1.7328
   44DOPE  H17Y 5672   2.489   2.478   5.010 -0.6368 -1.3552 -0.0386
   44DOPE  C318 5673   2.388   2.651   5.112 -0.0778  0.5042  0.4263
   44DOPE  H18X 5674   2.283   2.683   5.125  0.3891  3.5397 -2.2492
   44DOPE  H18Y 5675   2.437   2.627   5.210 -0.3521 -0.7458  0.2719
   44DOPE  H18Z 5676   2.447   2.741   5.083 -0.9801  1.0172  0.1641
   45DOPE     N 5677   3.382   2.996   2.766 -0.2943 -0.2394  0.2839
   45DOPE   HN1 5678   3.319   3.065   2.720  1.2801 -0.5308 -2.5397
   45DOPE   HN2 5679   3.373   2.904   2.718 -2.0204 -1.2236  2.2697
   45DOPE   HN3 5680   3.354   2.987   2.866 -3.1734  0.5424 -0.3559
   45DOPE   C12 5681   3.516   3.052   2.742 -1.3380 -0.0752  0.0137
   45DOPE  H12A 5682   3.586   2.996   2.808 -2.0787 -0.7200  0.2684
   45DOPE  H12B 5683   3.521   3.160   2.769  0.5475 -0.5303  1.7024
   45DOPE   C11 5684   3.523   3.033   2.584 -0.1739 -0.2974 -0.4033
   45DOPE  H11A 5685   3.617   3.085   2.557 -1.8631  2.3402 -1.6359
   45DOPE  H11B 5686   3.440   3.095   2.544  1.3193  2.5452  0.6359
   45DOPE     P 5687   3.657   2.819   2.539 -0.3583  0.2238  0.2573
   45DOPE   O13 5688   3.727   2.846   2.415  0.1318 -0.8030 -0.0754
   45DOPE   O14 5689   3.615   2.679   2.566  0.2061 -0.1681 -0.3443
   45DOPE   O11 5690   3.731   2.879   2.658  0.1028 -0.2822 -0.6177
   45DOPE   O12 5691   3.518   2.898   2.538 -1.1961 -0.3804  0.6174
   45DOPE    C1 5692   3.811   2.791   2.737  0.0586 -0.5579 -0.9698
   45DOPE    HA 5693   3.907   2.839   2.766  0.1756 -1.5571  0.4040
   45DOPE    HB 5694   3.832   2.694   2.687  1.2544 -0.6959 -0.2349
   45DOPE    C2 5695   3.758   2.743   2.879  0.0476 -0.2368  0.1059
   45DOPE    HS 5696   3.667   2.680   2.866  0.6017 -0.7912 -1.2372
   45DOPE   O21 5697   3.723   2.856   2.960 -0.1546 -0.0711 -0.4617
   45DOPE   C21 5698   3.627   2.835   3.048 -0.2583 -0.1607  0.3992
   45DOPE   O22 5699   3.546   2.741   3.035  0.0282 -0.0756 -0.7642
   45DOPE   C22 5700   3.617   2.951   3.144  0.1489  0.8200  0.6519
   45DOPE   H2R 5701   3.565   2.921   3.238  2.2194 -1.6759  1.1260
   45DOPE   H2S 5702   3.559   3.031   3.094 -0.5452  1.5063  2.4544
   45DOPE    C3 5703   3.870   2.643   2.945  0.3402 -0.6597  0.0061
   45DOPE    HX 5704   3.959   2.702   2.977  0.5139 -0.6963 -0.4074
   45DOPE    HY 5705   3.886   2.574   2.859  0.7166 -1.2918  0.5713
   45DOPE   O31 5706   3.819   2.575   3.053 -0.5114 -0.1316 -0.1738
   45DOPE   C31 5707   3.855   2.447   3.081 -0.2981  0.3475  0.4017
   45DOPE   O32 5708   3.940   2.381   3.028 -0.3558  0.5563  0.4491
   45DOPE   C32 5709   3.773   2.406   3.211 -0.0499  0.0875 -0.5087
   45DOPE   H2X 5710   3.799   2.491   3.278  0.6491 -0.4701 -0.0537
   45DOPE   H2Y 5711   3.669   2.417   3.175  0.3383  1.3125 -1.3341
   45DOPE   C23 5712   3.751   3.000   3.200 -0.8133  0.8096 -0.4536
   45DOPE   H3R 5713   3.733   3.087   3.265  3.1951  0.0622  2.0379
   45DOPE   H3S 5714   3.810   3.030   3.110  0.0381  1.3208  0.2528
   45DOPE   C24 5715   3.827   2.891   3.286 -0.1937  0.0316 -0.2773
   45DOPE   H4R 5716   3.933   2.923   3.287 -0.5403  1.3482  2.0554
   45DOPE   H4S 5717   3.813   2.788   3.245 -3.0535 -0.3712  1.4434
   45DOPE   C25 5718   3.782   2.896   3.435 -0.7861  0.7890  0.3545
   45DOPE   H5R 5719   3.671   2.896   3.434 -0.7977 -0.2955  0.3831
   45DOPE   H5S 5720   3.821   2.993   3.472  0.8276  1.0812 -1.8837
   45DOPE   C26 5721   3.850   2.795   3.526 -0.0554 -0.2654  0.8937
   45DOPE   H6R 5722   3.959   2.814   3.539  0.1691 -0.2558 -0.8514
   45DOPE   H6S 5723   3.836   2.699   3.471 -1.1367 -0.1217  0.8936
   45DOPE   C27 5724   3.790   2.792   3.666  0.1454 -0.3555  0.0674
   45DOPE   H7R 5725   3.689   2.746   3.664 -0.3368  0.6660  0.2998
   45DOPE   H7S 5726   3.775   2.896   3.699 -1.3445  0.1630 -1.9886
   45DOPE   C28 5727   3.868   2.705   3.763 -0.4471  0.1315 -0.0633
   45DOPE   H8R 5728   3.797   2.681   3.846  1.2212 -0.1781  1.3289
   45DOPE   H8S 5729   3.941   2.770   3.814 -0.9007 -0.3680  1.2913
   45DOPE   C29 5730   3.919   2.572   3.703 -0.4790  0.4082  0.5082
   45DOPE   H9R 5731   3.974   2.583   3.609 -1.3354  2.2310  0.1805
   45DOPE  C210 5732   3.891   2.449   3.756 -0.2839  0.1958 -0.4655
   45DOPE  H10R 5733   3.921   2.358   3.702  0.7635 -0.7496  1.5993
   45DOPE  C211 5734   3.816   2.426   3.885  0.1585 -0.2683  0.1694
   45DOPE  H11R 5735   3.708   2.450   3.880 -0.5757 -2.3774  2.9796
   45DOPE  H11S 5736   3.862   2.485   3.967  1.9264 -1.5904  0.1993
   45DOPE  C212 5737   3.820   2.282   3.928 -0.5799 -0.2431 -0.2293
   45DOPE  H12R 5738   3.920   2.261   3.973 -0.2398  2.0750  0.2272
   45DOPE  H12S 5739   3.816   2.213   3.841 -0.4174  0.0533 -0.4728
   45DOPE  C213 5740   3.723   2.252   4.039 -0.8732  0.3107  0.3655
   45DOPE  H13R 5741   3.620   2.260   3.997  0.4516 -1.1138 -3.6181
   45DOPE  H13S 5742   3.754   2.326   4.116  2.5836 -1.0943  0.5054
   45DOPE  C214 5743   3.748   2.115   4.103  0.1326 -0.4737 -0.1125
   45DOPE  H14R 5744   3.850   2.106   4.146  0.0642  2.1403  0.7782
   45DOPE  H14S 5745   3.732   2.031   4.032  0.4853 -2.3981  1.9857
   45DOPE  C215 5746   3.653   2.110   4.225  0.7235  0.0684  0.9135
   45DOPE  H15R 5747   3.547   2.126   4.194  1.4822  1.0584 -1.4258
   45DOPE  H15S 5748   3.675   2.190   4.298 -2.6634  2.2300 -0.1611
   45DOPE  C216 5749   3.660   1.967   4.294 -0.5537  0.0324  0.7327
   45DOPE  H16R 5750   3.760   1.921   4.309 -1.6200 -2.8373 -0.2207
   45DOPE  H16S 5751   3.619   1.884   4.233  2.9971 -2.7853  1.8092
   45DOPE  C217 5752   3.595   1.974   4.435  0.3497  0.8660 -0.0940
   45DOPE  H17R 5753   3.507   2.041   4.425 -0.5699 -0.4299 -0.9989
   45DOPE  H17S 5754   3.673   2.021   4.499  1.2241 -1.4227  0.6027
   45DOPE  C218 5755   3.542   1.846   4.497  0.4984  0.1329  0.4695
   45DOPE  H18R 5756   3.472   1.799   4.425  1.0138 -0.7679  0.5443
   45DOPE  H18S 5757   3.482   1.878   4.585  0.1063  0.9543 -0.0759
   45DOPE  H18T 5758   3.628   1.781   4.524  0.4180 -1.0305 -1.8505
   45DOPE   C33 5759   3.800   2.263   3.276 -0.0256  0.4172 -0.1089
   45DOPE   H3X 5760   3.907   2.255   3.304  0.0199 -1.0810 -0.6348
   45DOPE   H3Y 5761   3.789   2.197   3.188 -0.2824  1.5409 -0.9520
   45DOPE   C34 5762   3.708   2.236   3.393  0.1733  0.0243  0.0398
   45DOPE   H4X 5763   3.691   2.331   3.449 -2.0628  1.4837 -2.8060
   45DOPE   H4Y 5764   3.605   2.211   3.360 -0.6877  3.1837 -0.0018
   45DOPE   C35 5765   3.755   2.117   3.482  0.1456 -0.1078  0.0466
   45DOPE   H5X 5766   3.860   2.126   3.517 -0.7943 -0.4169  3.3462
   45DOPE   H5Y 5767   3.743   2.021   3.428  3.4752 -0.6632  0.1044
   45DOPE   C36 5768   3.689   2.106   3.616 -0.0817  0.4167 -0.1614
   45DOPE   H6X 5769   3.674   2.206   3.661 -3.3262 -0.3530  0.7748
   45DOPE   H6Y 5770   3.753   2.039   3.678  1.5779  1.4382 -0.6967
   45DOPE   C37 5771   3.554   2.047   3.607  0.0091  0.4688 -0.2114
   45DOPE   H7X 5772   3.503   2.099   3.524 -2.2167 -1.4787 -0.1683
   45DOPE   H7Y 5773   3.549   1.939   3.580 -2.1213  0.4906 -0.0617
   45DOPE   C38 5774   3.476   2.069   3.735 -0.2775  0.2824 -0.6911
   45DOPE   H8X 5775   3.477   2.179   3.747  0.0542  0.2199 -0.0941
   45DOPE   H8Y 5776   3.541   2.018   3.810 -3.2161 -2.1163  0.4041
   45DOPE   C39 5777   3.338   2.011   3.742 -0.4106  0.4255 -0.0567
   45DOPE   H9X 5778   3.301   1.997   3.640 -0.7964 -0.0501  0.1483
   45DOPE  C310 5779   3.265   1.960   3.847  0.2963  0.1216 -0.0652
   45DOPE  H10X 5780   3.187   1.890   3.815  1.2933  0.4381 -3.6548
   45DOPE  C311 5781   3.321   1.951   3.988  0.0039 -0.3305  0.4627
   45DOPE  H11X 5782   3.347   1.843   3.998  1.6954 -0.2108 -1.7460
   45DOPE  H11Y 5783   3.423   1.995   3.990  1.1802 -2.8437  1.5550
   45DOPE  C312 5784   3.230   1.996   4.093  0.8932 -0.6705  0.0005
   45DOPE  H12X 5785   3.127   1.959   4.074  0.6003  0.4275 -0.5964
   45DOPE  H12Y 5786   3.233   2.106   4.109 -0.7609 -0.8560  2.0486
   45DOPE  C313 5787   3.263   1.947   4.232  0.0969 -0.0529 -0.3889
   45DOPE  H13X 5788   3.246   1.838   4.220 -0.6970 -0.0311  0.4571
   45DOPE  H13Y 5789   3.374   1.958   4.236 -0.0317  1.1574  0.4347
   45DOPE  C314 5790   3.185   1.994   4.354  0.0178 -0.0269  0.7801
   45DOPE  H14X 5791   3.215   1.929   4.440  1.2924  2.0058  1.9771
   45DOPE  H14Y 5792   3.080   1.968   4.331  0.8503 -1.1876 -2.1508
   45DOPE  C315 5793   3.205   2.141   4.376  0.4558 -0.2062  0.2627
   45DOPE  H15X 5794   3.165   2.198   4.290 -0.7482 -1.9793 -0.4127
   45DOPE  H15Y 5795   3.315   2.157   4.374  0.6942 -1.6962 -0.1786
   45DOPE  C316 5796   3.147   2.200   4.503 -0.6412  0.1585  0.4656
   45DOPE  H16X 5797   3.041   2.169   4.518 -0.4836 -0.5960  0.0803
   45DOPE  H16Y 5798   3.144   2.311   4.499 -3.2977  0.1620  0.5096
   45DOPE  C317 5799   3.240   2.156   4.621 -0.0552  0.2580  0.1316
   45DOPE  H17X 5800   3.241   2.045   4.630 -0.3959  0.2819  0.5211
   45DOPE  H17Y 5801   3.347   2.185   4.609  0.6615 -1.9243  0.8186
   45DOPE  C318 5802   3.187   2.222   4.752  0.6411  0.1100  0.3359
   45DOPE  H18X 5803   3.164   2.330   4.737 -0.6464 -0.1404  0.3504
   45DOPE  H18Y 5804   3.098   2.169   4.793  0.6936 -0.5744 -0.4082
   45DOPE  H18Z 5805   3.273   2.209   4.821  1.4700  1.0385 -0.4909
   46DOPE     N 5806   3.443   0.860   2.518 -0.0488  0.2732  0.2339
   46DOPE   HN1 5807   3.419   0.880   2.419 -3.9335 -3.0117  0.2862
   46DOPE   HN2 5808   3.538   0.896   2.539 -0.4619  0.9236  1.1187
   46DOPE   HN3 5809   3.457   0.758   2.527  0.7905  0.1538 -1.9060
   46DOPE   C12 5810   3.353   0.921   2.619  0.0150 -0.0213  0.7532
   46DOPE  H12A 5811   3.266   0.950   2.557  0.7595  1.3846  0.3263
   46DOPE  H12B 5812   3.397   1.013   2.663  0.3204  0.2651 -0.1304
   46DOPE   C11 5813   3.318   0.813   2.729  0.4146  0.3509  0.6991
   46DOPE  H11A 5814   3.238   0.856   2.792  1.2173 -0.5249  2.3617
   46DOPE  H11B 5815   3.407   0.810   2.795 -0.0014  1.0466  1.3049
   46DOPE     P 5816   3.207   0.589   2.779 -0.0090  0.0486 -0.2245
   46DOPE   O13 5817   3.258   0.455   2.760  0.1841  0.0923 -0.1808
   46DOPE   O14 5818   3.062   0.613   2.749 -0.1467  0.1263  0.7365
   46DOPE   O11 5819   3.245   0.648   2.920  0.5466 -0.3522  0.2416
   46DOPE   O12 5820   3.289   0.677   2.682 -0.1346 -0.3221 -0.0384
   46DOPE    C1 5821   3.197   0.595   3.042 -0.5123  0.2956 -0.4821
   46DOPE    HA 5822   3.256   0.629   3.130 -1.9749 -0.6605  0.9264
   46DOPE    HB 5823   3.208   0.484   3.043 -1.3899  0.0923 -3.7716
   46DOPE    C2 5824   3.058   0.640   3.076  0.2192  0.4131 -0.4097
   46DOPE    HS 5825   2.982   0.610   3.001  2.9423 -1.6606 -2.5716
   46DOPE   O21 5826   3.068   0.783   3.092  0.5643  0.4947  0.4773
   46DOPE   C21 5827   2.949   0.848   3.057  0.5807 -0.1522 -0.4252
   46DOPE   O22 5828   2.839   0.796   3.037 -0.4447  0.4247 -0.2310
   46DOPE   C22 5829   2.983   0.996   3.067  0.6996 -0.8772 -0.1421
   46DOPE   H2R 5830   2.891   1.057   3.053  2.2621  1.6713 -0.0675
   46DOPE   H2S 5831   3.053   1.029   2.987  0.8391  0.2086  0.4045
   46DOPE    C3 5832   3.002   0.578   3.213  0.0528 -0.4273  0.0968
   46DOPE    HX 5833   2.899   0.615   3.231 -0.0078 -1.0545  1.1098
   46DOPE    HY 5834   3.049   0.616   3.306 -1.4959 -0.2878  0.8540
   46DOPE   O31 5835   2.998   0.437   3.203  0.3214  0.3318 -0.2694
   46DOPE   C31 5836   3.072   0.368   3.289 -0.0037 -0.3582  0.2682
   46DOPE   O32 5837   3.163   0.410   3.358  0.5739  0.4847 -0.1641
   46DOPE   C32 5838   3.035   0.213   3.289  0.1266 -0.4538  0.1154
   46DOPE   H2X 5839   3.025   0.181   3.183 -0.9171  0.2473 -0.0027
   46DOPE   H2Y 5840   3.115   0.166   3.350 -0.4703 -2.5974 -0.6539
   46DOPE   C23 5841   3.043   1.043   3.202 -0.2923  0.1081  0.2320
   46DOPE   H3R 5842   3.096   1.139   3.180  1.6318 -0.9173  0.1880
   46DOPE   H3S 5843   3.120   0.970   3.236  1.5716  1.5498 -0.6412
   46DOPE   C24 5844   2.943   1.070   3.311  0.4116 -0.8971  0.0962
   46DOPE   H4R 5845   2.868   0.988   3.319 -0.4237 -0.1200  0.4908
   46DOPE   H4S 5846   2.894   1.167   3.285  1.2624 -0.4490  0.1390
   46DOPE   C25 5847   3.004   1.104   3.451  0.1345  0.5748 -0.4436
   46DOPE   H5R 5848   3.074   1.188   3.441  1.6779 -0.4514  1.1402
   46DOPE   H5S 5849   3.071   1.017   3.467 -1.0778 -0.3683 -0.3110
   46DOPE   C26 5850   2.899   1.115   3.569  0.0893 -0.4367 -0.0117
   46DOPE   H6R 5851   2.838   1.023   3.581  0.4275 -1.0102 -2.1472
   46DOPE   H6S 5852   2.835   1.201   3.539 -0.6490 -1.4101 -1.3697
   46DOPE   C27 5853   2.974   1.153   3.696 -0.4539 -0.4601 -0.5757
   46DOPE   H7R 5854   3.021   1.253   3.699  0.4568 -0.8309 -1.6114
   46DOPE   H7S 5855   3.058   1.080   3.691 -0.0502  0.0544 -1.5816
   46DOPE   C28 5856   2.888   1.140   3.822  0.3791 -0.3827 -0.3579
   46DOPE   H8R 5857   2.836   1.043   3.809 -3.5510  1.3700  0.5927
   46DOPE   H8S 5858   2.806   1.212   3.801  1.4468  1.4734  1.4918
   46DOPE   C29 5859   2.967   1.158   3.953  0.3874  0.0721 -0.2165
   46DOPE   H9R 5860   3.073   1.128   3.942 -0.1107 -1.6421 -0.5256
   46DOPE  C210 5861   2.920   1.188   4.077 -0.1534 -0.4440  0.6022
   46DOPE  H10R 5862   2.993   1.216   4.155 -0.4836  1.4685  0.2598
   46DOPE  C211 5863   2.769   1.204   4.108  0.5360 -0.8522 -0.0484
   46DOPE  H11R 5864   2.710   1.152   4.030 -0.0118  0.5552 -0.5995
   46DOPE  H11S 5865   2.741   1.311   4.112  0.2470 -0.9742  2.4734
   46DOPE  C212 5866   2.754   1.134   4.236 -0.2045  0.9557 -0.5750
   46DOPE  H12R 5867   2.788   1.029   4.227 -1.3954  0.5922 -1.0283
   46DOPE  H12S 5868   2.647   1.122   4.259 -0.1169  0.2893 -0.4910
   46DOPE  C213 5869   2.828   1.203   4.360 -0.2325 -0.1614 -0.6286
   46DOPE  H13R 5870   2.796   1.309   4.348  1.0206  0.1563 -1.3615
   46DOPE  H13S 5871   2.938   1.205   4.344 -0.4729  0.8166 -2.4239
   46DOPE  C214 5872   2.783   1.150   4.498 -0.6421 -0.1207  0.1603
   46DOPE  H14R 5873   2.827   1.053   4.532 -0.8240  0.2180  1.4127
   46DOPE  H14S 5874   2.674   1.139   4.487 -0.4458 -2.7590  0.2246
   46DOPE  C215 5875   2.828   1.254   4.605  0.6743 -0.0238  0.8692
   46DOPE  H15R 5876   2.801   1.358   4.576  1.5274 -0.1387 -0.4546
   46DOPE  H15S 5877   2.938   1.263   4.597  0.4713  0.8902 -3.9258
   46DOPE  C216 5878   2.773   1.227   4.747  0.0876 -0.3254  0.4058
   46DOPE  H16R 5879   2.837   1.149   4.795 -1.7830 -2.6157 -0.5806
   46DOPE  H16S 5880   2.668   1.191   4.747 -0.5324  1.4255  0.6820
   46DOPE  C217 5881   2.770   1.347   4.839  0.2616  0.3995 -0.3716
   46DOPE  H17R 5882   2.709   1.428   4.792 -1.4235 -0.3116  0.5046
   46DOPE  H17S 5883   2.870   1.390   4.861 -0.9045  2.3795  1.4925
   46DOPE  C218 5884   2.706   1.327   4.977  0.2894  0.0694 -0.2838
   46DOPE  H18R 5885   2.710   1.416   5.043 -0.5465  0.4884 -0.7803
   46DOPE  H18S 5886   2.747   1.235   5.025 -2.6826 -0.6752  1.0856
   46DOPE  H18T 5887   2.601   1.292   4.970  0.8237 -1.7537  0.1902
   46DOPE   C33 5888   2.906   0.181   3.358 -0.1168  0.4550 -0.1707
   46DOPE   H3X 5889   2.898   0.070   3.369 -1.8086  0.6267  0.5582
   46DOPE   H3Y 5890   2.810   0.197   3.305  0.5695 -0.4150 -1.7375
   46DOPE   C34 5891   2.896   0.248   3.498  0.3229 -0.0544 -0.4937
   46DOPE   H4X 5892   3.000   0.254   3.536  0.3095  0.9191 -0.5764
   46DOPE   H4Y 5893   2.851   0.348   3.483 -0.4528 -0.4120 -0.6020
   46DOPE   C35 5894   2.805   0.166   3.594  0.2006  0.4693  0.5366
   46DOPE   H5X 5895   2.824   0.059   3.573  1.4904  0.3928  1.9357
   46DOPE   H5Y 5896   2.696   0.184   3.580  0.4286  0.9014 -0.7346
   46DOPE   C36 5897   2.845   0.189   3.742  0.0903  0.1042 -0.2874
   46DOPE   H6X 5898   2.826   0.293   3.776 -0.3337  0.2235 -0.8662
   46DOPE   H6Y 5899   2.953   0.167   3.748  0.4364  0.8796 -2.6699
   46DOPE   C37 5900   2.771   0.088   3.837 -0.2481 -0.4498  0.3862
   46DOPE   H7X 5901   2.663   0.114   3.838  0.1176  1.1942  1.6246
   46DOPE   H7Y 5902   2.789  -0.015   3.800  0.2555 -0.5925  1.0070
   46DOPE   C38 5903   2.825   0.085   3.984  0.1900  0.6368  0.2769
   46DOPE   H8X 5904   2.831   0.185   4.032 -0.3333  0.3994  0.8531
   46DOPE   H8Y 5905   2.925   0.037   3.982 -0.0316  0.1731  0.0934
   46DOPE   C39 5906   2.730   0.002   4.062 -0.7248 -0.2463 -0.7862
   46DOPE   H9X 5907   2.670  -0.076   4.011 -2.6217  0.4701  0.2361
   46DOPE  C310 5908   2.733  -0.005   4.197 -0.3641  0.1979  0.0058
   46DOPE  H10X 5909   2.663  -0.070   4.252 -0.9775  1.6310  0.9824
   46DOPE  C311 5910   2.820   0.068   4.294 -0.2207 -0.3483 -0.8464
   46DOPE  H11X 5911   2.835   0.174   4.262  0.8387 -0.2714 -0.1378
   46DOPE  H11Y 5912   2.764   0.075   4.390  1.8877 -0.2074  0.4241
   46DOPE  C312 5913   2.961   0.008   4.316 -0.8940 -0.2630 -0.4218
   46DOPE  H12X 5914   3.008   0.061   4.402  0.2609 -0.9051 -0.6373
   46DOPE  H12Y 5915   3.019   0.034   4.225 -0.0984  1.1358  0.4412
   46DOPE  C313 5916   2.973  -0.140   4.346  0.6790  0.8717 -0.6637
   46DOPE  H13X 5917   2.910  -0.170   4.433 -0.7788 -1.1394 -2.3234
   46DOPE  H13Y 5918   2.933  -0.184   4.253 -0.7545  0.1057  0.2755
   46DOPE  C314 5919   3.115  -0.188   4.376  0.2048  0.1691 -0.2303
   46DOPE  H14X 5920   3.174  -0.172   4.283  0.1083 -1.8899 -0.7093
   46DOPE  H14Y 5921   3.120  -0.298   4.390 -0.8093  0.1867  0.3513
   46DOPE  C315 5922   3.179  -0.121   4.496  0.0263 -0.8854  0.7103
   46DOPE  H15X 5923   3.220  -0.023   4.463 -1.8504 -0.3771 -0.3015
   46DOPE  H15Y 5924   3.269  -0.175   4.533  1.5576  0.2107 -1.2076
   46DOPE  C316 5925   3.089  -0.093   4.619  0.1121  0.2285 -0.8324
   46DOPE  H16X 5926   3.026  -0.180   4.649 -0.6566  1.1019  0.1751
   46DOPE  H16Y 5927   3.010  -0.018   4.597  1.9938  3.6891  2.9795
   46DOPE  C317 5928   3.157  -0.045   4.748  0.0646  0.5459  0.4738
   46DOPE  H17X 5929   3.126  -0.102   4.838  1.1272  1.3107  1.3510
   46DOPE  H17Y 5930   3.264  -0.074   4.749 -0.4482 -1.5007  0.5367
   46DOPE  C318 5931   3.153   0.110   4.767  0.0838 -0.5408 -0.2290
   46DOPE  H18X 5932   3.056   0.134   4.815  0.6241  1.5921 -0.1137
   46DOPE  H18Y 5933   3.219   0.151   4.847  2.3695  0.4420 -2.4683
   46DOPE  H18Z 5934   3.165   0.171   4.675  1.1988  1.3694  1.1123
   47DOPE     N 5935   1.924   4.522   3.561 -0.5854  0.3663  0.2196
   47DOPE   HN1 5936   1.840   4.463   3.544 -1.1647  1.5538 -1.3435
   47DOPE   HN2 5937   1.972   4.521   3.469 -1.2383 -1.1979 -0.1335
   47DOPE   HN3 5938   1.987   4.476   3.629 -0.3034  2.0178  1.1107
   47DOPE   C12 5939   1.883   4.651   3.606 -0.4518 -0.0392 -0.2652
   47DOPE  H12A 5940   1.782   4.645   3.651 -0.1437 -1.1356  0.3058
   47DOPE  H12B 5941   1.878   4.718   3.518 -1.6307  0.1605 -0.0622
   47DOPE   C11 5942   1.992   4.704   3.711  0.0370  0.7694  0.3852
   47DOPE  H11A 5943   1.986   4.635   3.798  1.0108  0.0942 -0.0672
   47DOPE  H11B 5944   1.973   4.806   3.748  3.5978  1.0230  1.9478
   47DOPE     P 5945   2.201   4.811   3.585 -0.2884 -0.2182 -0.3177
   47DOPE   O13 5946   2.116   4.878   3.483  0.7202 -0.2317 -0.5749
   47DOPE   O14 5947   2.320   4.754   3.524 -0.4362  0.6860  0.0622
   47DOPE   O11 5948   2.231   4.914   3.704 -0.0752  0.2281 -0.4522
   47DOPE   O12 5949   2.125   4.698   3.652 -0.0130  0.0427  0.1364
   47DOPE    C1 5950   2.261   4.867   3.836 -0.5136 -0.4822  0.4796
   47DOPE    HA 5951   2.291   4.759   3.833 -0.9376 -0.6760  2.0056
   47DOPE    HB 5952   2.178   4.878   3.909 -0.2277 -2.7504  1.2599
   47DOPE    C2 5953   2.381   4.937   3.877  0.3131 -0.4626 -0.2800
   47DOPE    HS 5954   2.453   4.923   3.794  0.3313 -1.0479 -0.1694
   47DOPE   O21 5955   2.438   4.878   3.994 -0.2381 -0.2490 -0.2161
   47DOPE   C21 5956   2.553   4.924   4.033  0.5799 -0.7743  0.5376
   47DOPE   O22 5957   2.632   4.999   3.969 -0.1143 -0.0733 -0.1947
   47DOPE   C22 5958   2.579   4.875   4.175 -0.4838 -0.5261  0.3569
   47DOPE   H2R 5959   2.617   4.772   4.157  1.0148  0.1704 -0.5479
   47DOPE   H2S 5960   2.481   4.866   4.229  0.6187 -1.2484  2.3587
   47DOPE    C3 5961   2.346   5.086   3.889 -0.3912  0.0744  0.6360
   47DOPE    HX 5962   2.339   5.140   3.792 -3.1033  0.0010  0.7270
   47DOPE    HY 5963   2.426   5.145   3.939 -0.8348 -0.1362  1.6122
   47DOPE   O31 5964   2.222   5.106   3.956 -0.3507  0.2607 -0.5616
   47DOPE   C31 5965   2.216   5.125   4.087  0.1768 -0.2282  0.0329
   47DOPE   O32 5966   2.311   5.149   4.158  0.2136  0.2479 -0.2310
   47DOPE   C32 5967   2.075   5.110   4.138 -0.3193 -0.3337  0.2852
   47DOPE   H2X 5968   2.057   5.207   4.188  0.4655  0.2465 -0.5235
   47DOPE   H2Y 5969   2.008   5.088   4.052 -1.2578  1.4957  0.4970
   47DOPE   C23 5970   2.673   4.951   4.271  0.6959 -0.4460 -0.3343
   47DOPE   H3R 5971   2.657   4.922   4.376  0.5879  0.3676 -0.1226
   47DOPE   H3S 5972   2.645   5.058   4.272  2.2694  0.0151 -1.1350
   47DOPE   C24 5973   2.822   4.934   4.228 -0.3094 -0.1469  0.0218
   47DOPE   H4R 5974   2.830   5.005   4.143 -0.8244  1.8181  1.5331
   47DOPE   H4S 5975   2.848   4.831   4.196 -1.1667  0.1749 -1.8503
   47DOPE   C25 5976   2.905   4.985   4.352 -0.0565  0.4266 -0.2413
   47DOPE   H5R 5977   2.885   4.905   4.427  0.4434 -0.8310 -1.4173
   47DOPE   H5S 5978   2.869   5.082   4.393 -1.3478 -0.0923 -0.0832
   47DOPE   C26 5979   3.051   4.997   4.318 -0.2332  0.7737 -0.4301
   47DOPE   H6R 5980   3.053   5.059   4.226  2.0599  0.0284 -0.9593
   47DOPE   H6S 5981   3.095   4.900   4.286 -0.0648  1.6106 -2.9087
   47DOPE   C27 5982   3.143   5.038   4.431 -0.8640  0.2276  0.0634
   47DOPE   H7R 5983   3.240   4.988   4.410 -0.5702  0.6346  0.4233
   47DOPE   H7S 5984   3.115   4.994   4.530  2.6731  1.3047  1.7496
   47DOPE   C28 5985   3.186   5.186   4.447  0.5272  0.1932  0.4736
   47DOPE   H8R 5986   3.221   5.213   4.345  1.5002  0.0865  0.7657
   47DOPE   H8S 5987   3.279   5.202   4.505  1.2428 -1.5606 -0.1149
   47DOPE   C29 5988   3.086   5.286   4.483 -0.3371 -0.6127  0.6961
   47DOPE   H9R 5989   3.018   5.324   4.405  1.0512  0.7286  0.1078
   47DOPE  C210 5990   3.068   5.337   4.602 -0.6126 -0.2887 -0.4801
   47DOPE  H10R 5991   2.993   5.416   4.616 -0.3065 -0.1823  0.6185
   47DOPE  C211 5992   3.155   5.312   4.723 -0.1587 -0.3159 -0.3111
   47DOPE  H11R 5993   3.224   5.226   4.711 -1.2312 -0.9985 -1.9239
   47DOPE  H11S 5994   3.093   5.285   4.811  0.5298 -2.2755 -0.3894
   47DOPE  C212 5995   3.241   5.429   4.770  0.5334 -0.0708  0.1119
   47DOPE  H12R 5996   3.317   5.451   4.692  1.4805 -0.0576  1.0194
   47DOPE  H12S 5997   3.301   5.389   4.855  4.0824  1.1622 -1.6095
   47DOPE  C213 5998   3.171   5.560   4.807  0.1244  0.1862  0.6025
   47DOPE  H13R 5999   3.079   5.520   4.854  0.1078  0.5642  0.8931
   47DOPE  H13S 6000   3.146   5.618   4.715  1.3110  0.5619  0.4986
   47DOPE  C214 6001   3.243   5.640   4.914  0.6275 -0.0514 -0.1299
   47DOPE  H14R 6002   3.336   5.676   4.864  0.7699 -1.0292 -0.5979
   47DOPE  H14S 6003   3.280   5.574   4.995 -1.5212  0.3594  1.2646
   47DOPE  C215 6004   3.141   5.737   4.974 -0.0662  0.2725  0.7868
   47DOPE  H15R 6005   3.064   5.662   5.002  0.2765 -0.9855 -1.4372
   47DOPE  H15S 6006   3.098   5.798   4.892 -0.7332 -2.2131 -0.7918
   47DOPE  C216 6007   3.190   5.836   5.077 -0.4185  1.4218  0.5332
   47DOPE  H16R 6008   3.107   5.899   5.116 -1.7840  0.1006 -0.1169
   47DOPE  H16S 6009   3.257   5.904   5.022 -0.7277  0.3665 -1.2221
   47DOPE  C217 6010   3.271   5.768   5.184  0.0188  0.2625 -0.4240
   47DOPE  H17R 6011   3.334   5.683   5.151 -2.8562 -2.0845 -0.2627
   47DOPE  H17S 6012   3.196   5.724   5.252 -0.1488 -0.1653 -0.8780
   47DOPE  C218 6013   3.356   5.879   5.243 -0.9881  0.0458 -0.1361
   47DOPE  H18R 6014   3.429   5.839   5.316  1.7754  3.6925 -0.5934
   47DOPE  H18S 6015   3.303   5.964   5.291 -1.0764 -0.6705  1.0901
   47DOPE  H18T 6016   3.414   5.919   5.158 -2.9932  0.2357 -1.4976
   47DOPE   C33 6017   2.064   4.993   4.243 -0.3437 -1.1607 -0.0036
   47DOPE   H3X 6018   2.087   4.894   4.197 -2.5358 -1.4684 -0.5854
   47DOPE   H3Y 6019   1.954   4.993   4.257 -0.3530  1.0119  0.1705
   47DOPE   C34 6020   2.150   5.019   4.364 -0.2065 -0.8197  0.4110
   47DOPE   H4X 6021   2.245   4.972   4.331 -0.0983  1.5111 -3.1040
   47DOPE   H4Y 6022   2.181   5.123   4.385  1.8852 -1.8465  2.9589
   47DOPE   C35 6023   2.098   4.951   4.493  0.2688 -0.3539 -0.2226
   47DOPE   H5X 6024   2.181   4.952   4.567  0.4213  0.8157 -0.3923
   47DOPE   H5Y 6025   2.071   4.846   4.469 -0.5813  0.2987 -2.3392
   47DOPE   C36 6026   1.977   5.020   4.550  0.4913  0.0298 -0.2632
   47DOPE   H6X 6027   1.886   4.990   4.494 -0.1300  1.2952  0.0301
   47DOPE   H6Y 6028   1.970   5.131   4.551 -0.4087 -0.0002 -1.1953
   47DOPE   C37 6029   1.952   4.954   4.686  0.2559 -0.3712  0.8815
   47DOPE   H7X 6030   1.967   4.844   4.679  0.2890 -0.2767 -1.2100
   47DOPE   H7Y 6031   2.027   4.999   4.755 -0.9833 -1.0527  2.7359
   47DOPE   C38 6032   1.813   4.979   4.737 -0.7859 -0.4265 -0.1807
   47DOPE   H8X 6033   1.745   4.919   4.672 -1.0678  2.5565 -2.9134
   47DOPE   H8Y 6034   1.792   5.085   4.711 -0.0954 -0.0858  0.6490
   47DOPE   C39 6035   1.794   4.942   4.881 -0.5331 -0.0347 -0.8423
   47DOPE   H9X 6036   1.824   4.837   4.900  1.1921  0.7735  1.2581
   47DOPE  C310 6037   1.750   5.010   4.986  0.3724 -0.1999 -0.3182
   47DOPE  H10X 6038   1.748   4.963   5.086  0.9017 -1.5934 -0.9339
   47DOPE  C311 6039   1.706   5.156   4.976 -0.2620  0.5307  0.5863
   47DOPE  H11X 6040   1.713   5.193   4.872 -0.9374 -2.3584 -0.5926
   47DOPE  H11Y 6041   1.608   5.173   5.024  0.1995 -0.3846  1.9457
   47DOPE  C312 6042   1.809   5.250   5.052  0.0236 -0.3509  0.1355
   47DOPE  H12X 6043   1.780   5.353   5.024 -0.8198 -0.7832 -0.6061
   47DOPE  H12Y 6044   1.910   5.220   5.015  0.2155  1.1759 -0.6390
   47DOPE  C313 6045   1.801   5.246   5.201 -0.6577  0.2248  0.5351
   47DOPE  H13X 6046   1.695   5.240   5.234 -0.4980  0.5628  1.1194
   47DOPE  H13Y 6047   1.846   5.149   5.231  0.9787  0.8956  0.3206
   47DOPE  C314 6048   1.886   5.344   5.275 -0.0238 -0.7031 -0.6155
   47DOPE  H14X 6049   1.866   5.450   5.249 -0.1744  0.9216  4.9125
   47DOPE  H14Y 6050   1.991   5.319   5.248 -0.3848  0.6703 -3.7496
   47DOPE  C315 6051   1.881   5.335   5.430  0.2946 -0.4270 -0.4594
   47DOPE  H15X 6052   1.907   5.237   5.474  1.0924 -0.2341 -0.4984
   47DOPE  H15Y 6053   1.778   5.370   5.456 -0.1113  0.0251 -2.4975
   47DOPE  C316 6054   1.993   5.428   5.481  0.5971  0.5732 -0.4394
   47DOPE  H16X 6055   1.988   5.528   5.433 -2.0380  1.8134  2.1275
   47DOPE  H16Y 6056   2.086   5.372   5.456  1.6550  0.9307  2.3248
   47DOPE  C317 6057   1.993   5.443   5.637 -0.0916  0.2168  0.0910
   47DOPE  H17X 6058   1.976   5.341   5.680 -0.5811 -0.5860 -1.9092
   47DOPE  H17Y 6059   2.096   5.482   5.655 -0.2430 -0.0767  1.8102
   47DOPE  C318 6060   1.891   5.543   5.674  0.4198  0.0601  0.6225
   47DOPE  H18X 6061   1.900   5.573   5.781  0.9686 -0.4732  0.7301
   47DOPE  H18Y 6062   1.907   5.638   5.618  0.7602  0.7426  1.8254
   47DOPE  H18Z 6063   1.790   5.501   5.657  0.7936 -0.4988 -0.2887
   48DOPE     N 6064   6.206   0.510   3.189  0.0919 -0.9109  0.1250
   48DOPE   HN1 6065   6.240   0.414   3.167  1.1516 -0.7302  0.9016
   48DOPE   HN2 6066   6.272   0.573   3.140 -2.9778  2.0636 -0.5724
   48DOPE   HN3 6067   6.229   0.528   3.289  1.4642  0.2804 -0.3733
   48DOPE   C12 6068   6.071   0.547   3.141  0.2604  0.0607 -0.3575
   48DOPE  H12A 6069   6.021   0.459   3.094 -0.5147 -0.3101  1.1018
   48DOPE  H12B 6070   6.074   0.626   3.062 -2.0902  0.3783 -0.2211
   48DOPE   C11 6071   5.981   0.593   3.259 -0.0846 -0.4900  0.4521
   48DOPE  H11A 6072   5.966   0.499   3.317  0.5322 -0.5381  0.5396
   48DOPE  H11B 6073   5.884   0.639   3.229 -0.4708 -0.4908  1.6349
   48DOPE     P 6074   6.014   0.815   3.409 -0.1112  0.0608  0.2400
   48DOPE   O13 6075   5.899   0.875   3.337  0.0698 -0.4376 -0.5672
   48DOPE   O14 6076   6.136   0.898   3.437  0.3081  0.3141 -0.1013
   48DOPE   O11 6077   5.975   0.762   3.548  0.6282 -0.1677  0.2605
   48DOPE   O12 6078   6.052   0.678   3.342  0.2652 -0.3110 -0.5238
   48DOPE    C1 6079   6.061   0.680   3.627  0.1032 -0.1651 -0.1996
   48DOPE    HA 6080   6.169   0.692   3.602  0.4373 -1.0217  0.7708
   48DOPE    HB 6081   6.035   0.572   3.623  2.7224 -0.8581 -0.3247
   48DOPE    C2 6082   6.051   0.737   3.772  0.9366 -0.1874 -0.6373
   48DOPE    HS 6083   6.134   0.688   3.829  0.1190 -0.7782  0.0640
   48DOPE   O21 6084   5.920   0.716   3.832  0.4282  0.1961  0.7482
   48DOPE   C21 6085   5.904   0.585   3.873  0.0501  0.5905 -0.0928
   48DOPE   O22 6086   5.994   0.505   3.892 -0.1202  0.3361 -1.0061
   48DOPE   C22 6087   5.756   0.547   3.849 -0.3525 -1.0898 -0.2099
   48DOPE   H2R 6088   5.747   0.480   3.760  1.2927 -2.7925  0.8377
   48DOPE   H2S 6089   5.703   0.641   3.822  0.7362 -0.7233 -1.1374
   48DOPE    C3 6090   6.071   0.894   3.762  0.0767  0.4542 -0.2798
   48DOPE    HX 6091   6.035   0.928   3.862 -0.2138 -1.0873  0.1761
   48DOPE    HY 6092   5.995   0.943   3.698 -0.5019 -1.4802 -1.1590
   48DOPE   O31 6093   6.201   0.929   3.729 -0.4116  0.0733  0.0381
   48DOPE   C31 6094   6.263   1.008   3.815 -0.4851 -0.4855 -0.3218
   48DOPE   O32 6095   6.226   1.061   3.916  0.1397 -0.5495 -0.1067
   48DOPE   C32 6096   6.405   1.036   3.769 -0.0061 -0.1300  0.1947
   48DOPE   H2X 6097   6.430   0.960   3.692 -0.2418  1.0949 -1.1441
   48DOPE   H2Y 6098   6.413   1.141   3.735  1.4191  0.1713  1.3732
   48DOPE   C23 6099   5.698   0.476   3.975 -0.5002 -0.3350 -0.1042
   48DOPE   H3R 6100   5.727   0.521   4.072 -0.7418 -0.0819 -0.1487
   48DOPE   H3S 6101   5.740   0.373   3.971 -1.6983 -0.8186 -2.4059
   48DOPE   C24 6102   5.546   0.452   3.964  0.1426 -0.1852  0.0714
   48DOPE   H4R 6103   5.524   0.379   4.045  2.4467 -0.0936  0.8315
   48DOPE   H4S 6104   5.526   0.419   3.860 -0.1870 -0.5824  0.2538
   48DOPE   C25 6105   5.474   0.586   3.980  0.0886 -0.2574  0.0536
   48DOPE   H5R 6106   5.516   0.654   3.903 -0.9181 -0.3895 -0.6233
   48DOPE   H5S 6107   5.504   0.633   4.076 -0.1712  0.2619 -0.1164
   48DOPE   C26 6108   5.326   0.581   3.966  0.5870  0.0769 -0.0400
   48DOPE   H6R 6109   5.295   0.499   4.033  0.2273  0.6885  0.5595
   48DOPE   H6S 6110   5.302   0.542   3.864 -2.3338 -0.0528  0.6131
   48DOPE   C27 6111   5.262   0.724   3.991 -0.1430 -0.4107  0.3242
   48DOPE   H7R 6112   5.164   0.724   3.938 -0.2001 -0.5582  0.4283
   48DOPE   H7S 6113   5.324   0.799   3.938 -1.8413  2.1718  1.7709
   48DOPE   C28 6114   5.236   0.773   4.137 -0.3540  0.5653  0.4179
   48DOPE   H8R 6115   5.339   0.800   4.167 -1.0439  0.7001  2.9488
   48DOPE   H8S 6116   5.220   0.687   4.206  1.0220  1.1961  1.5819
   48DOPE   C29 6117   5.133   0.882   4.157  0.6248 -0.5784  0.2709
   48DOPE   H9R 6118   5.157   0.978   4.107  1.3071 -0.4445  0.8335
   48DOPE  C210 6119   5.031   0.869   4.240  0.3064 -0.0790  0.2126
   48DOPE  H10R 6120   4.958   0.950   4.251 -1.6693 -1.8427  0.8764
   48DOPE  C211 6121   5.001   0.754   4.331 -0.3932 -0.1104 -0.1291
   48DOPE  H11R 6122   5.089   0.690   4.354  1.1819  1.1796 -2.1845
   48DOPE  H11S 6123   4.933   0.691   4.270  0.4000  0.0415 -1.1885
   48DOPE  C212 6124   4.935   0.795   4.469  0.4070  0.3051  0.5911
   48DOPE  H12R 6125   4.889   0.709   4.523  0.6508  0.4890  1.0896
   48DOPE  H12S 6126   4.844   0.849   4.437  0.1573 -0.3808  0.1077
   48DOPE  C213 6127   5.031   0.862   4.561 -0.3540  0.1973 -0.5095
   48DOPE  H13R 6128   5.082   0.946   4.509  1.5234 -1.3537 -1.2993
   48DOPE  H13S 6129   5.111   0.790   4.588 -0.8680 -0.2095 -0.0683
   48DOPE  C214 6130   4.962   0.903   4.695  0.7884 -0.0192  0.2995
   48DOPE  H14R 6131   4.903   0.811   4.719  2.0147 -0.5886  1.2933
   48DOPE  H14S 6132   4.896   0.989   4.674 -0.1655 -0.9768 -0.7535
   48DOPE  C215 6133   5.054   0.934   4.810 -0.6143 -0.5537  0.0193
   48DOPE  H15R 6134   5.128   1.007   4.772 -2.9734  2.4742  0.8435
   48DOPE  H15S 6135   5.110   0.843   4.840 -0.1633  0.4013  2.3092
   48DOPE  C216 6136   4.976   0.999   4.927  0.8716 -0.3545  0.2939
   48DOPE  H16R 6137   4.889   0.936   4.951 -1.3171  2.6091  0.7314
   48DOPE  H16S 6138   4.929   1.094   4.892  0.9309 -0.0122  1.1155
   48DOPE  C217 6139   5.058   1.039   5.054 -0.3524 -0.0544  0.4324
   48DOPE  H17R 6140   5.127   1.116   5.012 -0.5141  0.6485  1.4064
   48DOPE  H17S 6141   5.122   0.964   5.107  1.1460  1.2456  0.5339
   48DOPE  C218 6142   4.980   1.113   5.165  0.2460 -0.0332  0.5028
   48DOPE  H18R 6143   5.058   1.125   5.243  0.4001 -0.5907  0.4424
   48DOPE  H18S 6144   4.901   1.043   5.201  0.3582 -0.1638  0.4933
   48DOPE  H18T 6145   4.934   1.211   5.142  0.9933  0.2929  0.3947
   48DOPE   C33 6146   6.507   1.000   3.887 -0.3416 -0.1667 -0.3137
   48DOPE   H3X 6147   6.469   1.041   3.984 -1.5598  0.6160 -1.0979
   48DOPE   H3Y 6148   6.599   1.057   3.862 -0.5810 -0.1617 -1.1898
   48DOPE   C34 6149   6.526   0.852   3.900 -0.1022 -0.2564  0.2467
   48DOPE   H4X 6150   6.434   0.800   3.935  0.2725 -1.0210  0.1051
   48DOPE   H4Y 6151   6.536   0.815   3.796 -0.1896  0.2442  0.0569
   48DOPE   C35 6152   6.657   0.813   3.973  0.5618 -0.0436 -0.5907
   48DOPE   H5X 6153   6.725   0.899   3.957 -0.3622  1.1800  1.5837
   48DOPE   H5Y 6154   6.698   0.719   3.930  1.5216  0.0393  0.1010
   48DOPE   C36 6155   6.624   0.793   4.125 -0.3680  0.6297  0.8807
   48DOPE   H6X 6156   6.581   0.690   4.127 -0.4457  0.6683  2.2112
   48DOPE   H6Y 6157   6.545   0.867   4.148 -1.8980  0.5449 -3.3156
   48DOPE   C37 6158   6.744   0.808   4.223  0.1449 -0.1257  0.6229
   48DOPE   H7X 6159   6.806   0.717   4.211 -0.2710 -0.2218 -1.0298
   48DOPE   H7Y 6160   6.810   0.897   4.211  0.7201 -0.1900  2.9378
   48DOPE   C38 6161   6.697   0.824   4.368 -0.6728  0.0321  0.7029
   48DOPE   H8X 6162   6.612   0.755   4.388 -2.3293  1.3278 -1.3681
   48DOPE   H8Y 6163   6.662   0.929   4.384 -0.5803  0.2378 -0.4012
   48DOPE   C39 6164   6.810   0.801   4.475 -0.1769 -0.1587  0.3320
   48DOPE   H9X 6165   6.909   0.819   4.431 -0.7179 -0.5172 -1.0516
   48DOPE  C310 6166   6.798   0.756   4.598 -1.3176  0.5732 -0.0789
   48DOPE  H10X 6167   6.889   0.753   4.660 -0.6452 -0.7016 -1.0747
   48DOPE  C311 6168   6.670   0.716   4.669  0.2526 -0.0643 -0.0580
   48DOPE  H11X 6169   6.605   0.645   4.613 -0.1413 -0.3887  0.7953
   48DOPE  H11Y 6170   6.698   0.650   4.754 -1.6095  0.6433  1.1837
   48DOPE  C312 6171   6.582   0.843   4.724 -0.3155  0.4166  0.1354
   48DOPE  H12X 6172   6.585   0.925   4.650 -2.0277  0.8399  0.5009
   48DOPE  H12Y 6173   6.630   0.882   4.816  1.1349 -0.7120 -0.0827
   48DOPE  C313 6174   6.436   0.809   4.745 -0.9269 -0.5656  0.7831
   48DOPE  H13X 6175   6.386   0.808   4.646  0.8617  0.5849 -0.1801
   48DOPE  H13Y 6176   6.417   0.715   4.801  0.9387 -3.2102 -2.7178
   48DOPE  C314 6177   6.370   0.926   4.820 -0.4482  0.0257  0.1664
   48DOPE  H14X 6178   6.411   1.023   4.784 -1.3345  0.6904  0.9183
   48DOPE  H14Y 6179   6.392   0.912   4.928  1.0712 -3.8916 -0.4932
   48DOPE  C315 6180   6.215   0.946   4.807  0.3943  0.4441 -0.4480
   48DOPE  H15X 6181   6.187   1.011   4.722 -3.3620 -1.6733 -1.0328
   48DOPE  H15Y 6182   6.192   0.989   4.907  3.0731 -1.0271  0.9160
   48DOPE  C316 6183   6.148   0.807   4.798  0.3738  0.4172 -0.3719
   48DOPE  H16X 6184   6.186   0.738   4.876 -0.0756 -0.3653 -0.8357
   48DOPE  H16Y 6185   6.177   0.753   4.705  1.1102 -1.3487  0.8411
   48DOPE  C317 6186   5.990   0.806   4.796  0.0720 -0.3136  0.4304
   48DOPE  H17X 6187   5.945   0.705   4.807 -1.4137  0.4627  2.1150
   48DOPE  H17Y 6188   5.960   0.857   4.891 -1.0507 -0.2751  0.0705
   48DOPE  C318 6189   5.923   0.855   4.666 -0.5650 -0.6084 -0.3587
   48DOPE  H18X 6190   5.955   0.960   4.650  0.3250 -1.2905 -4.0505
   48DOPE  H18Y 6191   5.962   0.792   4.583  2.7848 -2.3938  2.3121
   48DOPE  H18Z 6192   5.812   0.851   4.662 -0.5699 -0.1725 -0.6505
   49DOPE     N 6193   2.909   5.822   3.500  0.2416  0.1063 -0.0861
   49DOPE   HN1 6194   2.952   5.733   3.532  0.0232 -0.1387 -0.4662
   49DOPE   HN2 6195   2.982   5.897   3.501  1.2906 -0.8773 -0.7823
   49DOPE   HN3 6196   2.828   5.845   3.560 -1.8111 -1.7841 -1.9673
   49DOPE   C12 6197   2.854   5.801   3.358 -0.6429  0.2251  0.0371
   49DOPE  H12A 6198   2.933   5.831   3.286 -1.4374  1.6835 -0.2708
   49DOPE  H12B 6199   2.772   5.875   3.343 -2.1113 -1.1940  0.7555
   49DOPE   C11 6200   2.812   5.653   3.347  0.8866  0.4576  0.0992
   49DOPE  H11A 6201   2.884   5.585   3.398  1.6041 -0.3851 -1.9350
   49DOPE  H11B 6202   2.799   5.641   3.237  0.8899  0.5948  0.0842
   49DOPE     P 6203   2.569   5.554   3.347  0.2870 -0.0649  0.0828
   49DOPE   O13 6204   2.616   5.424   3.294 -0.0584 -0.4707  0.6564
   49DOPE   O14 6205   2.507   5.643   3.253 -0.2260 -0.0702 -0.2500
   49DOPE   O11 6206   2.473   5.530   3.465  0.7341 -0.2819 -0.0646
   49DOPE   O12 6207   2.690   5.629   3.414  0.5132 -0.0714  0.1436
   49DOPE    C1 6208   2.512   5.463   3.587 -0.1132  0.4812 -0.0170
   49DOPE    HA 6209   2.592   5.390   3.563  0.1049  1.3150 -2.0217
   49DOPE    HB 6210   2.431   5.400   3.629  1.9220 -2.3680 -0.1205
   49DOPE    C2 6211   2.572   5.544   3.708 -0.4096  0.2178 -0.3008
   49DOPE    HS 6212   2.681   5.548   3.689 -0.0728 -0.1998  1.3050
   49DOPE   O21 6213   2.551   5.465   3.829 -0.4650  0.0776  0.5862
   49DOPE   C21 6214   2.647   5.494   3.927 -0.5485 -0.0028  0.5499
   49DOPE   O22 6215   2.747   5.559   3.904  0.2847 -0.0501  0.2596
   49DOPE   C22 6216   2.607   5.414   4.052  0.0915  0.1211  0.1721
   49DOPE   H2R 6217   2.624   5.307   4.026  0.8127  0.3181 -0.1877
   49DOPE   H2S 6218   2.498   5.436   4.059 -0.0810  0.1153 -1.8319
   49DOPE    C3 6219   2.506   5.682   3.723  0.0178  0.4540  0.0561
   49DOPE    HX 6220   2.398   5.672   3.747  0.2949 -0.0990  1.1291
   49DOPE    HY 6221   2.493   5.738   3.628  0.0196  0.3540 -0.0038
   49DOPE   O31 6222   2.564   5.767   3.821  0.3419  0.1156 -0.9524
   49DOPE   C31 6223   2.646   5.851   3.768 -0.5097  0.1785 -0.5079
   49DOPE   O32 6224   2.691   5.847   3.656 -0.9909  0.2059  0.1565
   49DOPE   C32 6225   2.681   5.961   3.866  0.2980  0.1792 -0.7734
   49DOPE   H2X 6226   2.776   5.945   3.921 -0.5026 -0.8216  0.3576
   49DOPE   H2Y 6227   2.682   6.057   3.809  0.7610  1.2592  0.9692
   49DOPE   C23 6228   2.688   5.458   4.178  0.1379  0.2383  0.3721
   49DOPE   H3R 6229   2.662   5.562   4.203  0.0804  0.3949 -0.3136
   49DOPE   H3S 6230   2.796   5.451   4.150 -0.3101 -0.7572 -1.2785
   49DOPE   C24 6231   2.676   5.355   4.285  0.0261 -0.3090  0.3111
   49DOPE   H4R 6232   2.747   5.384   4.365  0.1064 -0.0160  0.1349
   49DOPE   H4S 6233   2.716   5.258   4.248  0.2766 -0.2271  0.3676
   49DOPE   C25 6234   2.534   5.351   4.352  0.2015 -0.1620  0.2048
   49DOPE   H5R 6235   2.466   5.285   4.294  0.0930  0.0930  0.0350
   49DOPE   H5S 6236   2.492   5.453   4.337 -0.1617 -0.4232 -0.6203
   49DOPE   C26 6237   2.522   5.310   4.500 -0.6175  0.3135 -0.3675
   49DOPE   H6R 6238   2.589   5.373   4.562 -0.8677  1.1011 -0.8809
   49DOPE   H6S 6239   2.554   5.204   4.513 -0.9459  0.0868 -1.3017
   49DOPE   C27 6240   2.380   5.322   4.567  0.1687  0.3966 -0.3296
   49DOPE   H7R 6241   2.320   5.268   4.490  0.8433  1.3131 -1.5329
   49DOPE   H7S 6242   2.352   5.429   4.575  2.5908  1.1671 -1.0093
   49DOPE   C28 6243   2.381   5.269   4.707  0.4135  0.9933  0.1262
   49DOPE   H8R 6244   2.442   5.337   4.770 -2.1284  1.9422  1.7030
   49DOPE   H8S 6245   2.431   5.170   4.700  1.6951  1.7130 -2.5015
   49DOPE   C29 6246   2.236   5.241   4.765  0.6116 -0.0347 -0.1537
   49DOPE   H9R 6247   2.210   5.135   4.780  0.8847  0.1201  1.6936
   49DOPE  C210 6248   2.154   5.330   4.824 -0.5083 -0.3290 -0.2714
   49DOPE  H10R 6249   2.055   5.288   4.845  0.1409 -2.0381 -0.4675
   49DOPE  C211 6250   2.194   5.474   4.846  0.5913 -0.1702  0.5650
   49DOPE  H11R 6251   2.105   5.538   4.828  0.0079 -1.1429 -0.0912
   49DOPE  H11S 6252   2.269   5.503   4.770 -0.1775 -2.4749 -1.1943
   49DOPE  C212 6253   2.256   5.511   4.986  0.6145 -0.0177  0.3171
   49DOPE  H12R 6254   2.340   5.581   4.966 -0.0057  0.1101 -2.0945
   49DOPE  H12S 6255   2.307   5.424   5.032 -1.8036 -1.3902  0.5233
   49DOPE  C213 6256   2.153   5.573   5.089  0.7582  0.0018 -0.6367
   49DOPE  H13R 6257   2.108   5.490   5.148  0.5441 -0.0779 -0.9098
   49DOPE  H13S 6258   2.077   5.624   5.028 -1.0945 -0.8819  0.8271
   49DOPE  C214 6259   2.210   5.680   5.183  0.5396  0.0606 -0.0843
   49DOPE  H14R 6260   2.119   5.707   5.240  0.4712  0.0815 -0.2030
   49DOPE  H14S 6261   2.260   5.760   5.125 -0.3339  0.9118  0.3023
   49DOPE  C215 6262   2.317   5.634   5.288  0.0481  0.2949 -0.5795
   49DOPE  H15R 6263   2.395   5.583   5.228  1.5542  1.4984  0.2636
   49DOPE  H15S 6264   2.281   5.562   5.364  1.4614  0.0025 -0.1462
   49DOPE  C216 6265   2.374   5.759   5.358  0.3356  0.0469 -0.3256
   49DOPE  H16R 6266   2.431   5.816   5.281 -0.6056 -1.4822 -2.2622
   49DOPE  H16S 6267   2.442   5.727   5.440 -0.1082  1.9930  0.8650
   49DOPE  C217 6268   2.270   5.853   5.426 -0.0568 -0.0694  0.5920
   49DOPE  H17R 6269   2.192   5.789   5.473  1.0074 -0.2032  2.2198
   49DOPE  H17S 6270   2.214   5.906   5.345  2.4532  2.0239  0.1074
   49DOPE  C218 6271   2.333   5.951   5.523 -0.1766  0.3701  0.0698
   49DOPE  H18R 6272   2.412   6.004   5.465  0.7718 -1.2180 -0.1704
   49DOPE  H18S 6273   2.379   5.894   5.607 -0.3420  0.9969  0.5905
   49DOPE  H18T 6274   2.257   6.021   5.565 -0.6113  0.5207 -0.9460
   49DOPE   C33 6275   2.594   5.967   3.990 -0.2579  0.1029  0.4632
   49DOPE   H3X 6276   2.489   5.951   3.956 -0.4689 -0.4860  1.3420
   49DOPE   H3Y 6277   2.609   6.070   4.029 -0.4473  0.2424  0.1637
   49DOPE   C34 6278   2.617   5.862   4.098  0.6923 -0.2121  0.1540
   49DOPE   H4X 6279   2.618   5.756   4.065  3.0624 -0.7111  1.5742
   49DOPE   H4Y 6280   2.716   5.886   4.142  0.4140 -0.7752  1.1173
   49DOPE   C35 6281   2.501   5.874   4.202  0.5039 -0.7216 -0.3818
   49DOPE   H5X 6282   2.401   5.858   4.156 -0.5950 -0.1068  1.6663
   49DOPE   H5Y 6283   2.507   5.977   4.245  1.1228  0.3139 -2.7614
   49DOPE   C36 6284   2.515   5.772   4.314  0.3748 -0.0692  0.2530
   49DOPE   H6X 6285   2.621   5.753   4.340  0.8566  0.1200 -1.4144
   49DOPE   H6Y 6286   2.469   5.671   4.304  0.1408 -0.3331  3.1855
   49DOPE   C37 6287   2.448   5.814   4.447 -0.3123 -0.1827 -0.0509
   49DOPE   H7X 6288   2.476   5.919   4.471  1.1842 -0.9442  1.7882
   49DOPE   H7Y 6289   2.338   5.806   4.431  0.1127 -0.8159 -3.3325
   49DOPE   C38 6290   2.498   5.735   4.568 -0.0592  0.7888  0.0937
   49DOPE   H8X 6291   2.607   5.754   4.571  0.0828 -0.1331  1.4559
   49DOPE   H8Y 6292   2.473   5.628   4.553  0.9571  0.6038 -0.4210
   49DOPE   C39 6293   2.442   5.796   4.699  1.0249 -0.1430  0.4564
   49DOPE   H9X 6294   2.365   5.872   4.681  0.3699 -0.7120  0.8000
   49DOPE  C310 6295   2.491   5.788   4.827  0.0358 -0.5879  0.4165
   49DOPE  H10X 6296   2.461   5.854   4.909 -0.2398 -2.7303  2.1445
   49DOPE  C311 6297   2.621   5.716   4.855  0.3494 -0.7965  0.2932
   49DOPE  H11X 6298   2.657   5.658   4.767  0.7272 -1.8424  1.1103
   49DOPE  H11Y 6299   2.697   5.793   4.879  0.3740 -0.9311  0.6597
   49DOPE  C312 6300   2.622   5.611   4.975  0.7445  0.5232  0.2510
   49DOPE  H12X 6301   2.572   5.519   4.937  1.3330  0.3545 -0.1287
   49DOPE  H12Y 6302   2.571   5.645   5.067 -0.6614 -2.1370  0.5517
   49DOPE  C313 6303   2.771   5.574   5.007  1.0178 -0.4498 -0.0756
   49DOPE  H13X 6304   2.826   5.568   4.911  1.9564 -2.2265  0.5417
   49DOPE  H13Y 6305   2.807   5.655   5.073  0.3223 -0.3765  0.2273
   49DOPE  C314 6306   2.792   5.453   5.093  0.5304  0.3800 -0.4214
   49DOPE  H14X 6307   2.770   5.358   5.039 -0.3414 -0.6738  1.6719
   49DOPE  H14Y 6308   2.724   5.455   5.181 -0.5360 -1.1195 -1.1640
   49DOPE  C315 6309   2.933   5.440   5.142 -0.0898 -0.2783 -0.1973
   49DOPE  H15X 6310   2.936   5.520   5.219  0.3496  1.2478 -1.7341
   49DOPE  H15Y 6311   3.011   5.459   5.066 -0.0617 -0.2373 -0.1588
   49DOPE  C316 6312   2.962   5.296   5.192  0.5074  0.3669  0.4089
   49DOPE  H16X 6313   2.960   5.219   5.111 -2.1185  0.7453  0.0385
   49DOPE  H16Y 6314   2.882   5.264   5.262  0.8064 -1.2147  0.0780
   49DOPE  C317 6315   3.099   5.295   5.268 -0.0272 -0.4839 -0.3946
   49DOPE  H17X 6316   3.088   5.371   5.348 -0.6570 -2.1592  1.1827
   49DOPE  H17Y 6317   3.098   5.198   5.322 -0.0538  0.0444  0.5596
   49DOPE  C318 6318   3.230   5.323   5.201 -0.2419  0.0988  0.2468
   49DOPE  H18X 6319   3.273   5.242   5.139  0.1937 -0.3640  1.1395
   49DOPE  H18Y 6320   3.221   5.417   5.141 -0.2038 -1.3591 -2.1580
   49DOPE  H18Z 6321   3.305   5.347   5.279  0.8997  1.1447 -1.1235
   50DOPE     N 6322   6.889   6.556   3.090 -0.2020  0.0482  0.1947
   50DOPE   HN1 6323   6.941   6.604   3.015 -0.3727  2.0250  1.2868
   50DOPE   HN2 6324   6.787   6.546   3.069  0.1045 -2.0099 -0.5333
   50DOPE   HN3 6325   6.899   6.604   3.181  0.2615  1.3353 -0.5168
   50DOPE   C12 6326   6.936   6.411   3.110  0.4064 -0.3101 -0.0117
   50DOPE  H12A 6327   6.877   6.391   3.202 -2.0177  2.9966 -0.6552
   50DOPE  H12B 6328   7.044   6.407   3.137 -0.1184 -3.8384  2.2451
   50DOPE   C11 6329   6.900   6.321   2.991 -0.0360  0.0380 -0.1334
   50DOPE  H11A 6330   6.926   6.218   3.022 -2.3408 -0.3654  0.6418
   50DOPE  H11B 6331   6.960   6.355   2.904  0.0597 -0.1363 -0.1360
   50DOPE     P 6332   6.671   6.205   2.928  0.1153 -0.2038  0.0029
   50DOPE   O13 6333   6.722   6.146   2.803  0.1420 -0.2416  0.2952
   50DOPE   O14 6334   6.529   6.251   2.934  0.1675 -0.2666 -0.3048
   50DOPE   O11 6335   6.698   6.109   3.051 -0.4850 -0.1607 -0.2150
   50DOPE   O12 6336   6.766   6.326   2.964  0.2988  0.0346  0.4599
   50DOPE    C1 6337   6.658   6.130   3.188  0.6137  0.0001  0.8792
   50DOPE    HA 6338   6.557   6.086   3.186 -0.9371  3.2420  0.6686
   50DOPE    HB 6339   6.656   6.240   3.206 -0.5449  0.4052 -1.4163
   50DOPE    C2 6340   6.753   6.063   3.280  0.0694  0.3029 -0.1426
   50DOPE    HS 6341   6.853   6.078   3.235 -0.3767  1.2401 -0.8427
   50DOPE   O21 6342   6.718   5.923   3.286 -0.8324  0.0967 -0.2549
   50DOPE   C21 6343   6.807   5.833   3.292  0.1379  0.4466  0.4335
   50DOPE   O22 6344   6.924   5.850   3.272 -0.1689  0.1902 -0.1755
   50DOPE   C22 6345   6.742   5.695   3.319  0.8155  0.3264 -0.2232
   50DOPE   H2R 6346   6.755   5.626   3.233 -2.5551 -0.1113 -0.5282
   50DOPE   H2S 6347   6.634   5.711   3.343  0.6632 -0.8838 -0.0138
   50DOPE    C3 6348   6.752   6.129   3.420  0.1267 -0.4665 -0.5260
   50DOPE    HX 6349   6.643   6.114   3.442 -0.0118  0.3588 -0.6328
   50DOPE    HY 6350   6.770   6.238   3.410 -1.2543 -0.2645 -1.1735
   50DOPE   O31 6351   6.838   6.064   3.510  0.3874 -0.4779  0.3658
   50DOPE   C31 6352   6.968   6.087   3.506 -0.0311 -0.0268 -0.2226
   50DOPE   O32 6353   7.016   6.177   3.435 -0.4897  0.2381 -0.4795
   50DOPE   C32 6354   7.046   5.988   3.595 -0.0590  0.0350 -0.3157
   50DOPE   H2X 6355   6.993   5.975   3.691  0.3512 -1.4369 -0.2702
   50DOPE   H2Y 6356   7.053   5.892   3.539 -2.1446  0.4197 -1.3290
   50DOPE   C23 6357   6.816   5.637   3.439 -0.2741  0.8163 -0.4383
   50DOPE   H3R 6358   6.925   5.641   3.417 -0.6897  0.7773 -2.7847
   50DOPE   H3S 6359   6.799   5.527   3.440 -0.3483  0.7467 -2.9099
   50DOPE   C24 6360   6.760   5.697   3.571  0.0941 -0.4190 -0.1629
   50DOPE   H4R 6361   6.651   5.674   3.573  0.2466 -1.1313  1.4283
   50DOPE   H4S 6362   6.776   5.806   3.572 -0.7305 -0.2803  1.7673
   50DOPE   C25 6363   6.820   5.628   3.696 -0.5588  0.2528 -0.3711
   50DOPE   H5R 6364   6.930   5.620   3.682 -0.3852  0.7599  0.6575
   50DOPE   H5S 6365   6.789   5.521   3.694  1.3871 -0.3655  0.4173
   50DOPE   C26 6366   6.783   5.704   3.830  0.1326  0.0140 -0.7533
   50DOPE   H6R 6367   6.672   5.711   3.828 -0.0466 -1.6618  0.7350
   50DOPE   H6S 6368   6.816   5.810   3.826 -0.3059  0.2193  0.5529
   50DOPE   C27 6369   6.824   5.637   3.965  0.0615  0.4815 -0.5281
   50DOPE   H7R 6370   6.928   5.603   3.951  0.0035  0.0456  0.0555
   50DOPE   H7S 6371   6.760   5.548   3.982 -1.6448  1.5777 -0.9141
   50DOPE   C28 6372   6.810   5.737   4.077  0.4843  0.3463 -0.6860
   50DOPE   H8R 6373   6.870   5.822   4.037 -0.8864  1.3246 -0.7655
   50DOPE   H8S 6374   6.862   5.695   4.165 -0.3609 -0.3789 -0.5192
   50DOPE   C29 6375   6.669   5.777   4.106 -0.5132 -0.3422  0.1904
   50DOPE   H9R 6376   6.596   5.730   4.039 -0.5322  1.5629 -1.1974
   50DOPE  C210 6377   6.623   5.861   4.198 -0.5660 -0.1594  0.6316
   50DOPE  H10R 6378   6.515   5.882   4.202 -0.4296  0.6462  0.4012
   50DOPE  C211 6379   6.708   5.922   4.303  0.5321 -0.4721  0.5128
   50DOPE  H11R 6380   6.690   6.031   4.302  0.1457 -0.5168 -1.6228
   50DOPE  H11S 6381   6.815   5.905   4.276  0.8009 -0.7925  1.7154
   50DOPE  C212 6382   6.674   5.856   4.437 -0.0910  0.2591  0.3409
   50DOPE  H12R 6383   6.663   5.746   4.429  2.7482 -0.2203  1.5636
   50DOPE  H12S 6384   6.574   5.885   4.476 -0.2981  0.0052 -0.0045
   50DOPE  C213 6385   6.781   5.881   4.548 -0.2990 -0.3417 -0.0817
   50DOPE  H13R 6386   6.774   5.980   4.597 -0.4511 -0.4476  0.1180
   50DOPE  H13S 6387   6.882   5.879   4.503 -0.8745 -0.5224 -1.3988
   50DOPE  C214 6388   6.772   5.780   4.655 -0.2480 -0.1492 -0.4677
   50DOPE  H14R 6389   6.799   5.686   4.602 -1.2822 -0.6643 -0.1178
   50DOPE  H14S 6390   6.665   5.780   4.687 -0.7021  1.2724 -1.8581
   50DOPE  C215 6391   6.860   5.799   4.785  0.1563  0.3068 -0.2629
   50DOPE  H15R 6392   6.862   5.909   4.803 -0.1069  0.4674 -1.2090
   50DOPE  H15S 6393   6.966   5.769   4.773  0.9735  2.1446  1.6054
   50DOPE  C216 6394   6.792   5.741   4.915  0.3977  0.2948  0.6520
   50DOPE  H16R 6395   6.799   5.631   4.920  0.7757  0.3194  0.6292
   50DOPE  H16S 6396   6.684   5.768   4.909  0.4104  0.6648  1.8242
   50DOPE  C217 6397   6.847   5.809   5.035 -0.1483 -0.4894 -0.0414
   50DOPE  H17R 6398   6.781   5.787   5.122  0.3952  1.0140  0.7923
   50DOPE  H17S 6399   6.858   5.920   5.035  3.8546 -0.7036 -2.3127
   50DOPE  C218 6400   6.989   5.764   5.077  0.7009 -0.0546 -0.5740
   50DOPE  H18R 6401   6.998   5.756   5.188 -2.6898  2.4334  0.0462
   50DOPE  H18S 6402   7.052   5.848   5.039  1.7290 -0.6164 -0.1736
   50DOPE  H18T 6403   7.023   5.671   5.026 -1.8533 -0.4048 -1.7753
   50DOPE   C33 6404   7.187   6.034   3.622  0.5636 -0.1603  0.0123
   50DOPE   H3X 6405   7.191   6.145   3.637 -1.7466 -0.0321  0.0143
   50DOPE   H3Y 6406   7.247   6.004   3.534 -1.3555 -2.1443 -0.6887
   50DOPE   C34 6407   7.238   5.966   3.750 -0.1192 -0.0794 -0.0018
   50DOPE   H4X 6408   7.341   6.004   3.763 -1.0913  2.5228  0.7958
   50DOPE   H4Y 6409   7.174   5.992   3.837  0.8853  1.8321  0.2181
   50DOPE   C35 6410   7.253   5.816   3.742  0.3845 -0.1265 -0.1885
   50DOPE   H5X 6411   7.316   5.780   3.659  0.0375 -3.8787  1.0070
   50DOPE   H5Y 6412   7.157   5.777   3.704 -0.5818  0.0179  1.9555
   50DOPE   C36 6413   7.304   5.757   3.873 -0.1437 -1.5071 -0.0195
   50DOPE   H6X 6414   7.275   5.650   3.863  0.3088 -1.5200 -1.4632
   50DOPE   H6Y 6415   7.252   5.797   3.962 -0.3275 -0.9976 -0.3549
   50DOPE   C37 6416   7.458   5.785   3.896  0.5293 -0.3300  0.0532
   50DOPE   H7X 6417   7.490   5.821   3.796 -1.5685  1.8230  0.0645
   50DOPE   H7Y 6418   7.461   5.886   3.942 -2.5097  0.6522 -1.6205
   50DOPE   C38 6419   7.516   5.657   3.954 -0.5336 -0.6331  0.2264
   50DOPE   H8X 6420   7.481   5.562   3.909  0.4782 -0.1967 -1.5657
   50DOPE   H8Y 6421   7.483   5.649   4.060 -1.8555  0.9211 -0.0178
   50DOPE   C39 6422   7.666   5.666   3.949 -0.0654  0.5072  0.0356
   50DOPE   H9X 6423   7.706   5.768   3.960  1.3219  0.2903 -2.3074
   50DOPE  C310 6424   7.751   5.572   3.900  0.4346  0.1006  0.0316
   50DOPE  H10X 6425   7.860   5.590   3.897  0.5370 -0.6339 -2.1435
   50DOPE  C311 6426   7.713   5.440   3.849 -0.2050  0.7587  0.8226
   50DOPE  H11X 6427   7.625   5.449   3.782  1.4530 -1.0919 -1.7554
   50DOPE  H11Y 6428   7.792   5.408   3.778 -0.0971  3.3101 -0.3188
   50DOPE  C312 6429   7.693   5.321   3.955  0.0634 -0.3577 -0.1454
   50DOPE  H12X 6430   7.657   5.226   3.910  0.0872 -0.9246  1.0250
   50DOPE  H12Y 6431   7.629   5.359   4.037  1.5078 -0.2022  0.9474
   50DOPE  C313 6432   7.834   5.280   4.014 -0.5402 -0.1459  0.5531
   50DOPE  H13X 6433   7.810   5.175   4.041 -1.2961 -0.1974 -0.2695
   50DOPE  H13Y 6434   7.916   5.281   3.940 -2.0840  0.1022 -1.2327
   50DOPE  C314 6435   7.886   5.371   4.129 -0.3251 -0.2542  0.1191
   50DOPE  H14X 6436   7.816   5.358   4.215  0.0882 -0.1505  0.4708
   50DOPE  H14Y 6437   7.880   5.475   4.092  1.5370 -1.0113 -2.5725
   50DOPE  C315 6438   8.025   5.335   4.185  0.0627 -0.1871 -0.1181
   50DOPE  H15X 6439   8.110   5.402   4.158  0.6158 -0.7351  0.2260
   50DOPE  H15Y 6440   8.053   5.232   4.156  1.8883 -0.2937  1.7756
   50DOPE  C316 6441   8.033   5.333   4.339 -0.0882 -0.1764 -0.0450
   50DOPE  H16X 6442   7.940   5.282   4.373 -0.7775  0.8155 -0.3805
   50DOPE  H16Y 6443   8.027   5.437   4.380  0.8592 -0.7423  1.6376
   50DOPE  C317 6444   8.162   5.276   4.393  0.6541 -0.0646 -0.1918
   50DOPE  H17X 6445   8.144   5.252   4.500 -0.6307 -1.5058 -0.6964
   50DOPE  H17Y 6446   8.182   5.178   4.344  3.4595 -0.6214  1.8274
   50DOPE  C318 6447   8.287   5.371   4.371  0.4216 -0.4212 -0.4151
   50DOPE  H18X 6448   8.258   5.477   4.355  1.6531 -0.2344 -1.6007
   50DOPE  H18Y 6449   8.356   5.364   4.458 -0.0145 -0.2292 -0.0472
   50DOPE  H18Z 6450   8.343   5.340   4.280 -1.8307 -1.2619 -1.6055
   51DOPE     N 6451   2.062   6.311   3.102 -0.2626 -0.1223  0.0196
   51DOPE   HN1 6452   2.143   6.375   3.106 -1.0690  0.8679  0.9666
   51DOPE   HN2 6453   1.981   6.351   3.153  0.5057  0.5020  0.7840
   51DOPE   HN3 6454   2.092   6.224   3.150  1.1080  0.7533  0.8065
   51DOPE   C12 6455   2.025   6.264   2.964  0.0781  0.6205  0.0697
   51DOPE  H12A 6456   2.113   6.217   2.914  0.1103  0.1783  0.5328
   51DOPE  H12B 6457   1.973   6.347   2.911  1.3268  1.0732 -0.4927
   51DOPE   C11 6458   1.924   6.151   2.978  0.3399  0.3780  0.1358
   51DOPE  H11A 6459   1.971   6.078   3.047  2.8121 -0.3139 -2.1108
   51DOPE  H11B 6460   1.907   6.103   2.880 -1.6520  0.1885  0.5383
   51DOPE     P 6461   1.678   6.106   3.044 -0.1222  0.3817  0.2912
   51DOPE   O13 6462   1.663   6.038   2.908 -0.0235 -0.4834 -0.5023
   51DOPE   O14 6463   1.572   6.193   3.103 -0.2619  0.5085  0.1084
   51DOPE   O11 6464   1.727   6.004   3.149  0.5515  0.3463  0.0033
   51DOPE   O12 6465   1.799   6.201   3.031 -0.0492 -0.3352 -0.1829
   51DOPE    C1 6466   1.764   6.045   3.279 -0.3427 -0.0490  0.0401
   51DOPE    HA 6467   1.801   6.149   3.284 -1.4139  0.3199  0.7423
   51DOPE    HB 6468   1.840   5.977   3.323 -0.8090  0.9769  2.5924
   51DOPE    C2 6469   1.640   6.032   3.377 -0.0966 -0.4067  0.1175
   51DOPE    HS 6470   1.581   6.124   3.356  1.2827  0.2788 -0.9513
   51DOPE   O21 6471   1.674   6.001   3.511  0.4437  0.7078 -0.0505
   51DOPE   C21 6472   1.766   6.078   3.568 -0.2184  0.3882 -0.7516
   51DOPE   O22 6473   1.818   6.173   3.514 -0.1745 -0.1078 -0.5994
   51DOPE   C22 6474   1.803   6.016   3.703 -0.5402 -0.4127  0.4842
   51DOPE   H2R 6475   1.869   6.083   3.763  0.8130 -2.7642  1.7938
   51DOPE   H2S 6476   1.865   5.927   3.680  0.4122  0.2984  0.2124
   51DOPE    C3 6477   1.553   5.910   3.333 -0.9564  0.3742  0.0061
   51DOPE    HX 6478   1.624   5.826   3.318 -1.2360  0.0054  0.6963
   51DOPE    HY 6479   1.509   5.939   3.235  0.0926  3.1763  0.2577
   51DOPE   O31 6480   1.448   5.878   3.429 -0.5311 -0.6122  0.0452
   51DOPE   C31 6481   1.335   5.951   3.416 -0.1401 -0.4459  0.1823
   51DOPE   O32 6482   1.309   6.044   3.345  0.2556 -0.1834 -0.3681
   51DOPE   C32 6483   1.244   5.913   3.536 -0.6652  0.2218 -0.6945
   51DOPE   H2X 6484   1.139   5.939   3.515 -0.8358 -0.1562 -0.3373
   51DOPE   H2Y 6485   1.239   5.802   3.546 -2.2392  0.4526  2.3109
   51DOPE   C23 6486   1.682   5.968   3.798 -0.3899  0.5222 -0.4119
   51DOPE   H3R 6487   1.608   5.912   3.737 -1.0094  0.3636  0.4629
   51DOPE   H3S 6488   1.629   6.059   3.834 -2.3233 -0.3638 -0.8938
   51DOPE   C24 6489   1.722   5.874   3.917 -0.3621 -0.7002 -0.4106
   51DOPE   H4R 6490   1.824   5.904   3.950 -1.4507  2.5883  0.3823
   51DOPE   H4S 6491   1.725   5.770   3.879 -1.5121 -0.4211 -1.3059
   51DOPE   C25 6492   1.620   5.890   4.034 -0.2607 -0.4240  0.4203
   51DOPE   H5R 6493   1.612   5.998   4.059  0.7579 -0.0399 -0.8427
   51DOPE   H5S 6494   1.665   5.851   4.128 -0.3944  0.9513  1.0893
   51DOPE   C26 6495   1.495   5.822   3.990 -0.0997  0.2048 -0.1783
   51DOPE   H6R 6496   1.530   5.718   3.978 -0.6659 -0.0996  0.7700
   51DOPE   H6S 6497   1.459   5.866   3.894  1.6070  3.0152  0.3612
   51DOPE   C27 6498   1.388   5.820   4.095 -0.3944  0.0342  0.1937
   51DOPE   H7R 6499   1.429   5.795   4.195  3.8585  1.0178 -1.1192
   51DOPE   H7S 6500   1.311   5.744   4.070 -1.1664  0.9971 -0.4235
   51DOPE   C28 6501   1.315   5.959   4.094 -0.6563  0.3556 -0.3718
   51DOPE   H8R 6502   1.290   5.980   3.987 -1.0096 -0.0647 -0.3757
   51DOPE   H8S 6503   1.379   6.048   4.111  0.2900 -0.2052 -0.9454
   51DOPE   C29 6504   1.194   5.974   4.180 -0.7958  0.0015  0.4759
   51DOPE   H9R 6505   1.222   5.986   4.285 -0.6130 -0.8843  0.5375
   51DOPE  C210 6506   1.064   5.981   4.144 -0.0040 -0.0675  0.2868
   51DOPE  H10R 6507   0.986   6.011   4.215 -2.2379  0.0294 -2.0733
   51DOPE  C211 6508   1.009   5.966   4.001 -0.0801  0.3070  0.3901
   51DOPE  H11R 6509   0.952   5.871   3.989  1.7718 -0.8008  0.0841
   51DOPE  H11S 6510   1.079   5.979   3.915  0.7012 -1.8173  0.6495
   51DOPE  C212 6511   0.904   6.078   3.990 -0.7764  0.6068  0.3627
   51DOPE  H12R 6512   0.814   6.065   4.054 -1.1791 -0.4574 -0.3961
   51DOPE  H12S 6513   0.849   6.082   3.893 -1.8211  1.7946  0.9679
   51DOPE  C213 6514   0.967   6.219   4.018 -0.3059  0.3227  0.3892
   51DOPE  H13R 6515   0.944   6.283   3.931  2.6827 -0.8109 -1.3714
   51DOPE  H13S 6516   1.078   6.210   4.018 -0.3355 -0.0995  0.6794
   51DOPE  C214 6517   0.912   6.277   4.143  0.4406 -0.3344 -0.1887
   51DOPE  H14R 6518   0.938   6.216   4.232 -0.4387  1.3371  1.2763
   51DOPE  H14S 6519   0.801   6.287   4.135  0.4826  1.9086  1.1618
   51DOPE  C215 6520   0.982   6.410   4.167 -0.0473 -0.8602  0.1640
   51DOPE  H15R 6521   0.937   6.463   4.081 -2.1481 -1.0178  1.0824
   51DOPE  H15S 6522   1.089   6.383   4.161  0.2291  0.5077 -4.2915
   51DOPE  C216 6523   0.947   6.473   4.300 -0.0167 -0.3260 -0.0511
   51DOPE  H16R 6524   0.984   6.411   4.385 -1.9261 -1.1845  0.2179
   51DOPE  H16S 6525   0.837   6.484   4.310 -0.0545 -0.1311 -0.6824
   51DOPE  C217 6526   1.006   6.618   4.314  0.4942  0.3242 -0.4884
   51DOPE  H17R 6527   0.927   6.679   4.264  0.4853  0.3415 -0.4531
   51DOPE  H17S 6528   1.104   6.621   4.263 -0.3135  0.4419 -2.0946
   51DOPE  C218 6529   1.037   6.661   4.459 -0.3080 -0.4324  0.6317
   51DOPE  H18R 6530   1.077   6.573   4.513  0.0645  0.8272  2.4988
   51DOPE  H18S 6531   0.938   6.683   4.505  0.0768  1.3923  0.6539
   51DOPE  H18T 6532   1.112   6.742   4.454 -1.3072  0.4762 -0.2692
   51DOPE   C33 6533   1.290   5.992   3.659 -0.2774  0.0934 -1.0935
   51DOPE   H3X 6534   1.401   5.991   3.657 -0.2596 -0.3619 -0.3160
   51DOPE   H3Y 6535   1.261   5.949   3.757 -0.3971  2.5081  0.0068
   51DOPE   C34 6536   1.247   6.137   3.664  0.3235 -0.8482  0.7816
   51DOPE   H4X 6537   1.258   6.195   3.570  0.9448 -0.5922  1.0061
   51DOPE   H4Y 6538   1.142   6.149   3.697  1.3811  4.7237  3.2037
   51DOPE   C35 6539   1.330   6.223   3.761  0.7598 -0.0265  0.2986
   51DOPE   H5X 6540   1.432   6.224   3.718 -0.0003 -0.3456 -1.6294
   51DOPE   H5Y 6541   1.336   6.176   3.862  0.6407  1.2961  0.9460
   51DOPE   C36 6542   1.291   6.372   3.767  0.4680 -0.4479 -0.1062
   51DOPE   H6X 6543   1.350   6.418   3.850  1.2002  0.8635 -1.3117
   51DOPE   H6Y 6544   1.182   6.382   3.788  1.0250  2.0844  2.1869
   51DOPE   C37 6545   1.310   6.463   3.635  0.0726  0.3736 -0.0390
   51DOPE   H7X 6546   1.404   6.430   3.587 -0.8928 -3.1819  0.1665
   51DOPE   H7Y 6547   1.219   6.437   3.577 -1.4308  3.3943  0.7393
   51DOPE   C38 6548   1.304   6.605   3.683  0.6719 -0.4743 -0.6189
   51DOPE   H8X 6549   1.351   6.664   3.602  0.3003 -0.0789 -0.5485
   51DOPE   H8Y 6550   1.380   6.618   3.764 -0.9582  2.9592  0.5692
   51DOPE   C39 6551   1.166   6.658   3.719 -0.0454  0.2768 -0.3839
   51DOPE   H9X 6552   1.095   6.655   3.636 -0.9226  0.6620  0.3384
   51DOPE  C310 6553   1.133   6.714   3.840  0.5132  0.5771 -0.2334
   51DOPE  H10X 6554   1.025   6.723   3.860  0.2049 -2.7365  0.0671
   51DOPE  C311 6555   1.220   6.741   3.959  0.3826  0.2140  0.0291
   51DOPE  H11X 6556   1.203   6.670   4.043  0.3552  2.7231  2.2590
   51DOPE  H11Y 6557   1.324   6.724   3.924  1.2510  0.7233  2.2485
   51DOPE  C312 6558   1.190   6.883   4.011 -0.1840 -0.1492 -0.3194
   51DOPE  H12X 6559   1.081   6.891   4.028 -0.0474 -2.6237  2.6403
   51DOPE  H12Y 6560   1.223   6.964   3.943  1.0915 -0.9285 -0.6676
   51DOPE  C313 6561   1.247   6.894   4.153 -0.5291  0.0954  0.3728
   51DOPE  H13X 6562   1.181   6.839   4.223 -2.1271  0.9411 -0.4155
   51DOPE  H13Y 6563   1.351   6.855   4.163 -0.4547 -0.0215 -0.7291
   51DOPE  C314 6564   1.239   7.040   4.203  0.0614 -1.2024 -0.4299
   51DOPE  H14X 6565   1.135   7.073   4.222  0.2725  0.3951 -1.7545
   51DOPE  H14Y 6566   1.272   7.110   4.123 -2.0372 -1.2968 -1.4279
   51DOPE  C315 6567   1.319   7.079   4.327  0.7761 -0.4526 -0.2893
   51DOPE  H15X 6568   1.299   7.187   4.341  0.1239 -0.3120 -2.1068
   51DOPE  H15Y 6569   1.428   7.070   4.304  1.0006 -0.3495  0.6603
   51DOPE  C316 6570   1.277   6.990   4.444  0.4703 -0.4016  0.7447
   51DOPE  H16X 6571   1.351   6.994   4.526 -0.0635 -0.3981  1.2359
   51DOPE  H16Y 6572   1.280   6.882   4.418 -1.2744 -0.3471  0.1372
   51DOPE  C317 6573   1.136   7.029   4.501 -0.4702  0.4735 -0.3399
   51DOPE  H17X 6574   1.137   7.140   4.497  1.2248  0.6585  2.4578
   51DOPE  H17Y 6575   1.057   6.998   4.429  1.8103 -0.2875 -2.6766
   51DOPE  C318 6576   1.109   6.959   4.636 -0.0801 -0.4056 -0.2218
   51DOPE  H18X 6577   0.999   6.952   4.647 -0.0603  0.3169  0.5257
   51DOPE  H18Y 6578   1.151   6.857   4.650 -0.1883 -0.1054  3.1150
   51DOPE  H18Z 6579   1.150   7.018   4.721  1.4103  1.6036 -2.1890
   52DOPE     N 6580   0.659   5.257   3.034  0.5748 -0.4166 -0.3306
   52DOPE   HN1 6581   0.614   5.321   2.966 -0.2537  0.8189  1.3173
   52DOPE   HN2 6582   0.576   5.208   3.073 -0.1973  1.6928  0.8554
   52DOPE   HN3 6583   0.706   5.310   3.110  1.3252 -2.3858  0.6532
   52DOPE   C12 6584   0.751   5.157   2.965 -0.2757 -0.1440  0.2249
   52DOPE  H12A 6585   0.817   5.220   2.902 -1.0620  1.2438  0.7385
   52DOPE  H12B 6586   0.692   5.100   2.890  0.7905 -2.4813  1.0636
   52DOPE   C11 6587   0.824   5.047   3.052 -0.2179  0.2517  0.2486
   52DOPE  H11A 6588   0.886   4.973   2.996  0.1056  1.7527 -1.4822
   52DOPE  H11B 6589   0.745   4.995   3.111 -2.1785  1.4140 -1.2289
   52DOPE     P 6590   1.048   5.169   3.116 -0.1716  0.3824 -0.4175
   52DOPE   O13 6591   1.030   5.285   3.026  0.0281  0.1532 -0.0972
   52DOPE   O14 6592   1.133   5.062   3.062  0.4592  0.5786 -0.1083
   52DOPE   O11 6593   1.113   5.211   3.252  0.0132 -0.1410 -0.5262
   52DOPE   O12 6594   0.905   5.112   3.147  0.0310 -0.7771 -0.3960
   52DOPE    C1 6595   1.087   5.124   3.366 -0.1204  0.1082  0.1863
   52DOPE    HA 6596   1.179   5.079   3.409 -1.2495  0.3262  3.1220
   52DOPE    HB 6597   1.025   5.038   3.336 -2.7877  2.6900 -2.3033
   52DOPE    C2 6598   1.008   5.199   3.475  0.7520  0.0371  0.5169
   52DOPE    HS 6599   1.017   5.133   3.565 -1.0741 -2.7852 -1.2340
   52DOPE   O21 6600   0.873   5.199   3.441  0.4181  0.1887  0.2056
   52DOPE   C21 6601   0.791   5.092   3.464 -0.8060 -0.4942 -0.3653
   52DOPE   O22 6602   0.827   4.992   3.521 -0.2628 -0.1679 -0.8479
   52DOPE   C22 6603   0.648   5.113   3.410  0.0833 -0.0641  0.0555
   52DOPE   H2R 6604   0.609   5.013   3.383  0.2190 -0.2190  0.4300
   52DOPE   H2S 6605   0.647   5.172   3.316 -0.7867 -0.0552  0.0661
   52DOPE    C3 6606   1.058   5.345   3.507 -0.3372 -0.1596 -0.3724
   52DOPE    HX 6607   1.059   5.408   3.415  2.5643  0.2954 -0.1541
   52DOPE    HY 6608   1.164   5.323   3.534  0.4598  3.2153 -0.3056
   52DOPE   O31 6609   0.989   5.400   3.624  0.0271 -0.4719  0.2179
   52DOPE   C31 6610   0.924   5.513   3.603 -0.4645 -0.2925  0.1116
   52DOPE   O32 6611   0.904   5.563   3.494 -0.0203 -0.0821  0.4471
   52DOPE   C32 6612   0.887   5.568   3.742 -0.3404 -0.1483  0.3430
   52DOPE   H2X 6613   0.983   5.586   3.795  1.0484 -3.0533 -0.9457
   52DOPE   H2Y 6614   0.833   5.663   3.724 -0.6628 -0.5116 -0.6421
   52DOPE   C23 6615   0.549   5.183   3.512  0.4402 -0.3154 -0.2623
   52DOPE   H3R 6616   0.481   5.252   3.460 -1.4069  0.5294  2.9690
   52DOPE   H3S 6617   0.603   5.253   3.579  3.2621 -1.7722 -0.8433
   52DOPE   C24 6618   0.465   5.080   3.576 -0.2236  0.0410  0.4179
   52DOPE   H4R 6619   0.515   5.028   3.660  0.9613 -0.6831 -0.6986
   52DOPE   H4S 6620   0.438   5.001   3.502 -3.1250  1.3543 -0.0810
   52DOPE   C25 6621   0.327   5.136   3.617 -0.4423  0.6531  0.0416
   52DOPE   H5R 6622   0.271   5.186   3.536 -0.2931  1.3972  0.3890
   52DOPE   H5S 6623   0.355   5.211   3.695 -0.2418  2.2074 -1.4671
   52DOPE   C26 6624   0.231   5.034   3.672  0.4534  0.1689  0.1046
   52DOPE   H6R 6625   0.144   5.091   3.712 -0.0964 -0.9393  0.5203
   52DOPE   H6S 6626   0.277   4.988   3.762  0.4004  1.3773  0.7815
   52DOPE   C27 6627   0.191   4.927   3.568  0.3024 -0.1402 -0.1641
   52DOPE   H7R 6628   0.282   4.869   3.542  1.2870  1.8618 -1.3420
   52DOPE   H7S 6629   0.150   4.984   3.482  1.0531  1.8775  0.7562
   52DOPE   C28 6630   0.083   4.831   3.621 -0.4441  0.4603  0.1575
   52DOPE   H8R 6631   0.064   4.766   3.532  0.2230 -2.6062  2.1233
   52DOPE   H8S 6632  -0.013   4.877   3.653 -0.2620  2.1621 -1.5632
   52DOPE   C29 6633   0.138   4.740   3.731 -0.2578  0.1293  0.1275
   52DOPE   H9R 6634   0.214   4.674   3.688  0.6637  1.5824 -0.5772
   52DOPE  C210 6635   0.116   4.755   3.862 -0.5080  0.3586 -0.1443
   52DOPE  H10R 6636   0.167   4.675   3.919 -0.4525 -0.8093 -1.7521
   52DOPE  C211 6637   0.028   4.861   3.924 -0.5615  0.9111 -0.6323
   52DOPE  H11R 6638  -0.055   4.811   3.980  0.8285  1.5744  2.1846
   52DOPE  H11S 6639  -0.022   4.932   3.854 -0.0188  1.3201 -0.6056
   52DOPE  C212 6640   0.107   4.932   4.030 -0.3750 -0.3875 -0.4560
   52DOPE  H12R 6641   0.192   4.982   3.979 -1.9587 -0.0818 -2.9834
   52DOPE  H12S 6642   0.158   4.861   4.099 -1.1021  0.6241  1.1913
   52DOPE  C213 6643   0.027   5.029   4.121 -0.0220  0.3260  0.6868
   52DOPE  H13R 6644  -0.026   5.091   4.045 -1.5335 -1.6334  0.0574
   52DOPE  H13S 6645   0.101   5.083   4.184 -1.7425  2.3237  1.0756
   52DOPE  C214 6646  -0.075   4.951   4.207  0.4720 -0.3837 -0.1934
   52DOPE  H14R 6647  -0.028   4.856   4.240 -0.4973 -0.2880  1.5866
   52DOPE  H14S 6648  -0.162   4.928   4.142 -0.2282  0.4727  0.4187
   52DOPE  C215 6649  -0.120   5.037   4.326  0.3399 -0.2535  0.4236
   52DOPE  H15R 6650  -0.155   5.131   4.277  1.9358  1.1092  1.7926
   52DOPE  H15S 6651  -0.029   5.062   4.385  2.2865  0.3748 -2.5925
   52DOPE  C216 6652  -0.239   4.985   4.410  0.3511 -0.1544  0.2683
   52DOPE  H16R 6653  -0.327   4.959   4.348 -2.6786  1.6210  3.4696
   52DOPE  H16S 6654  -0.277   5.064   4.479  1.4325  0.7161 -0.0993
   52DOPE  C217 6655  -0.203   4.872   4.504 -0.0816  0.2211  0.3625
   52DOPE  H17R 6656  -0.188   4.917   4.605 -0.9435  1.5400 -0.0805
   52DOPE  H17S 6657  -0.105   4.821   4.488  1.0117  2.2008  0.4089
   52DOPE  C218 6658  -0.321   4.776   4.536  0.5031 -0.2345 -0.0533
   52DOPE  H18R 6659  -0.278   4.711   4.615  1.2219  0.0367 -0.2055
   52DOPE  H18S 6660  -0.415   4.824   4.571 -0.5017 -1.8614 -0.4312
   52DOPE  H18T 6661  -0.339   4.705   4.452  0.9545 -0.0279 -0.3331
   52DOPE   C33 6662   0.799   5.462   3.821  0.2635 -0.1419 -0.3660
   52DOPE   H3X 6663   0.848   5.364   3.839  1.0218  0.3683  0.4937
   52DOPE   H3Y 6664   0.711   5.452   3.755  1.2700  0.7280 -1.9001
   52DOPE   C34 6665   0.761   5.520   3.955 -0.0611  0.2303  0.0224
   52DOPE   H4X 6666   0.690   5.444   3.996  0.7503 -1.8006 -2.1136
   52DOPE   H4Y 6667   0.837   5.538   4.034  0.1790  0.8358 -0.3427
   52DOPE   C35 6668   0.678   5.654   3.947 -0.2312  0.3199 -0.2398
   52DOPE   H5X 6669   0.602   5.655   3.866 -1.4175  2.8572  0.7892
   52DOPE   H5Y 6670   0.747   5.737   3.919  2.4560 -1.7903 -0.3433
   52DOPE   C36 6671   0.615   5.700   4.084 -0.4604 -1.0696 -0.1667
   52DOPE   H6X 6672   0.534   5.628   4.107 -0.4131 -0.9903  0.2679
   52DOPE   H6Y 6673   0.554   5.790   4.061 -0.7359 -0.2091  3.3078
   52DOPE   C37 6674   0.709   5.730   4.204 -0.4942  0.2488  0.2788
   52DOPE   H7X 6675   0.771   5.640   4.223 -1.1502  0.1273  1.9916
   52DOPE   H7Y 6676   0.778   5.812   4.175 -1.4585  1.1481  0.4711
   52DOPE   C38 6677   0.635   5.749   4.336  0.9882  0.3172 -0.1018
   52DOPE   H8X 6678   0.708   5.718   4.413  1.4249  0.4794 -0.4499
   52DOPE   H8Y 6679   0.552   5.675   4.342  0.5076  0.8380 -0.2438
   52DOPE   C39 6680   0.588   5.893   4.340  0.6533  0.8275 -0.6568
   52DOPE   H9X 6681   0.496   5.900   4.281  1.5511 -2.3813 -2.6869
   52DOPE  C310 6682   0.648   5.997   4.410 -0.4317  0.7554 -0.5481
   52DOPE  H10X 6683   0.602   6.097   4.412 -1.2324  0.3874  0.5717
   52DOPE  C311 6684   0.769   5.979   4.498  0.0179  0.1230  0.2778
   52DOPE  H11X 6685   0.836   5.904   4.452 -0.1025  0.3261 -0.2337
   52DOPE  H11Y 6686   0.821   6.077   4.487 -3.0822  1.6997 -1.9320
   52DOPE  C312 6687   0.744   5.942   4.648  0.0641 -0.5787  0.0104
   52DOPE  H12X 6688   0.722   5.835   4.667  1.4325 -0.2628  4.5240
   52DOPE  H12Y 6689   0.663   6.005   4.691  1.0722  1.3150 -0.7270
   52DOPE  C313 6690   0.876   5.959   4.726  0.1597 -0.5443 -0.3562
   52DOPE  H13X 6691   0.884   5.909   4.825 -0.2907 -1.3080 -0.6990
   52DOPE  H13Y 6692   0.956   5.910   4.667 -2.5848 -1.1189 -3.9477
   52DOPE  C314 6693   0.920   6.108   4.737  0.5211  0.2818 -0.3194
   52DOPE  H14X 6694   0.937   6.154   4.637  2.2309 -3.7902 -2.1084
   52DOPE  H14Y 6695   1.019   6.112   4.787  0.2125  1.0256  0.2604
   52DOPE  C315 6696   0.826   6.201   4.815 -0.2740  0.0629 -1.0366
   52DOPE  H15X 6697   0.809   6.169   4.920  0.7198  0.1440 -0.8438
   52DOPE  H15Y 6698   0.725   6.190   4.771 -0.4812 -1.5844 -0.2234
   52DOPE  C316 6699   0.872   6.350   4.820 -0.0030 -0.1863 -0.4984
   52DOPE  H16X 6700   0.906   6.381   4.719  0.4588 -1.5410 -0.7657
   52DOPE  H16Y 6701   0.957   6.366   4.890  2.1812 -0.7304 -2.8807
   52DOPE  C317 6702   0.764   6.446   4.866 -0.3585  0.1706 -0.8989
   52DOPE  H17X 6703   0.807   6.548   4.864  1.9733 -0.7087  0.6545
   52DOPE  H17Y 6704   0.676   6.444   4.798 -0.5410 -1.5564 -0.6612
   52DOPE  C318 6705   0.722   6.415   5.014 -0.4602 -0.3381  0.1897
   52DOPE  H18X 6706   0.648   6.490   5.051 -0.2088  1.8448 -3.2598
   52DOPE  H18Y 6707   0.670   6.317   5.017  0.8760 -1.0696  0.1485
   52DOPE  H18Z 6708   0.818   6.424   5.070  0.1121 -1.0209 -0.6511
   53DOPE     N 6709   4.825   0.396   3.005  0.7167 -0.3080 -0.0027
   53DOPE   HN1 6710   4.758   0.474   3.018  0.5397 -0.0668 -2.0150
   53DOPE   HN2 6711   4.915   0.441   2.981  0.5099  0.0449 -0.1286
   53DOPE   HN3 6712   4.780   0.349   2.923  0.9761 -0.1019 -0.2621
   53DOPE   C12 6713   4.845   0.308   3.126  0.3076  0.5907  0.9936
   53DOPE  H12A 6714   4.746   0.261   3.139  0.4461 -1.1654 -2.9308
   53DOPE  H12B 6715   4.867   0.371   3.215 -1.4056  0.5013  1.5146
   53DOPE   C11 6716   4.958   0.206   3.111 -0.3717 -0.1503 -0.5078
   53DOPE  H11A 6717   4.927   0.133   3.033  0.0630  1.0297 -1.8229
   53DOPE  H11B 6718   4.981   0.161   3.210  4.0108  0.6710 -0.9333
   53DOPE     P 6719   5.217   0.223   3.039 -0.0792  0.1201  0.1488
   53DOPE   O13 6720   5.309   0.337   3.054 -0.3483 -0.1415 -0.2323
   53DOPE   O14 6721   5.206   0.170   2.901 -0.7153  0.7136 -0.6621
   53DOPE   O11 6722   5.254   0.115   3.152  0.1901  0.6167 -0.0669
   53DOPE   O12 6723   5.075   0.281   3.069  0.9346 -0.5757 -0.1030
   53DOPE    C1 6724   5.218  -0.018   3.146 -0.2077  0.7464 -0.3446
   53DOPE    HA 6725   5.300  -0.085   3.112 -1.6434  0.3974 -3.3965
   53DOPE    HB 6726   5.131  -0.033   3.078  0.4163 -0.1256 -0.9734
   53DOPE    C2 6727   5.156  -0.068   3.287 -0.2089  0.1278 -0.1828
   53DOPE    HS 6728   5.053  -0.030   3.297 -1.0916 -2.3925  1.2168
   53DOPE   O21 6729   5.260  -0.043   3.391 -0.2705  0.1976  0.0288
   53DOPE   C21 6730   5.211   0.015   3.502 -0.3133  0.4555 -0.8445
   53DOPE   O22 6731   5.100   0.053   3.515 -0.0463 -0.2727  0.3124
   53DOPE   C22 6732   5.324   0.032   3.602  0.9140 -0.2370  0.0711
   53DOPE   H2R 6733   5.290   0.121   3.660 -1.7017 -0.5809 -0.7994
   53DOPE   H2S 6734   5.413   0.072   3.549  2.5669 -2.3983  1.0822
   53DOPE    C3 6735   5.137  -0.215   3.280 -0.3259 -0.0960  0.4103
   53DOPE    HX 6736   5.240  -0.255   3.274 -0.0149  0.5854  0.9121
   53DOPE    HY 6737   5.085  -0.250   3.189 -2.6778  5.1462 -0.6674
   53DOPE   O31 6738   5.081  -0.269   3.398 -0.5226  0.2376 -0.2074
   53DOPE   C31 6739   4.962  -0.329   3.399 -0.6543  0.3319  0.5615
   53DOPE   O32 6740   4.880  -0.328   3.311  0.1032  0.1504 -0.0601
   53DOPE   C32 6741   4.958  -0.414   3.530 -0.3345 -0.1193  0.2852
   53DOPE   H2X 6742   4.994  -0.516   3.505 -0.6373  0.1862 -1.4953
   53DOPE   H2Y 6743   5.017  -0.353   3.602  1.3907  3.0813 -3.4263
   53DOPE   C23 6744   5.354  -0.083   3.703 -0.1886  1.3739  0.3603
   53DOPE   H3R 6745   5.454  -0.052   3.741  0.0416  1.3156 -0.1935
   53DOPE   H3S 6746   5.386  -0.172   3.645  0.8670  0.9010  1.6113
   53DOPE   C24 6747   5.259  -0.115   3.818 -0.1249 -0.0870  0.8118
   53DOPE   H4R 6748   5.313  -0.190   3.879  1.6434 -0.8514 -1.5539
   53DOPE   H4S 6749   5.163  -0.160   3.785 -0.7512  0.5244  1.7393
   53DOPE   C25 6750   5.234   0.009   3.905  0.0661 -0.7104 -0.1146
   53DOPE   H5R 6751   5.184   0.086   3.842 -0.7646  0.9448  2.4112
   53DOPE   H5S 6752   5.332   0.045   3.944 -0.4444 -0.6810  1.2056
   53DOPE   C26 6753   5.135  -0.017   4.014 -0.0063  0.4055 -0.3885
   53DOPE   H6R 6754   5.183  -0.078   4.094  1.5342  0.6559 -1.0837
   53DOPE   H6S 6755   5.051  -0.080   3.976  0.4716 -1.6554  1.7377
   53DOPE   C27 6756   5.072   0.114   4.070 -0.0477  0.2555  0.1539
   53DOPE   H7R 6757   4.980   0.091   4.128 -0.2043 -0.0238 -0.2007
   53DOPE   H7S 6758   5.044   0.172   3.980  1.1927 -1.9446 -1.7562
   53DOPE   C28 6759   5.176   0.188   4.156  0.2484 -0.2123  0.1494
   53DOPE   H8R 6760   5.129   0.284   4.188  0.1939 -0.2077  0.0552
   53DOPE   H8S 6761   5.265   0.219   4.097  3.3973  0.3382  4.6431
   53DOPE   C29 6762   5.216   0.107   4.279  0.2041  0.2712  0.3817
   53DOPE   H9R 6763   5.238   0.000   4.265  0.1591  0.2404  0.5400
   53DOPE  C210 6764   5.232   0.153   4.408  0.5946  1.4003 -0.4121
   53DOPE  H10R 6765   5.252   0.082   4.489  1.9015  0.8925 -1.1369
   53DOPE  C211 6766   5.209   0.291   4.458 -0.0228  0.1166  0.1461
   53DOPE  H11R 6767   5.186   0.363   4.377 -0.8486 -0.9519 -0.6111
   53DOPE  H11S 6768   5.300   0.330   4.507  0.1074 -0.5731  0.4754
   53DOPE  C212 6769   5.090   0.313   4.548  0.4174  0.0950  0.3934
   53DOPE  H12R 6770   5.100   0.415   4.591 -0.0613  0.2762  0.0963
   53DOPE  H12S 6771   5.093   0.238   4.630  0.3908 -0.3772 -0.0350
   53DOPE  C213 6772   4.959   0.302   4.478 -0.7569  0.1011  0.3424
   53DOPE  H13R 6773   4.930   0.196   4.464 -0.8247  0.1722 -0.0904
   53DOPE  H13S 6774   4.968   0.350   4.378 -0.8099  1.0768  0.7959
   53DOPE  C214 6775   4.849   0.373   4.560  0.6996 -0.6175  0.2276
   53DOPE  H14R 6776   4.858   0.483   4.545  3.5977 -0.8920 -0.6617
   53DOPE  H14S 6777   4.850   0.355   4.670 -0.1492  0.8336  0.5075
   53DOPE  C215 6778   4.706   0.333   4.502 -0.2374 -0.2047 -0.7024
   53DOPE  H15R 6779   4.690   0.228   4.536 -0.1140 -0.0409 -0.1283
   53DOPE  H15S 6780   4.708   0.330   4.391  0.0008  0.3353 -0.7123
   53DOPE  C216 6781   4.588   0.416   4.547 -0.0013  0.0757 -0.0833
   53DOPE  H16R 6782   4.503   0.370   4.493 -0.0274  1.6672 -1.4731
   53DOPE  H16S 6783   4.613   0.518   4.510  3.6870 -0.0528  1.5900
   53DOPE  C217 6784   4.565   0.410   4.696 -0.1486 -0.0482 -0.0264
   53DOPE  H17R 6785   4.663   0.421   4.747 -1.3271  0.0620  2.3362
   53DOPE  H17S 6786   4.533   0.305   4.714 -2.0880  0.3388 -0.9523
   53DOPE  C218 6787   4.471   0.510   4.760 -0.0977 -0.3054 -0.2872
   53DOPE  H18R 6788   4.478   0.613   4.717  1.3498  0.0128  0.6299
   53DOPE  H18S 6789   4.475   0.500   4.870  0.9430  2.3404 -0.0131
   53DOPE  H18T 6790   4.370   0.472   4.732 -0.7162 -0.1176  1.5533
   53DOPE   C33 6791   4.813  -0.427   3.578  0.9455 -0.0871  0.3671
   53DOPE   H3X 6792   4.820  -0.497   3.664 -0.2217 -0.3442  0.2685
   53DOPE   H3Y 6793   4.748  -0.480   3.505 -0.8892  0.4547  1.5300
   53DOPE   C34 6794   4.756  -0.291   3.622 -0.1949 -0.6204 -0.1965
   53DOPE   H4X 6795   4.763  -0.220   3.537 -0.7369 -0.8885 -0.4706
   53DOPE   H4Y 6796   4.649  -0.315   3.641  0.1092 -1.0209  1.0815
   53DOPE   C35 6797   4.822  -0.223   3.750 -0.5387  0.0950  0.7872
   53DOPE   H5X 6798   4.914  -0.168   3.719  0.1165 -0.8439  1.0263
   53DOPE   H5Y 6799   4.853  -0.309   3.814  0.2265  0.1310  0.4776
   53DOPE   C36 6800   4.742  -0.126   3.834  0.2023  0.0670 -0.4613
   53DOPE   H6X 6801   4.809  -0.075   3.906  2.1579  0.7016 -2.5857
   53DOPE   H6Y 6802   4.674  -0.187   3.897  0.1793 -0.1256 -0.6701
   53DOPE   C37 6803   4.655  -0.023   3.763  0.2566 -0.2893 -0.3424
   53DOPE   H7X 6804   4.723   0.018   3.685  0.8961  1.0846  0.8878
   53DOPE   H7Y 6805   4.582  -0.076   3.698  0.5823  0.7524 -1.6050
   53DOPE   C38 6806   4.604   0.091   3.853  0.0411 -0.6656 -0.0162
   53DOPE   H8X 6807   4.688   0.114   3.922  0.9957  0.3279 -1.4611
   53DOPE   H8Y 6808   4.525   0.047   3.918 -0.1116  1.1762  1.1106
   53DOPE   C39 6809   4.561   0.217   3.785  0.5970  0.5173 -0.7953
   53DOPE   H9X 6810   4.617   0.251   3.697  0.7524  1.7170 -0.2590
   53DOPE  C310 6811   4.452   0.295   3.823 -0.5125 -0.4240 -0.6832
   53DOPE  H10X 6812   4.433   0.385   3.763 -2.9059 -1.1168 -1.0838
   53DOPE  C311 6813   4.363   0.265   3.940  0.3025 -0.2362  0.4970
   53DOPE  H11X 6814   4.259   0.289   3.911  0.8696  1.0099 -0.6043
   53DOPE  H11Y 6815   4.366   0.158   3.971 -0.0535 -0.5474 -0.5318
   53DOPE  C312 6816   4.374   0.360   4.062 -0.1941 -0.1079  0.7386
   53DOPE  H12X 6817   4.350   0.462   4.024 -0.4487 -0.9384 -1.5152
   53DOPE  H12Y 6818   4.476   0.359   4.105 -0.8373 -2.5983  2.4176
   53DOPE  C313 6819   4.274   0.331   4.178 -0.3374  0.2851  0.0469
   53DOPE  H13X 6820   4.173   0.331   4.133 -0.6154  0.9943  0.6421
   53DOPE  H13Y 6821   4.293   0.229   4.217 -3.5110 -1.0791 -1.5999
   53DOPE  C314 6822   4.273   0.438   4.287  0.8925  0.3541  0.5090
   53DOPE  H14X 6823   4.271   0.545   4.255 -1.2288  0.8210  1.9749
   53DOPE  H14Y 6824   4.362   0.435   4.352  0.9828  0.5257  0.3942
   53DOPE  C315 6825   4.160   0.431   4.390 -0.1982 -0.1414 -0.0829
   53DOPE  H15X 6826   4.169   0.328   4.429 -0.8169 -0.1546  0.0276
   53DOPE  H15Y 6827   4.059   0.437   4.343 -1.0777  1.5460  1.8577
   53DOPE  C316 6828   4.174   0.528   4.507 -0.3197  0.3641 -0.0916
   53DOPE  H16X 6829   4.154   0.633   4.479  0.7733  1.4523  2.8628
   53DOPE  H16Y 6830   4.278   0.523   4.545 -0.3706  0.6085  0.0854
   53DOPE  C317 6831   4.064   0.512   4.616 -0.1950 -0.3290 -0.2784
   53DOPE  H17X 6832   4.102   0.569   4.703  0.4027 -1.1373  0.0052
   53DOPE  H17Y 6833   3.964   0.548   4.584  1.0272  1.6653 -2.1587
   53DOPE  C318 6834   4.050   0.363   4.662  0.8955  0.2183  0.0440
   53DOPE  H18X 6835   4.011   0.294   4.584  2.4045  0.5029 -1.0128
   53DOPE  H18Y 6836   4.146   0.314   4.688  0.2773 -0.6743  0.6697
   53DOPE  H18Z 6837   3.978   0.363   4.747  1.3631  1.7023  0.4697
   54DOPE     N 6838   0.286   2.782   2.580 -0.4835 -0.6328 -0.1785
   54DOPE   HN1 6839   0.378   2.826   2.602 -0.4824 -0.7265  0.0128
   54DOPE   HN2 6840   0.244   2.733   2.662 -1.7167  1.9527  0.8460
   54DOPE   HN3 6841   0.309   2.714   2.505 -0.2434  0.8359 -1.4785
   54DOPE   C12 6842   0.192   2.909   2.555 -0.7568 -0.1406  0.2647
   54DOPE  H12A 6843   0.104   2.869   2.500  0.2660 -1.9570 -0.1596
   54DOPE  H12B 6844   0.253   2.971   2.485 -0.9761 -2.5505 -2.2513
   54DOPE   C11 6845   0.157   2.976   2.680  0.0117  0.2352 -0.1963
   54DOPE  H11A 6846   0.133   3.083   2.660 -2.0228  0.2589  2.0029
   54DOPE  H11B 6847   0.243   2.985   2.749 -0.3844  1.8284  0.1344
   54DOPE     P 6848   0.073   2.794   2.845  0.2282 -0.1751 -0.0619
   54DOPE   O13 6849   0.198   2.710   2.820  0.4859  0.3013  0.0192
   54DOPE   O14 6850  -0.051   2.722   2.854 -0.2307  0.4611 -0.3465
   54DOPE   O11 6851   0.093   2.875   2.978 -0.2227  0.3006  0.5596
   54DOPE   O12 6852   0.051   2.910   2.739 -0.1037 -0.0608  0.0059
   54DOPE    C1 6853  -0.001   2.977   3.022  0.4887 -0.0975  0.0053
   54DOPE    HA 6854  -0.049   2.938   3.114 -1.0645  1.0866 -0.2476
   54DOPE    HB 6855  -0.075   3.003   2.943  1.1993  0.9236 -0.3445
   54DOPE    C2 6856   0.073   3.104   3.068 -0.2313  0.0107 -0.2732
   54DOPE    HS 6857   0.106   3.157   2.976 -1.4082 -1.7496 -1.7979
   54DOPE   O21 6858   0.184   3.066   3.152  0.2347 -0.4359  0.3169
   54DOPE   C21 6859   0.289   3.152   3.151 -0.2157  0.1090  0.3335
   54DOPE   O22 6860   0.301   3.235   3.060  0.1586 -0.2356  0.5788
   54DOPE   C22 6861   0.388   3.140   3.262  0.1631  0.1616  0.9011
   54DOPE   H2R 6862   0.423   3.035   3.270 -0.5235  0.0045  1.9705
   54DOPE   H2S 6863   0.342   3.181   3.354  0.1048 -1.2104  1.5091
   54DOPE    C3 6864  -0.023   3.201   3.150 -0.2153 -0.0847 -0.0184
   54DOPE    HX 6865  -0.093   3.240   3.072  1.9742  1.3373 -1.3823
   54DOPE    HY 6866   0.023   3.296   3.184 -0.2110 -0.2281  0.3761
   54DOPE   O31 6867  -0.112   3.145   3.241 -0.5211 -0.1662 -0.4715
   54DOPE   C31 6868  -0.055   3.129   3.362 -0.1923 -0.4246  0.9447
   54DOPE   O32 6869   0.055   3.176   3.392 -0.3260 -0.1543  0.7585
   54DOPE   C32 6870  -0.143   3.045   3.449 -0.0778  0.0214  0.5458
   54DOPE   H2X 6871  -0.237   3.105   3.452 -0.2770 -0.2517 -0.0045
   54DOPE   H2Y 6872  -0.170   2.948   3.402 -0.4401  0.1632  0.4533
   54DOPE   C23 6873   0.515   3.234   3.247  0.1495  0.2861  0.5901
   54DOPE   H3R 6874   0.492   3.324   3.185 -0.0437 -0.8519 -1.0422
   54DOPE   H3S 6875   0.597   3.173   3.204 -0.3545 -0.1481  0.2344
   54DOPE   C24 6876   0.578   3.281   3.375  1.0379  0.2832  0.5065
   54DOPE   H4R 6877   0.514   3.348   3.436  0.7800 -0.9870  1.6983
   54DOPE   H4S 6878   0.676   3.329   3.354 -0.2650  2.6907 -0.4200
   54DOPE   C25 6879   0.611   3.162   3.461 -0.2278  0.3944  0.1638
   54DOPE   H5R 6880   0.644   3.079   3.394  0.7409  1.5786 -0.8851
   54DOPE   H5S 6881   0.512   3.127   3.497 -1.1179  0.9426 -1.6280
   54DOPE   C26 6882   0.711   3.197   3.570  0.4256 -0.3699 -0.4116
   54DOPE   H6R 6883   0.667   3.277   3.634  1.2004  2.1931 -2.9074
   54DOPE   H6S 6884   0.808   3.240   3.539  0.9621  0.1230  1.7359
   54DOPE   C27 6885   0.742   3.073   3.649  0.2854  0.5718 -0.8937
   54DOPE   H7R 6886   0.809   3.017   3.579 -0.8799 -0.6525 -1.0665
   54DOPE   H7S 6887   0.651   3.015   3.673  1.0092  0.1798  1.1096
   54DOPE   C28 6888   0.829   3.100   3.772  0.4478  0.1955  0.1377
   54DOPE   H8R 6889   0.918   3.162   3.748 -0.3827  1.4068  0.1049
   54DOPE   H8S 6890   0.868   3.004   3.811  1.0985  0.0179 -0.9176
   54DOPE   C29 6891   0.743   3.170   3.875 -0.1506 -0.1874 -0.2133
   54DOPE   H9R 6892   0.703   3.267   3.843 -0.9734 -0.6629 -0.6528
   54DOPE  C210 6893   0.713   3.127   3.996  0.0669 -0.1452  0.1841
   54DOPE  H10R 6894   0.652   3.189   4.063 -2.4176 -1.7527 -0.4333
   54DOPE  C211 6895   0.759   2.999   4.061  0.1237 -0.5596 -0.3598
   54DOPE  H11R 6896   0.818   2.935   3.992  1.1485  0.3135 -0.3272
   54DOPE  H11S 6897   0.677   2.931   4.089 -0.0443 -0.7204 -1.2329
   54DOPE  C212 6898   0.843   3.020   4.187  0.0377  0.5748 -0.3372
   54DOPE  H12R 6899   0.844   2.919   4.235 -0.0222  0.6565 -0.1615
   54DOPE  H12S 6900   0.790   3.092   4.253 -0.8264 -2.0145  2.0422
   54DOPE  C213 6901   0.990   3.068   4.157  0.0325 -1.0305 -0.5262
   54DOPE  H13R 6902   1.006   3.171   4.120  3.4384 -0.5878  1.6742
   54DOPE  H13S 6903   1.042   3.002   4.083  2.2270  0.5406 -0.4735
   54DOPE  C214 6904   1.090   3.060   4.274 -0.1089 -0.1075  0.0035
   54DOPE  H14R 6905   1.193   3.095   4.249 -0.5328  1.9261  0.8991
   54DOPE  H14S 6906   1.110   2.956   4.308  0.6051  0.6402  2.0780
   54DOPE  C215 6907   1.041   3.134   4.403  0.2302  0.2298 -0.3064
   54DOPE  H15R 6908   0.962   3.070   4.447  1.0449  1.2968  2.9748
   54DOPE  H15S 6909   0.981   3.225   4.380  0.0021 -0.1482 -1.2434
   54DOPE  C216 6910   1.152   3.147   4.497 -0.2237  0.2457  0.4191
   54DOPE  H16R 6911   1.228   3.068   4.476  1.3153  0.6964  3.6933
   54DOPE  H16S 6912   1.119   3.136   4.602 -0.6631 -3.6811  0.0280
   54DOPE  C217 6913   1.226   3.277   4.471  0.0377 -0.1348 -0.2982
   54DOPE  H17R 6914   1.158   3.365   4.462  1.8035  1.1551 -1.8885
   54DOPE  H17S 6915   1.266   3.277   4.367  1.3321 -1.1328  0.1777
   54DOPE  C218 6916   1.327   3.292   4.583  0.4419 -0.1320 -0.3839
   54DOPE  H18R 6917   1.395   3.204   4.582  0.4668 -0.1138 -0.2169
   54DOPE  H18S 6918   1.271   3.306   4.678  2.6484  0.4893  0.8986
   54DOPE  H18T 6919   1.394   3.380   4.575  3.0655 -1.8428  1.2533
   54DOPE   C33 6920  -0.090   3.020   3.592 -0.2520  0.4922 -0.6287
   54DOPE   H3X 6921  -0.072   3.123   3.628 -0.6623  1.2717 -2.5122
   54DOPE   H3Y 6922   0.004   2.963   3.580 -0.1803  0.8879 -2.2786
   54DOPE   C34 6923  -0.188   2.944   3.687  0.0339 -0.5040  0.1929
   54DOPE   H4X 6924  -0.290   2.987   3.677  1.0419  2.0336 -0.0707
   54DOPE   H4Y 6925  -0.188   2.844   3.639 -0.8616  0.3346 -1.6192
   54DOPE   C35 6926  -0.151   2.934   3.832 -0.3218  0.6470 -0.6729
   54DOPE   H5X 6927  -0.050   2.889   3.842 -0.7909 -0.2356  0.3237
   54DOPE   H5Y 6928  -0.213   2.860   3.888  0.0157  0.4192 -0.5987
   54DOPE   C36 6929  -0.179   3.069   3.903  0.8127 -0.3496  0.5880
   54DOPE   H6X 6930  -0.276   3.112   3.871  1.2886 -0.1332 -0.6129
   54DOPE   H6Y 6931  -0.114   3.145   3.855  1.2292 -0.4398  1.0010
   54DOPE   C37 6932  -0.166   3.063   4.051 -0.1284  0.2700  0.5647
   54DOPE   H7X 6933  -0.259   3.018   4.092  0.9071 -1.9374  0.6280
   54DOPE   H7Y 6934  -0.087   2.991   4.081 -1.1292 -1.1963 -0.1781
   54DOPE   C38 6935  -0.134   3.201   4.113 -0.5062 -0.1785  0.0423
   54DOPE   H8X 6936  -0.221   3.270   4.109  1.0584  1.9403  0.4326
   54DOPE   H8Y 6937  -0.053   3.262   4.066  0.6345  1.0989  3.3589
   54DOPE   C39 6938  -0.100   3.182   4.259 -0.3588  0.3398 -0.7062
   54DOPE   H9X 6939   0.004   3.149   4.276 -0.7642 -0.6457 -0.0798
   54DOPE  C310 6940  -0.177   3.183   4.371  0.1410  0.1840  0.3199
   54DOPE  H10X 6941  -0.141   3.168   4.474  1.6877  2.1563  0.1237
   54DOPE  C311 6942  -0.321   3.205   4.360  0.2610  0.6970 -0.1073
   54DOPE  H11X 6943  -0.340   3.314   4.345 -2.2482  0.3946  0.3074
   54DOPE  H11Y 6944  -0.376   3.147   4.282 -1.9175  1.4819  0.7634
   54DOPE  C312 6945  -0.404   3.171   4.489 -0.0237  0.3702  0.1695
   54DOPE  H12X 6946  -0.509   3.205   4.483 -0.3871 -0.4332  1.5218
   54DOPE  H12Y 6947  -0.356   3.216   4.578  0.0486  0.5927  0.0205
   54DOPE  C313 6948  -0.407   3.016   4.505  0.7871 -0.6308 -0.0272
   54DOPE  H13X 6949  -0.433   2.957   4.415 -0.8604 -1.2899  0.8328
   54DOPE  H13Y 6950  -0.304   2.989   4.535  0.9491 -2.3811 -1.9303
   54DOPE  C314 6951  -0.517   2.984   4.610  0.3402 -0.4270 -0.0201
   54DOPE  H14X 6952  -0.621   3.003   4.578 -0.9965 -3.8836  1.7014
   54DOPE  H14Y 6953  -0.509   3.055   4.695 -0.2782  0.3740 -0.6181
   54DOPE  C315 6954  -0.530   2.839   4.671  0.6890  0.2197 -0.4215
   54DOPE  H15X 6955  -0.586   2.845   4.767  0.4964 -2.7025 -0.2479
   54DOPE  H15Y 6956  -0.431   2.792   4.689  0.3037  0.0964  1.6231
   54DOPE  C316 6957  -0.620   2.747   4.581 -0.7761 -0.3561 -0.9072
   54DOPE  H16X 6958  -0.578   2.737   4.479 -1.1263  2.1722 -1.3762
   54DOPE  H16Y 6959  -0.723   2.787   4.571 -0.3859  0.2450 -2.8627
   54DOPE  C317 6960  -0.637   2.603   4.648  0.5679 -0.3373  0.4784
   54DOPE  H17X 6961  -0.638   2.606   4.759  0.8154 -1.2369  0.5133
   54DOPE  H17Y 6962  -0.736   2.568   4.611  1.3691 -0.7040 -1.4129
   54DOPE  C318 6963  -0.522   2.504   4.602 -0.1235 -0.6453 -0.4076
   54DOPE  H18X 6964  -0.507   2.497   4.493  0.0863 -1.2182 -0.3446
   54DOPE  H18Y 6965  -0.428   2.539   4.650 -0.9457  1.8556 -0.4927
   54DOPE  H18Z 6966  -0.549   2.406   4.647 -2.0309  0.4207  0.9434
   55DOPE     N 6967   0.175   6.030   2.372 -0.5116  0.4298 -0.2813
   55DOPE   HN1 6968   0.269   5.996   2.346  0.3244  2.0805  0.4127
   55DOPE   HN2 6969   0.104   5.958   2.345 -0.6201  0.5189 -0.2371
   55DOPE   HN3 6970   0.151   6.118   2.322 -1.8564  0.4299  0.3044
   55DOPE   C12 6971   0.177   6.047   2.525 -0.7067  0.7607 -0.1598
   55DOPE  H12A 6972   0.242   6.134   2.549  1.9826 -1.2631  0.4329
   55DOPE  H12B 6973   0.230   5.958   2.567 -1.3047 -0.2156 -1.4063
   55DOPE   C11 6974   0.039   6.071   2.589  0.8382  0.1976 -0.1643
   55DOPE  H11A 6975   0.063   6.091   2.695 -1.3085 -2.5666  0.9751
   55DOPE  H11B 6976  -0.028   5.982   2.588  0.5188  0.4296 -1.3271
   55DOPE     P 6977  -0.035   6.322   2.550  0.4640 -0.1016 -0.0276
   55DOPE   O13 6978  -0.143   6.399   2.485 -0.1865 -0.1939 -0.4526
   55DOPE   O14 6979   0.103   6.371   2.513 -0.3308 -0.2610 -0.2484
   55DOPE   O11 6980  -0.052   6.338   2.708  0.3474  0.4805  0.2283
   55DOPE   O12 6981  -0.043   6.167   2.517  0.4090  0.0764 -0.4523
   55DOPE    C1 6982  -0.045   6.468   2.773  0.0130 -0.1024  0.3307
   55DOPE    HA 6983  -0.147   6.510   2.791  0.3047  0.5506  0.4708
   55DOPE    HB 6984   0.007   6.543   2.710 -0.0232 -0.0109  0.4094
   55DOPE    C2 6985   0.030   6.457   2.903 -0.6686 -0.3300  0.0064
   55DOPE    HS 6986   0.138   6.448   2.879 -0.8081 -2.4650 -0.0631
   55DOPE   O21 6987  -0.015   6.341   2.973  0.1928 -0.4200  0.3822
   55DOPE   C21 6988   0.049   6.222   2.963 -0.2228 -0.4281  0.1802
   55DOPE   O22 6989   0.155   6.212   2.902 -0.1252 -0.1482  0.3261
   55DOPE   C22 6990  -0.028   6.117   3.034 -0.7476 -0.3191  0.4299
   55DOPE   H2R 6991  -0.080   6.048   2.965 -1.1102  0.8007 -0.4466
   55DOPE   H2S 6992  -0.108   6.166   3.094 -2.4076  1.5907 -2.9955
   55DOPE    C3 6993  -0.002   6.579   2.984 -0.0530 -0.2444  0.1378
   55DOPE    HX 6994  -0.100   6.567   3.035 -1.3790  3.3974 -1.2490
   55DOPE    HY 6995  -0.007   6.668   2.918 -0.6242 -0.4404 -0.0842
   55DOPE   O31 6996   0.111   6.607   3.069 -0.3172  0.1161  0.3406
   55DOPE   C31 6997   0.113   6.555   3.190 -0.1644  0.1073  0.2024
   55DOPE   O32 6998   0.033   6.493   3.249  0.2947  0.6915 -0.1368
   55DOPE   C32 6999   0.235   6.620   3.256 -1.1673  0.9777 -0.3818
   55DOPE   H2X 7000   0.325   6.561   3.228  0.4250  2.0977  2.0415
   55DOPE   H2Y 7001   0.257   6.723   3.220  0.4362  0.9382  0.4228
   55DOPE   C23 7002   0.061   6.049   3.143 -0.4295 -0.0764  0.0267
   55DOPE   H3R 7003   0.110   6.128   3.204 -1.4916  0.0970  0.6832
   55DOPE   H3S 7004   0.148   5.995   3.101 -1.3895 -0.1529 -1.9887
   55DOPE   C24 7005  -0.009   5.958   3.241 -0.1245  0.1272  0.2615
   55DOPE   H4R 7006  -0.075   5.884   3.192 -0.6157  1.1129 -0.6111
   55DOPE   H4S 7007  -0.077   6.032   3.289 -1.3979 -1.2245  0.6015
   55DOPE   C25 7008   0.075   5.903   3.347  0.0352 -0.1669 -0.1051
   55DOPE   H5R 7009   0.114   5.987   3.408 -0.8229 -1.6423  2.6299
   55DOPE   H5S 7010   0.158   5.842   3.305 -0.5207 -4.6374  4.3792
   55DOPE   C26 7011   0.003   5.803   3.449  0.1926 -0.7048  0.4981
   55DOPE   H6R 7012  -0.005   5.699   3.412  0.1667 -1.2194  1.8790
   55DOPE   H6S 7013  -0.098   5.845   3.468 -0.3859 -1.5663 -0.5987
   55DOPE   C27 7014   0.081   5.803   3.585 -0.3070 -0.0254 -0.5391
   55DOPE   H7R 7015   0.027   5.737   3.655 -0.0766  0.2048 -0.1438
   55DOPE   H7S 7016   0.077   5.907   3.623 -0.1598  0.0647 -0.7646
   55DOPE   C28 7017   0.226   5.754   3.569  0.2684  1.0059  0.0449
   55DOPE   H8R 7018   0.284   5.780   3.660  0.1001  0.5475  0.2843
   55DOPE   H8S 7019   0.275   5.804   3.482  1.4909 -1.3907 -0.7438
   55DOPE   C29 7020   0.240   5.608   3.532  0.4175  0.4557 -0.1132
   55DOPE   H9R 7021   0.143   5.557   3.522  0.7234 -0.1360 -0.1433
   55DOPE  C210 7022   0.345   5.545   3.490  0.3148  0.0505  0.1621
   55DOPE  H10R 7023   0.335   5.438   3.468 -2.7764  0.5356 -1.3633
   55DOPE  C211 7024   0.477   5.612   3.474  0.2759 -0.3099  0.5671
   55DOPE  H11R 7025   0.557   5.537   3.490  0.4008 -0.0152  1.3889
   55DOPE  H11S 7026   0.488   5.710   3.527  1.3804  0.2704 -0.7073
   55DOPE  C212 7027   0.507   5.659   3.329 -0.0600 -0.0917  0.4190
   55DOPE  H12R 7028   0.431   5.725   3.281 -1.0455 -0.0098  2.0079
   55DOPE  H12S 7029   0.526   5.575   3.259  4.5125 -0.2792  1.5954
   55DOPE  C213 7030   0.642   5.738   3.318  0.1225 -0.4948 -0.9547
   55DOPE  H13R 7031   0.653   5.756   3.209  1.2048 -2.2721 -1.1810
   55DOPE  H13S 7032   0.728   5.678   3.355  0.8040  1.4653  0.8555
   55DOPE  C214 7033   0.645   5.867   3.407 -0.0961  0.3559 -0.0266
   55DOPE  H14R 7034   0.631   5.857   3.516 -0.6084 -1.6415 -0.2304
   55DOPE  H14S 7035   0.561   5.931   3.374  1.5540  1.0260 -3.5023
   55DOPE  C215 7036   0.775   5.942   3.383  0.2063  0.4959  0.5712
   55DOPE  H15R 7037   0.772   5.988   3.282 -1.2716  0.6748  0.6753
   55DOPE  H15S 7038   0.864   5.876   3.379 -0.4647 -0.3717 -0.4262
   55DOPE  C216 7039   0.811   6.061   3.479 -0.4634 -0.1000  0.0187
   55DOPE  H16R 7040   0.754   6.146   3.435  1.1231  3.1461  3.6704
   55DOPE  H16S 7041   0.920   6.076   3.463 -0.5232 -0.3257 -0.6718
   55DOPE  C217 7042   0.795   6.051   3.632 -0.5502  0.2059  0.2371
   55DOPE  H17R 7043   0.873   6.117   3.675 -1.0356  1.9677 -1.4433
   55DOPE  H17S 7044   0.824   5.951   3.672  2.3967  1.6075  1.9260
   55DOPE  C218 7045   0.664   6.105   3.699 -0.3883  0.1990 -0.5168
   55DOPE  H18R 7046   0.581   6.068   3.634 -1.8266 -3.6631  3.0455
   55DOPE  H18S 7047   0.666   6.216   3.696  0.1616  0.2769  1.4231
   55DOPE  H18T 7048   0.646   6.077   3.805 -2.1182  2.3608 -0.1633
   55DOPE   C33 7049   0.226   6.630   3.410 -0.9147  0.1928 -0.2707
   55DOPE   H3X 7050   0.216   6.529   3.454  1.9939 -0.5007 -0.9786
   55DOPE   H3Y 7051   0.140   6.698   3.431 -2.0977 -1.7503  1.5980
   55DOPE   C34 7052   0.355   6.704   3.464 -0.1604  0.2120  0.5388
   55DOPE   H4X 7053   0.372   6.675   3.570 -1.2083 -0.7398  0.4749
   55DOPE   H4Y 7054   0.441   6.675   3.400 -1.6724  0.1395 -1.6130
   55DOPE   C35 7055   0.350   6.862   3.480 -0.1553  0.4676 -0.3335
   55DOPE   H5X 7056   0.280   6.902   3.557  0.5575  0.7483  0.1719
   55DOPE   H5Y 7057   0.328   6.914   3.385 -0.6694  0.9110  0.0242
   55DOPE   C36 7058   0.483   6.908   3.548 -0.0702 -0.2928 -0.0710
   55DOPE   H6X 7059   0.556   6.895   3.466 -0.0048  1.1623 -0.2818
   55DOPE   H6Y 7060   0.502   6.844   3.636  1.0175  0.0427 -0.0508
   55DOPE   C37 7061   0.506   7.058   3.581  0.5312  0.2591  0.0004
   55DOPE   H7X 7062   0.617   7.061   3.583  0.6257 -0.7534 -1.4498
   55DOPE   H7Y 7063   0.480   7.130   3.500  2.0914 -0.2141 -0.9563
   55DOPE   C38 7064   0.468   7.101   3.724 -0.1272  0.2325 -0.6562
   55DOPE   H8X 7065   0.517   7.195   3.754 -0.9200  0.4312  0.0479
   55DOPE   H8Y 7066   0.512   7.025   3.792 -2.5654  0.1290  0.9539
   55DOPE   C39 7067   0.326   7.132   3.730 -0.3656 -0.0105  0.2047
   55DOPE   H9X 7068   0.304   7.220   3.667 -0.1321  1.7961  2.5352
   55DOPE  C310 7069   0.241   7.062   3.808  0.2648  0.4349 -0.1736
   55DOPE  H10X 7070   0.135   7.090   3.799  0.5843  1.4524 -1.0799
   55DOPE  C311 7071   0.268   6.946   3.902 -0.2143 -1.2494 -0.8227
   55DOPE  H11X 7072   0.199   6.859   3.895 -1.6443 -0.4184  1.6617
   55DOPE  H11Y 7073   0.375   6.919   3.896  0.1787  0.5340 -3.8785
   55DOPE  C312 7074   0.249   7.001   4.050  0.6555  0.3573  0.2867
   55DOPE  H12X 7075   0.316   7.086   4.073  0.2032  1.0503 -0.8757
   55DOPE  H12Y 7076   0.289   6.914   4.107  3.2740  0.3268 -1.4393
   55DOPE  C313 7077   0.103   7.028   4.077  0.4754 -0.3299 -0.2575
   55DOPE  H13X 7078   0.058   7.107   4.014  0.1358 -0.7184 -0.5046
   55DOPE  H13Y 7079   0.043   6.937   4.055 -0.1736 -0.2793  1.1691
   55DOPE  C314 7080   0.077   7.073   4.230  0.0234  0.7570 -0.1416
   55DOPE  H14X 7081   0.139   7.156   4.270  2.2763 -2.1694  3.0536
   55DOPE  H14Y 7082   0.107   6.986   4.293 -1.3718 -0.7898 -1.5283
   55DOPE  C315 7083  -0.067   7.117   4.263  0.5343  1.0759  0.2374
   55DOPE  H15X 7084  -0.134   7.029   4.254 -0.2679  1.5964  0.9649
   55DOPE  H15Y 7085  -0.086   7.198   4.190  1.9925  0.6149 -0.7043
   55DOPE  C316 7086  -0.093   7.183   4.398  0.4026  0.5880  0.2272
   55DOPE  H16X 7087   0.002   7.216   4.446  0.7908  0.5520 -0.4930
   55DOPE  H16Y 7088  -0.127   7.094   4.455  0.7134 -0.3795 -1.0533
   55DOPE  C317 7089  -0.186   7.293   4.395  1.3017  0.1608  0.2075
   55DOPE  H17X 7090  -0.156   7.367   4.318 -2.4450  2.5778  0.8093
   55DOPE  H17Y 7091  -0.286   7.258   4.363  1.5009  1.0538 -1.5369
   55DOPE  C318 7092  -0.197   7.359   4.536 -0.1894 -0.8708  0.9411
   55DOPE  H18X 7093  -0.281   7.430   4.545  1.1537  0.7946  0.9461
   55DOPE  H18Y 7094  -0.214   7.291   4.622  0.8219 -1.6631  0.5441
   55DOPE  H18Z 7095  -0.102   7.413   4.554 -0.4757 -0.0520  0.0843
   56DOPE     N 7096   1.686   5.488   3.148  0.3587  0.5903  0.0890
   56DOPE   HN1 7097   1.748   5.549   3.091  0.0421 -0.0574 -0.9804
   56DOPE   HN2 7098   1.587   5.496   3.116 -0.1614  2.2683  1.8795
   56DOPE   HN3 7099   1.689   5.530   3.243  0.5684 -1.8831  1.2812
   56DOPE   C12 7100   1.737   5.346   3.148  0.5726 -0.3050 -0.7043
   56DOPE  H12A 7101   1.845   5.353   3.120  0.4035  0.4202 -1.2165
   56DOPE  H12B 7102   1.675   5.289   3.076 -1.9350  1.6924 -0.2761
   56DOPE   C11 7103   1.731   5.282   3.291 -0.2375 -0.4405  0.3175
   56DOPE  H11A 7104   1.630   5.294   3.335  0.4114  1.7603  1.3592
   56DOPE  H11B 7105   1.803   5.330   3.360  0.5268 -1.0454 -0.0356
   56DOPE     P 7106   1.688   5.017   3.320  0.2488  0.0392 -0.4601
   56DOPE   O13 7107   1.774   4.902   3.297  0.0746 -0.2775 -0.3631
   56DOPE   O14 7108   1.550   5.011   3.260  0.5794  0.2897 -0.3484
   56DOPE   O11 7109   1.664   5.033   3.482  0.7766  0.6661 -0.4384
   56DOPE   O12 7110   1.770   5.150   3.286  0.1995 -0.3914 -0.0729
   56DOPE    C1 7111   1.776   5.056   3.567  0.8443 -0.7379 -0.3191
   56DOPE    HA 7112   1.844   5.123   3.511 -0.0656  0.2906 -0.2212
   56DOPE    HB 7113   1.816   4.959   3.604  0.0987 -0.9618 -0.0858
   56DOPE    C2 7114   1.743   5.126   3.706 -0.7450  0.6094 -0.1927
   56DOPE    HS 7115   1.819   5.095   3.781  0.2401  1.5607 -0.7619
   56DOPE   O21 7116   1.609   5.087   3.754  0.0763 -0.3772 -0.1996
   56DOPE   C21 7117   1.612   4.971   3.812  0.3391 -0.1810 -0.2708
   56DOPE   O22 7118   1.713   4.906   3.830  0.6324  0.1978  0.3346
   56DOPE   C22 7119   1.477   4.940   3.859  0.0799 -0.1657 -0.4866
   56DOPE   H2R 7120   1.485   4.837   3.900  2.3825 -0.3462 -1.2804
   56DOPE   H2S 7121   1.406   4.929   3.774  0.1984  2.8678 -1.0867
   56DOPE    C3 7122   1.736   5.279   3.679  0.4325 -0.7509  0.2083
   56DOPE    HX 7123   1.660   5.279   3.598 -0.3456 -0.9054  0.9259
   56DOPE    HY 7124   1.831   5.325   3.645 -0.4840  0.6710 -0.5771
   56DOPE   O31 7125   1.682   5.355   3.793  0.5445  0.3716  0.7633
   56DOPE   C31 7126   1.774   5.375   3.889 -0.3646  0.1226 -1.0607
   56DOPE   O32 7127   1.886   5.323   3.895 -0.3545  0.2739 -0.7697
   56DOPE   C32 7128   1.712   5.466   3.994 -0.5430 -0.0920  0.2996
   56DOPE   H2X 7129   1.759   5.567   3.989  0.6673 -0.6993 -2.1662
   56DOPE   H2Y 7130   1.604   5.469   3.968 -0.6446  0.4223  0.7606
   56DOPE   C23 7131   1.426   5.041   3.964 -0.4726 -0.4512  0.2909
   56DOPE   H3R 7132   1.429   5.147   3.930  3.6352  0.0164  1.5297
   56DOPE   H3S 7133   1.487   5.039   4.057  0.3423  0.6268 -0.1960
   56DOPE   C24 7134   1.288   5.010   4.025 -0.3318 -0.4737  0.4423
   56DOPE   H4R 7135   1.269   5.072   4.115 -0.3274 -0.4705  0.4411
   56DOPE   H4S 7136   1.289   4.905   4.062  0.7653 -1.2058 -1.5070
   56DOPE   C25 7137   1.166   5.024   3.928 -0.2115  0.0005 -0.1626
   56DOPE   H5R 7138   1.181   4.960   3.839 -3.4642 -0.4216 -0.5378
   56DOPE   H5S 7139   1.146   5.129   3.896 -0.8257 -0.2071 -0.4660
   56DOPE   C26 7140   1.041   4.953   3.995  0.5998 -0.1387  0.1325
   56DOPE   H6R 7141   1.058   4.954   4.105 -1.8181  1.4106  0.5646
   56DOPE   H6S 7142   1.040   4.845   3.968  0.4818 -0.0406 -0.2610
   56DOPE   C27 7143   0.905   5.012   3.955 -0.4558  0.1543 -0.0742
   56DOPE   H7R 7144   0.887   5.002   3.846 -1.6081  3.0649 -0.2402
   56DOPE   H7S 7145   0.910   5.118   3.989  0.0062 -0.1743  0.9175
   56DOPE   C28 7146   0.785   4.947   4.021 -0.1013  0.5917  0.1466
   56DOPE   H8R 7147   0.779   4.961   4.131 -0.5832 -0.8403  0.3194
   56DOPE   H8S 7148   0.797   4.838   4.009  0.4962  0.4934  1.5105
   56DOPE   C29 7149   0.657   4.999   3.957 -0.2768 -0.2643  0.3461
   56DOPE   H9R 7150   0.669   5.064   3.870  0.1915 -2.1009 -1.0311
   56DOPE  C210 7151   0.535   4.962   3.992 -0.2029 -0.4206 -0.3209
   56DOPE  H10R 7152   0.449   5.020   3.953  0.5735  0.2783 -1.0292
   56DOPE  C211 7153   0.491   4.865   4.100  0.2146 -0.2279 -0.3836
   56DOPE  H11R 7154   0.573   4.797   4.130 -0.6103 -0.1223  2.4329
   56DOPE  H11S 7155   0.407   4.802   4.064 -0.7008  0.5767  0.2505
   56DOPE  C212 7156   0.454   4.924   4.234  0.3973  0.5981 -0.5466
   56DOPE  H12R 7157   0.360   4.982   4.226 -1.0784 -1.6419 -0.4294
   56DOPE  H12S 7158   0.533   4.985   4.283 -0.5174  1.1411  0.2757
   56DOPE  C213 7159   0.411   4.809   4.325 -0.8260  0.3027  0.5121
   56DOPE  H13R 7160   0.493   4.737   4.340 -2.0005 -1.6023 -1.5175
   56DOPE  H13S 7161   0.334   4.750   4.271 -0.5462  0.9582 -0.6601
   56DOPE  C214 7162   0.361   4.850   4.467  1.0652 -0.2215  0.1187
   56DOPE  H14R 7163   0.278   4.922   4.450 -0.4065 -1.7901  0.4575
   56DOPE  H14S 7164   0.449   4.897   4.516  1.8285 -1.5095  0.0254
   56DOPE  C215 7165   0.314   4.732   4.552  0.2216 -0.5905  0.1471
   56DOPE  H15R 7166   0.304   4.781   4.651  1.5795  0.5767 -0.2561
   56DOPE  H15S 7167   0.389   4.650   4.563  0.0497 -0.5080  2.3442
   56DOPE  C216 7168   0.179   4.678   4.503 -0.3697 -0.1908 -0.2017
   56DOPE  H16R 7169   0.190   4.626   4.406  0.2195 -3.2037  1.3305
   56DOPE  H16S 7170   0.103   4.758   4.509 -1.3317 -1.0761 -0.2806
   56DOPE  C217 7171   0.123   4.567   4.602 -0.4236  0.5299  0.0929
   56DOPE  H17R 7172   0.145   4.596   4.706 -0.0263  0.5944 -0.0094
   56DOPE  H17S 7173   0.178   4.473   4.581 -1.0437 -0.2842  1.9127
   56DOPE  C218 7174  -0.029   4.530   4.572 -0.0539 -0.4080  0.6705
   56DOPE  H18R 7175  -0.018   4.493   4.468 -0.3372  2.6642 -0.5449
   56DOPE  H18S 7176  -0.092   4.618   4.595 -0.0294  0.1065 -1.1170
   56DOPE  H18T 7177  -0.066   4.442   4.629 -1.5015  0.7083  1.5222
   56DOPE   C33 7178   1.741   5.415   4.138  0.0079  0.2586  0.2753
   56DOPE   H3X 7179   1.736   5.500   4.209 -1.1331 -0.5939  1.2526
   56DOPE   H3Y 7180   1.850   5.393   4.148  0.6717  3.0464  0.0786
   56DOPE   C34 7181   1.648   5.305   4.189  0.7629  0.1325  0.1476
   56DOPE   H4X 7182   1.545   5.346   4.184  0.6743 -0.0611  0.3949
   56DOPE   H4Y 7183   1.653   5.216   4.123 -1.7023 -0.9847  1.3694
   56DOPE   C35 7184   1.690   5.272   4.330  0.4649  0.3269  0.0170
   56DOPE   H5X 7185   1.673   5.348   4.409  1.8086  1.0621 -0.3824
   56DOPE   H5Y 7186   1.797   5.250   4.350 -0.0893 -0.0644  2.9811
   56DOPE   C36 7187   1.635   5.133   4.388 -0.3105 -0.2537  0.1149
   56DOPE   H6X 7188   1.691   5.120   4.483  1.7971  3.4433 -0.4614
   56DOPE   H6Y 7189   1.669   5.052   4.319  0.2340  0.1189 -0.0576
   56DOPE   C37 7190   1.481   5.124   4.398 -0.2300 -0.5043  0.1653
   56DOPE   H7X 7191   1.448   5.145   4.294 -0.0422 -2.9052 -0.4523
   56DOPE   H7Y 7192   1.446   5.019   4.408 -1.4214 -0.4157 -2.2942
   56DOPE   C38 7193   1.410   5.206   4.508 -0.5293  0.1304 -0.5167
   56DOPE   H8X 7194   1.309   5.229   4.470 -0.2813  1.9615 -0.1716
   56DOPE   H8Y 7195   1.465   5.303   4.511 -0.6580  0.2402 -1.4109
   56DOPE   C39 7196   1.416   5.140   4.647  0.2407  0.3690  0.2021
   56DOPE   H9X 7197   1.520   5.126   4.682  0.1477  1.5166  1.0247
   56DOPE  C310 7198   1.317   5.123   4.732 -0.3064  0.3370 -0.2108
   56DOPE  H10X 7199   1.340   5.061   4.820  0.1218  0.0759 -0.5059
   56DOPE  C311 7200   1.180   5.170   4.698  0.2672  0.4496 -0.6099
   56DOPE  H11X 7201   1.150   5.162   4.592 -0.3224  0.3630 -0.4426
   56DOPE  H11Y 7202   1.105   5.100   4.741 -0.3080  0.1481 -2.0565
   56DOPE  C312 7203   1.133   5.310   4.745  0.1423 -0.0348  0.0528
   56DOPE  H12X 7204   1.192   5.391   4.697 -1.7831  0.4577 -1.6698
   56DOPE  H12Y 7205   1.140   5.310   4.856 -0.7282  0.7063  0.1236
   56DOPE  C313 7206   0.990   5.351   4.713 -0.1421 -0.8742  0.1417
   56DOPE  H13X 7207   0.982   5.396   4.611 -0.9632 -0.9883  0.1489
   56DOPE  H13Y 7208   0.933   5.256   4.709 -0.9796 -0.3649 -0.6467
   56DOPE  C314 7209   0.918   5.451   4.809 -1.2624  0.5154  0.6711
   56DOPE  H14X 7210   0.982   5.541   4.824 -0.6263 -0.0863  1.7050
   56DOPE  H14Y 7211   0.912   5.405   4.909  0.5629 -2.5934 -0.4820
   56DOPE  C315 7212   0.781   5.481   4.754  0.1709 -0.0653 -0.2002
   56DOPE  H15X 7213   0.781   5.465   4.644  1.7358 -0.0996 -0.2127
   56DOPE  H15Y 7214   0.738   5.578   4.786 -1.5306 -0.9301  0.2471
   56DOPE  C316 7215   0.675   5.388   4.820 -0.3840  1.0906  0.0751
   56DOPE  H16X 7216   0.666   5.413   4.928 -0.0974 -1.9942  0.9025
   56DOPE  H16Y 7217   0.715   5.286   4.799 -1.6309  0.9486 -1.8019
   56DOPE  C317 7218   0.534   5.389   4.752 -0.3144 -0.3289  0.5525
   56DOPE  H17X 7219   0.490   5.484   4.789 -1.1011  0.3083 -1.8654
   56DOPE  H17Y 7220   0.550   5.400   4.643  2.9953 -1.6235  0.7845
   56DOPE  C318 7221   0.442   5.271   4.790  0.1528  0.1703  0.1643
   56DOPE  H18X 7222   0.338   5.307   4.773 -1.4595 -2.7240  2.7204
   56DOPE  H18Y 7223   0.456   5.181   4.728 -0.4725  0.2293 -0.0678
   56DOPE  H18Z 7224   0.435   5.237   4.896 -2.5623  0.9259  0.3107
   57DOPE     N 7225   1.283   2.635   2.639 -0.0832  0.1467 -0.6271
   57DOPE   HN1 7226   1.367   2.573   2.636  0.0777  0.4005 -2.2656
   57DOPE   HN2 7227   1.207   2.578   2.681 -0.0297  0.9663  0.6420
   57DOPE   HN3 7228   1.252   2.659   2.543  1.4449  0.9335 -0.9560
   57DOPE   C12 7229   1.320   2.755   2.723  0.6586 -0.5182  0.8870
   57DOPE  H12A 7230   1.239   2.826   2.697  0.4500 -1.1215 -0.1613
   57DOPE  H12B 7231   1.423   2.783   2.693 -0.1157 -0.9036 -2.4902
   57DOPE   C11 7232   1.307   2.720   2.868 -0.0397  0.1590 -0.0764
   57DOPE  H11A 7233   1.205   2.678   2.878  0.8459 -2.2922 -0.4588
   57DOPE  H11B 7234   1.309   2.811   2.932  1.5644  0.8520 -1.0633
   57DOPE     P 7235   1.404   2.509   2.999  0.2713 -0.3705  0.2769
   57DOPE   O13 7236   1.539   2.487   3.052  0.4428  0.0737  0.2252
   57DOPE   O14 7237   1.345   2.406   2.915  0.4591 -0.7359 -0.0128
   57DOPE   O11 7238   1.298   2.547   3.111 -0.1188  0.2861 -0.5276
   57DOPE   O12 7239   1.415   2.635   2.911  0.2447  0.1481 -0.3864
   57DOPE    C1 7240   1.170   2.482   3.124  1.2063  0.6398  0.0544
   57DOPE    HA 7241   1.178   2.371   3.126 -0.7718  0.4696  1.0171
   57DOPE    HB 7242   1.099   2.499   3.040  2.1232  1.0048 -0.6625
   57DOPE    C2 7243   1.096   2.536   3.260 -0.5556  0.4144 -0.4723
   57DOPE    HS 7244   1.063   2.640   3.237 -0.1327  0.2602 -1.8954
   57DOPE   O21 7245   1.194   2.522   3.367  0.3551  0.2030  0.4478
   57DOPE   C21 7246   1.185   2.622   3.456  0.1276  0.1349 -0.1919
   57DOPE   O22 7247   1.108   2.716   3.451  0.0413 -0.3382  0.3509
   57DOPE   C22 7248   1.305   2.608   3.550  0.5316 -0.1677 -0.6573
   57DOPE   H2R 7249   1.394   2.607   3.484  0.3216 -0.5307 -0.9362
   57DOPE   H2S 7250   1.297   2.506   3.595 -0.2245 -0.2117 -0.8773
   57DOPE    C3 7251   0.970   2.448   3.292 -0.2178 -1.0203  0.3759
   57DOPE    HX 7252   1.008   2.344   3.303 -1.4496 -1.4635  0.6556
   57DOPE    HY 7253   0.914   2.442   3.196  0.3242  0.6184 -0.0661
   57DOPE   O31 7254   0.897   2.499   3.406  0.3690  0.2364 -0.5288
   57DOPE   C31 7255   0.819   2.606   3.384  0.0604  0.1992  0.1225
   57DOPE   O32 7256   0.813   2.663   3.278  0.0006 -0.2661  0.0006
   57DOPE   C32 7257   0.753   2.647   3.519  0.3241 -0.1231  0.5227
   57DOPE   H2X 7258   0.763   2.559   3.586  1.2961 -0.5089 -0.1069
   57DOPE   H2Y 7259   0.830   2.720   3.552  0.8397  0.6181 -2.0816
   57DOPE   C23 7260   1.317   2.717   3.659  0.4852  0.4691  0.5045
   57DOPE   H3R 7261   1.298   2.816   3.613 -2.1420 -0.0736  0.2523
   57DOPE   H3S 7262   1.421   2.719   3.696  0.1618 -1.7673  1.6957
   57DOPE   C24 7263   1.240   2.695   3.789  0.1531 -0.2265  0.3021
   57DOPE   H4R 7264   1.258   2.593   3.828 -0.6855 -0.8903 -0.9908
   57DOPE   H4S 7265   1.131   2.688   3.767 -0.1256  0.7852  1.2648
   57DOPE   C25 7266   1.264   2.789   3.903 -0.2839 -0.1429 -0.5543
   57DOPE   H5R 7267   1.202   2.755   3.988  0.1115 -3.0274 -1.3092
   57DOPE   H5S 7268   1.229   2.892   3.876  1.6392  0.5108 -0.6851
   57DOPE   C26 7269   1.412   2.794   3.944  0.3432 -0.5684  0.0532
   57DOPE   H6R 7270   1.460   2.861   3.869 -0.2684 -0.8654 -0.6211
   57DOPE   H6S 7271   1.471   2.700   3.951 -0.4397 -1.0982 -0.2377
   57DOPE   C27 7272   1.416   2.872   4.081 -0.6310 -0.3344  0.0110
   57DOPE   H7R 7273   1.351   2.962   4.076  1.7589  1.4041 -2.1295
   57DOPE   H7S 7274   1.522   2.905   4.086 -0.7767  0.1314  0.0800
   57DOPE   C28 7275   1.374   2.786   4.204 -0.2849  0.2781  0.5737
   57DOPE   H8R 7276   1.439   2.697   4.219  0.4444  0.3585 -1.8152
   57DOPE   H8S 7277   1.271   2.747   4.184  0.5058 -0.9165 -1.4869
   57DOPE   C29 7278   1.402   2.858   4.335  0.4262  0.7643 -0.3732
   57DOPE   H9R 7279   1.472   2.942   4.332  2.1144 -0.5829 -0.4503
   57DOPE  C210 7280   1.341   2.819   4.447  0.0215 -0.0390 -0.3523
   57DOPE  H10R 7281   1.370   2.860   4.545 -1.5540 -0.9029  0.5010
   57DOPE  C211 7282   1.242   2.708   4.477 -0.0534  0.3256 -0.5691
   57DOPE  H11R 7283   1.307   2.620   4.497  1.1244  0.9758 -1.3922
   57DOPE  H11S 7284   1.187   2.678   4.385 -0.3423  1.2762 -0.7194
   57DOPE  C212 7285   1.139   2.750   4.581 -0.1682 -0.0984  0.0071
   57DOPE  H12R 7286   1.066   2.668   4.600  1.3658 -0.6330  5.2579
   57DOPE  H12S 7287   1.085   2.842   4.551  1.4514  0.9381  0.1365
   57DOPE  C213 7288   1.202   2.777   4.724  0.1596  0.0813 -0.0118
   57DOPE  H13R 7289   1.233   2.884   4.719 -0.5379  0.3755  1.2860
   57DOPE  H13S 7290   1.290   2.710   4.737  0.8846  0.4759 -2.4596
   57DOPE  C214 7291   1.104   2.750   4.844  0.2094 -0.3231 -0.1176
   57DOPE  H14R 7292   1.150   2.767   4.944 -1.0944 -0.4346  0.5222
   57DOPE  H14S 7293   1.068   2.645   4.848 -1.0921  0.1220  0.4942
   57DOPE  C215 7294   0.987   2.849   4.855 -0.4701  0.5418 -0.8116
   57DOPE  H15R 7295   0.926   2.867   4.764 -0.0149  1.0560 -1.0222
   57DOPE  H15S 7296   1.022   2.954   4.869 -0.9750  0.4959  1.0216
   57DOPE  C216 7297   0.886   2.820   4.969 -0.0206 -0.1145  0.1068
   57DOPE  H16R 7298   0.939   2.764   5.049 -1.6946 -1.6002  0.2093
   57DOPE  H16S 7299   0.805   2.755   4.932 -0.2202  0.8350 -1.1850
   57DOPE  C217 7300   0.816   2.942   5.017 -1.1463  0.4278 -0.1702
   57DOPE  H17R 7301   0.763   2.980   4.928  0.3651  1.1556 -0.7857
   57DOPE  H17S 7302   0.896   3.016   5.036  2.1153 -2.3725 -1.8678
   57DOPE  C218 7303   0.716   2.917   5.132  0.4723 -0.1916  0.0631
   57DOPE  H18R 7304   0.654   3.007   5.153  0.3514 -0.5026  1.1182
   57DOPE  H18S 7305   0.760   2.881   5.227 -0.9877 -2.7545 -0.1408
   57DOPE  H18T 7306   0.641   2.838   5.110 -0.6965  0.3868  1.7162
   57DOPE   C33 7307   0.615   2.707   3.510 -0.4742  0.2201  0.6000
   57DOPE   H3X 7308   0.550   2.626   3.472 -0.4347  0.7263 -0.6148
   57DOPE   H3Y 7309   0.616   2.793   3.439 -3.5598 -1.3264 -1.5152
   57DOPE   C34 7310   0.565   2.755   3.645 -0.3643  0.8637 -1.6845
   57DOPE   H4X 7311   0.555   2.677   3.724  0.2496  1.8787 -0.5702
   57DOPE   H4Y 7312   0.646   2.824   3.676  1.0809 -1.1591 -0.7850
   57DOPE   C35 7313   0.416   2.799   3.632 -0.1059 -0.2901 -1.0509
   57DOPE   H5X 7314   0.343   2.717   3.615 -0.3444 -0.1500 -0.7170
   57DOPE   H5Y 7315   0.411   2.880   3.557 -1.6712 -0.2931 -0.9947
   57DOPE   C36 7316   0.381   2.859   3.768  0.0131 -0.3898  0.0709
   57DOPE   H6X 7317   0.446   2.948   3.782 -0.6175 -0.0046  0.6409
   57DOPE   H6Y 7318   0.401   2.788   3.851  1.5316  1.6818  1.5845
   57DOPE   C37 7319   0.238   2.920   3.786 -0.8167  0.0819  0.0710
   57DOPE   H7X 7320   0.226   3.006   3.717 -0.1788  1.0776  1.1449
   57DOPE   H7Y 7321   0.171   2.833   3.771 -0.6173  0.2198 -1.8071
   57DOPE   C38 7322   0.232   2.984   3.926  0.6830 -0.6748 -0.3517
   57DOPE   H8X 7323   0.142   3.049   3.930 -0.5003 -2.2927  0.5316
   57DOPE   H8Y 7324   0.325   3.041   3.945  1.2430 -1.3763 -0.9420
   57DOPE   C39 7325   0.207   2.878   4.034  0.3404 -0.0617  0.0405
   57DOPE   H9X 7326   0.119   2.816   4.010  0.1503  1.0156 -2.3718
   57DOPE  C310 7327   0.263   2.871   4.155  0.0086  0.5979 -0.2826
   57DOPE  H10X 7328   0.225   2.798   4.227  0.2425  0.7785  0.0280
   57DOPE  C311 7329   0.365   2.969   4.206  0.0750 -0.7366 -0.2316
   57DOPE  H11X 7330   0.428   2.911   4.278  2.5640  2.8931  0.8078
   57DOPE  H11Y 7331   0.441   3.001   4.132  0.8602 -0.4830  0.6511
   57DOPE  C312 7332   0.315   3.098   4.283 -0.4066 -0.6444  0.1877
   57DOPE  H12X 7333   0.274   3.064   4.380 -0.8069  0.4843  0.4334
   57DOPE  H12Y 7334   0.239   3.152   4.221  0.0484  1.2852  1.2306
   57DOPE  C313 7335   0.416   3.212   4.291 -0.2561  0.5864 -0.0977
   57DOPE  H13X 7336   0.496   3.180   4.362  0.7658 -0.3195 -1.6029
   57DOPE  H13Y 7337   0.459   3.240   4.193 -1.9335  1.0962 -0.7173
   57DOPE  C314 7338   0.362   3.347   4.347 -0.1649 -0.5497 -0.1205
   57DOPE  H14X 7339   0.454   3.400   4.379 -0.7256  0.2000  0.2537
   57DOPE  H14Y 7340   0.304   3.332   4.441  1.3297 -2.0004  0.6371
   57DOPE  C315 7341   0.282   3.432   4.242  0.5748  0.0270 -0.5284
   57DOPE  H15X 7342   0.191   3.374   4.213 -0.3971  1.3758 -0.2322
   57DOPE  H15Y 7343   0.342   3.449   4.151  0.3108  0.8865 -0.5467
   57DOPE  C316 7344   0.237   3.563   4.305 -0.1631  1.1392  0.2432
   57DOPE  H16X 7345   0.197   3.541   4.406 -1.9442  0.1518 -0.6337
   57DOPE  H16Y 7346   0.144   3.598   4.255 -0.2608  1.3909  0.5926
   57DOPE  C317 7347   0.342   3.676   4.313 -1.0349  0.4878  0.4660
   57DOPE  H17X 7348   0.302   3.759   4.374 -1.4494  1.0451 -0.5303
   57DOPE  H17Y 7349   0.432   3.632   4.361 -1.2315  1.1521  1.4660
   57DOPE  C318 7350   0.379   3.737   4.174  0.2579  0.1002  0.1947
   57DOPE  H18X 7351   0.439   3.667   4.111  2.3786  1.1631  0.9475
   57DOPE  H18Y 7352   0.287   3.763   4.118  0.3347  0.2154  0.1215
   57DOPE  H18Z 7353   0.430   3.834   4.190 -0.3232  0.6287 -1.0289
   58DOPE     N 7354   5.718   6.483   3.165 -0.2030  0.1184  0.3588
   58DOPE   HN1 7355   5.698   6.397   3.220  1.6935 -0.4528  0.2233
   58DOPE   HN2 7356   5.728   6.554   3.241  0.6078  0.7434 -0.3121
   58DOPE   HN3 7357   5.632   6.509   3.112 -0.2526 -0.7491  0.0054
   58DOPE   C12 7358   5.840   6.465   3.075 -0.1357 -0.2982  0.0101
   58DOPE  H12A 7359   5.833   6.371   3.018  1.2636 -0.8377  0.6758
   58DOPE  H12B 7360   5.930   6.460   3.140  0.7959  2.3724 -0.9284
   58DOPE   C11 7361   5.854   6.595   2.998 -0.1919  0.1416  0.3121
   58DOPE  H11A 7362   5.775   6.602   2.920 -0.7202  0.3336  0.8628
   58DOPE  H11B 7363   5.952   6.579   2.947 -1.1277 -0.0232 -1.5493
   58DOPE     P 7364   5.918   6.842   3.033 -0.0233 -0.2010 -0.0727
   58DOPE   O13 7365   5.818   6.943   3.063 -0.4112 -0.2777  0.1923
   58DOPE   O14 7366   5.957   6.838   2.889  0.6637  0.3415 -0.2811
   58DOPE   O11 7367   6.051   6.864   3.118 -0.1346 -0.2320 -0.2131
   58DOPE   O12 7368   5.861   6.708   3.083  0.3323  0.0171 -0.0384
   58DOPE    C1 7369   6.140   6.752   3.150 -0.0532  0.3801 -0.6776
   58DOPE    HA 7370   6.247   6.780   3.141  0.6313 -2.1105 -0.9515
   58DOPE    HB 7371   6.126   6.675   3.072  1.0436  0.2197 -0.7372
   58DOPE    C2 7372   6.114   6.687   3.290  0.3568  0.0385  0.5243
   58DOPE    HS 7373   6.007   6.657   3.297 -0.0522  1.4155  0.4266
   58DOPE   O21 7374   6.154   6.785   3.393  0.0935 -0.3346 -0.2406
   58DOPE   C21 7375   6.054   6.871   3.434 -0.1305 -0.1898  0.4405
   58DOPE   O22 7376   5.938   6.856   3.396 -0.2777 -0.2320 -0.1682
   58DOPE   C22 7377   6.098   6.966   3.542  0.1417 -0.5250  0.7408
   58DOPE   H2R 7378   6.094   7.067   3.497  4.1737  0.2913  1.7524
   58DOPE   H2S 7379   6.209   6.956   3.543  0.5241  2.5781 -0.0670
   58DOPE    C3 7380   6.191   6.552   3.305  0.3997 -0.3875 -0.1591
   58DOPE    HX 7381   6.298   6.578   3.289 -0.0559  3.0128  1.3149
   58DOPE    HY 7382   6.168   6.479   3.224 -1.6043  0.6801 -0.6193
   58DOPE   O31 7383   6.179   6.497   3.435  0.0920 -0.0329 -0.0440
   58DOPE   C31 7384   6.081   6.407   3.460 -0.1296  0.0651 -0.8981
   58DOPE   O32 7385   5.994   6.372   3.382  0.2584  0.9907 -0.0308
   58DOPE   C32 7386   6.088   6.377   3.610  0.2017  0.3051 -0.6316
   58DOPE   H2X 7387   6.161   6.294   3.625 -0.6024 -0.3769 -0.3995
   58DOPE   H2Y 7388   6.122   6.472   3.656 -1.4296  1.3186 -1.4171
   58DOPE   C23 7389   6.022   6.949   3.674  0.6311 -0.3947 -0.3512
   58DOPE   H3R 7390   5.914   6.977   3.679  0.6284 -0.5509  0.7643
   58DOPE   H3S 7391   6.073   7.028   3.733  0.2860  0.8452 -1.6422
   58DOPE   C24 7392   6.047   6.811   3.740  0.0959  0.1823 -0.7757
   58DOPE   H4R 7393   6.151   6.778   3.722 -0.1747 -0.1605 -1.7556
   58DOPE   H4S 7394   5.975   6.739   3.696  0.7883 -1.0656  0.0705
   58DOPE   C25 7395   6.025   6.807   3.892 -0.5311  0.3980 -1.0161
   58DOPE   H5R 7396   5.918   6.825   3.914  0.1420  0.6520  2.7354
   58DOPE   H5S 7397   6.094   6.888   3.926  0.4908 -0.9841  0.3272
   58DOPE   C26 7398   6.073   6.679   3.954 -0.1596  0.3463 -0.1620
   58DOPE   H6R 7399   6.184   6.687   3.950 -0.0867 -0.7373 -2.6374
   58DOPE   H6S 7400   6.048   6.591   3.890  2.0864 -1.0635  0.7744
   58DOPE   C27 7401   6.006   6.650   4.086 -0.5948 -0.3746  0.4923
   58DOPE   H7R 7402   6.051   6.553   4.118  0.6014 -0.6487 -1.8168
   58DOPE   H7S 7403   5.896   6.643   4.071 -0.2146 -0.0963 -3.2768
   58DOPE   C28 7404   6.052   6.757   4.191  0.2462  0.2510  0.6200
   58DOPE   H8R 7405   6.013   6.853   4.153 -1.6120 -0.5589  0.3648
   58DOPE   H8S 7406   6.162   6.750   4.182  0.2509  1.3577 -0.3619
   58DOPE   C29 7407   6.008   6.716   4.328 -0.5784  0.5447  0.3430
   58DOPE   H9R 7408   5.906   6.674   4.335 -1.0414  1.6738  0.6994
   58DOPE  C210 7409   6.075   6.733   4.442 -0.5451 -0.8733  0.4232
   58DOPE  H10R 7410   6.038   6.694   4.537  1.4322 -0.9887  1.1959
   58DOPE  C211 7411   6.210   6.798   4.459 -0.3508 -0.0957  0.1206
   58DOPE  H11R 7412   6.210   6.874   4.541  3.1539 -0.7793  0.9426
   58DOPE  H11S 7413   6.240   6.853   4.367 -1.5488 -1.3232 -1.0493
   58DOPE  C212 7414   6.310   6.686   4.491 -0.2928  0.5868 -0.4205
   58DOPE  H12R 7415   6.413   6.722   4.469  0.8472 -1.7862  0.6767
   58DOPE  H12S 7416   6.309   6.609   4.410  0.6139  0.6259 -0.4851
   58DOPE  C213 7417   6.295   6.620   4.628 -0.0166  0.6403 -0.1477
   58DOPE  H13R 7418   6.343   6.520   4.636 -0.4099  0.6114  3.3190
   58DOPE  H13S 7419   6.191   6.592   4.652 -0.0805  1.7544  1.0054
   58DOPE  C214 7420   6.329   6.722   4.736 -0.8541  0.1530 -0.5565
   58DOPE  H14R 7421   6.303   6.827   4.710 -2.6068  0.0676  0.7037
   58DOPE  H14S 7422   6.439   6.733   4.750 -0.7436 -0.4991 -0.9006
   58DOPE  C215 7423   6.265   6.693   4.868 -0.1620  0.1300 -0.1431
   58DOPE  H15R 7424   6.321   6.611   4.918 -0.0884 -0.6138 -1.3937
   58DOPE  H15S 7425   6.159   6.662   4.852 -0.4792  1.8047 -1.6842
   58DOPE  C216 7426   6.284   6.803   4.972  0.4580  0.4560 -0.0467
   58DOPE  H16R 7427   6.201   6.876   4.972 -0.0786 -0.1004 -1.8062
   58DOPE  H16S 7428   6.375   6.856   4.934 -0.2647  1.1182 -0.9075
   58DOPE  C217 7429   6.315   6.748   5.110 -0.7613 -0.2289 -0.3960
   58DOPE  H17R 7430   6.375   6.655   5.100  0.6577  0.5298  0.5962
   58DOPE  H17S 7431   6.218   6.729   5.159 -0.3022 -0.3401  0.4960
   58DOPE  C218 7432   6.401   6.835   5.200  0.5960  0.2253  0.4563
   58DOPE  H18R 7433   6.398   6.797   5.305  0.9115 -0.4203  0.2348
   58DOPE  H18S 7434   6.363   6.938   5.180  0.8861 -0.1161 -2.1282
   58DOPE  H18T 7435   6.504   6.833   5.158  1.0567 -0.6593  1.5771
   58DOPE   C33 7436   5.946   6.346   3.669  0.0651 -0.0760  0.3975
   58DOPE   H3X 7437   5.949   6.301   3.770 -2.3480  1.8332  1.4613
   58DOPE   H3Y 7438   5.895   6.280   3.595 -0.4982  1.0045 -0.2182
   58DOPE   C34 7439   5.847   6.466   3.685 -0.0510 -0.0662 -0.0898
   58DOPE   H4X 7440   5.902   6.558   3.714 -1.1819  0.2501  1.1630
   58DOPE   H4Y 7441   5.799   6.490   3.588 -2.4933 -1.7277  0.6192
   58DOPE   C35 7442   5.732   6.448   3.795  0.2650  0.3152  0.0726
   58DOPE   H5X 7443   5.780   6.401   3.883  5.6365  3.2123 -0.9048
   58DOPE   H5Y 7444   5.642   6.387   3.768  0.9575 -0.6731 -0.0495
   58DOPE   C36 7445   5.659   6.578   3.835  0.3851  0.1111  0.5734
   58DOPE   H6X 7446   5.729   6.655   3.873 -0.9074  1.4055  0.3941
   58DOPE   H6Y 7447   5.597   6.570   3.927 -1.0500  2.2231 -0.1425
   58DOPE   C37 7448   5.567   6.630   3.726  0.5003 -0.2020  0.0371
   58DOPE   H7X 7449   5.628   6.650   3.636 -0.2289  1.5534 -0.1009
   58DOPE   H7Y 7450   5.484   6.561   3.700  0.7402 -0.6688  0.4907
   58DOPE   C38 7451   5.503   6.767   3.767 -0.1123  0.5368 -0.7367
   58DOPE   H8X 7452   5.572   6.847   3.736  0.2778  0.0734 -1.0708
   58DOPE   H8Y 7453   5.500   6.764   3.878 -1.7784 -3.0035 -0.7164
   58DOPE   C39 7454   5.361   6.792   3.720  1.0507  0.7692  0.3782
   58DOPE   H9X 7455   5.345   6.776   3.612  2.4579 -3.3889  0.5877
   58DOPE  C310 7456   5.261   6.837   3.797  0.2552  0.2946 -0.4851
   58DOPE  H10X 7457   5.168   6.877   3.752  0.9398  0.4071 -1.8586
   58DOPE  C311 7458   5.279   6.864   3.941 -0.2111 -0.3062 -0.0781
   58DOPE  H11X 7459   5.287   6.763   3.986  0.9860 -0.3863 -0.4605
   58DOPE  H11Y 7460   5.378   6.910   3.963 -0.3799 -0.3511  0.8005
   58DOPE  C312 7461   5.162   6.943   4.004 -0.0372  0.3846 -0.3297
   58DOPE  H12X 7462   5.195   6.960   4.109  2.3666 -1.3847 -0.6896
   58DOPE  H12Y 7463   5.071   6.879   4.010  0.8528 -0.8568  0.6170
   58DOPE  C313 7464   5.126   7.081   3.938 -0.3029  0.7364 -0.1395
   58DOPE  H13X 7465   5.217   7.119   3.887 -1.0684 -0.1448 -2.2784
   58DOPE  H13Y 7466   5.055   7.060   3.856  0.0124 -1.0269 -0.0093
   58DOPE  C314 7467   5.091   7.198   4.036  0.3240  0.1472 -0.6200
   58DOPE  H14X 7468   5.045   7.272   3.967  0.6063  0.0764 -0.8885
   58DOPE  H14Y 7469   5.185   7.239   4.078 -1.0906  0.8946  2.0285
   58DOPE  C315 7470   4.984   7.158   4.137 -0.3205 -0.2376 -0.3921
   58DOPE  H15X 7471   5.024   7.076   4.201  2.8548  1.9763  0.7291
   58DOPE  H15Y 7472   4.891   7.117   4.092 -2.1626 -1.0750  3.7495
   58DOPE  C316 7473   4.950   7.276   4.222 -0.2843 -0.6791  0.0054
   58DOPE  H16X 7474   4.925   7.355   4.148  1.3070 -0.4578 -0.3344
   58DOPE  H16Y 7475   5.036   7.312   4.282 -0.5789 -2.7761  1.7962
   58DOPE  C317 7476   4.834   7.257   4.311  0.1842 -0.1787  0.0344
   58DOPE  H17X 7477   4.795   7.354   4.348 -0.0732 -0.3378  0.1871
   58DOPE  H17Y 7478   4.746   7.216   4.257 -0.5808  0.4716  0.7612
   58DOPE  C318 7479   4.867   7.164   4.434  0.4404 -0.1712  0.1178
   58DOPE  H18X 7480   4.771   7.164   4.489  0.6190  2.6674  0.5954
   58DOPE  H18Y 7481   4.908   7.067   4.399  0.1731 -0.6623  1.1364
   58DOPE  H18Z 7482   4.949   7.202   4.498 -0.4673 -0.3325  1.4123
   59DOPE     N 7483   0.284   0.792   2.713 -0.5552 -0.3213  0.1651
   59DOPE   HN1 7484   0.334   0.708   2.748  0.2340 -0.4332 -1.1512
   59DOPE   HN2 7485   0.283   0.857   2.794 -1.4620  0.7932 -0.7203
   59DOPE   HN3 7486   0.191   0.773   2.671 -1.1841  2.5318  0.1107
   59DOPE   C12 7487   0.371   0.844   2.599  0.5370  0.3475  0.7340
   59DOPE  H12A 7488   0.464   0.878   2.649  1.5809  1.8750 -2.0106
   59DOPE  H12B 7489   0.317   0.930   2.553  0.4587  0.7547  1.5774
   59DOPE   C11 7490   0.404   0.737   2.490  0.3617  0.0738  0.0276
   59DOPE  H11A 7491   0.488   0.785   2.435  1.2701 -1.0845  0.3516
   59DOPE  H11B 7492   0.319   0.737   2.419 -0.7804  3.5806  1.1584
   59DOPE     P 7493   0.571   0.547   2.563 -0.1204 -0.3565 -0.3559
   59DOPE   O13 7494   0.642   0.561   2.437  0.0365  0.0571 -0.1002
   59DOPE   O14 7495   0.561   0.415   2.628 -0.0049  0.3039  0.1624
   59DOPE   O11 7496   0.635   0.643   2.670  0.2025 -0.6778 -0.0338
   59DOPE   O12 7497   0.427   0.608   2.548 -0.4230  0.3310 -0.0721
   59DOPE    C1 7498   0.770   0.622   2.720  0.5967 -0.1516 -0.7206
   59DOPE    HA 7499   0.842   0.702   2.694 -0.1778  0.9204  0.3152
   59DOPE    HB 7500   0.822   0.532   2.682  0.5829 -0.1935 -0.6384
   59DOPE    C2 7501   0.755   0.621   2.871 -0.0591 -0.2362 -0.0583
   59DOPE    HS 7502   0.698   0.712   2.899 -0.5307 -0.0454 -1.5857
   59DOPE   O21 7503   0.889   0.629   2.922 -0.8389  0.1338  0.4313
   59DOPE   C21 7504   0.906   0.708   3.031  0.2490  1.6582 -0.0710
   59DOPE   O22 7505   0.829   0.793   3.071  0.2221  0.1341 -0.1811
   59DOPE   C22 7506   1.050   0.685   3.091 -0.7528 -0.3853  0.2353
   59DOPE   H2R 7507   1.120   0.707   3.008 -0.2870 -1.6015  0.2858
   59DOPE   H2S 7508   1.054   0.580   3.126 -1.3813 -0.8200 -0.9303
   59DOPE    C3 7509   0.689   0.490   2.916 -0.4532 -0.6684  0.1880
   59DOPE    HX 7510   0.738   0.410   2.857 -1.1118  0.7049 -2.3861
   59DOPE    HY 7511   0.583   0.500   2.883 -0.3790  0.5659  0.2710
   59DOPE   O31 7512   0.714   0.470   3.059 -0.4885 -0.0163  0.4842
   59DOPE   C31 7513   0.619   0.493   3.142  0.3316 -0.1640 -0.6398
   59DOPE   O32 7514   0.514   0.549   3.108 -0.0464  0.4775 -0.5633
   59DOPE   C32 7515   0.662   0.449   3.289  0.8404  0.0370 -0.4437
   59DOPE   H2X 7516   0.660   0.338   3.298  0.6489  0.0911  0.1939
   59DOPE   H2Y 7517   0.766   0.485   3.303  0.6696 -0.2131  1.8464
   59DOPE   C23 7518   1.081   0.776   3.216 -0.4119  0.3285  0.3948
   59DOPE   H3R 7519   1.033   0.876   3.203 -1.3362  0.1325  2.0423
   59DOPE   H3S 7520   1.191   0.783   3.222 -0.0638 -0.1497 -3.1484
   59DOPE   C24 7521   1.021   0.715   3.340  0.6985  0.1453  0.5883
   59DOPE   H4R 7522   1.056   0.610   3.339 -0.3910 -0.2588 -1.4178
   59DOPE   H4S 7523   0.910   0.718   3.331  0.7839 -0.6186 -1.3197
   59DOPE   C25 7524   1.062   0.789   3.468 -0.3378 -0.0847  0.7880
   59DOPE   H5R 7525   1.071   0.898   3.447  1.5620 -0.1496  1.0661
   59DOPE   H5S 7526   1.161   0.756   3.506 -0.5033  0.9409  2.1968
   59DOPE   C26 7527   0.969   0.762   3.584  0.0507 -0.2059 -0.2849
   59DOPE   H6R 7528   0.977   0.653   3.604 -1.7476 -0.3817 -0.3371
   59DOPE   H6S 7529   0.862   0.775   3.556  0.2246 -0.7292 -1.2319
   59DOPE   C27 7530   0.998   0.841   3.714 -0.1511  0.3098  0.1916
   59DOPE   H7R 7531   0.956   0.941   3.687 -1.5701 -1.0542 -3.2254
   59DOPE   H7S 7532   1.107   0.844   3.731 -0.0642  1.5844 -0.4500
   59DOPE   C28 7533   0.916   0.787   3.831 -0.2273  0.1507 -0.0658
   59DOPE   H8R 7534   0.809   0.805   3.806 -0.4256  2.2316  1.9585
   59DOPE   H8S 7535   0.931   0.853   3.919  0.4099  1.3004 -1.0072
   59DOPE   C29 7536   0.959   0.647   3.864 -0.2497 -0.3277 -0.2048
   59DOPE   H9R 7537   1.067   0.636   3.884  0.1652  0.6524 -1.7006
   59DOPE  C210 7538   0.885   0.533   3.863 -0.1328 -0.7815 -0.1373
   59DOPE  H10R 7539   0.939   0.448   3.910  1.5342  0.8007  0.9403
   59DOPE  C211 7540   0.740   0.520   3.844  0.0167 -0.2217  0.0271
   59DOPE  H11R 7541   0.685   0.611   3.810 -1.1792 -0.6160  0.8343
   59DOPE  H11S 7542   0.689   0.501   3.941  0.9060  0.1971  0.5893
   59DOPE  C212 7543   0.723   0.417   3.732  0.0586 -0.1670  0.4004
   59DOPE  H12R 7544   0.757   0.468   3.639  1.2985 -0.1601  0.8390
   59DOPE  H12S 7545   0.613   0.405   3.718  0.1224  0.1085 -0.3860
   59DOPE  C213 7546   0.792   0.282   3.747 -0.7120 -0.4371  0.9203
   59DOPE  H13R 7547   0.903   0.292   3.748 -0.8248  1.0494  2.1557
   59DOPE  H13S 7548   0.754   0.224   3.660 -3.1457  0.0924  1.5777
   59DOPE  C214 7549   0.767   0.201   3.871 -0.3040  0.1075 -0.7199
   59DOPE  H14R 7550   0.663   0.162   3.871  0.2748 -1.6635  1.4866
   59DOPE  H14S 7551   0.774   0.276   3.953 -1.4857  0.0852 -0.5884
   59DOPE  C215 7552   0.875   0.088   3.892  0.4213  0.0346 -0.8657
   59DOPE  H15R 7553   0.978   0.128   3.881  0.4736  0.1446 -0.0329
   59DOPE  H15S 7554   0.849   0.009   3.819 -1.8543 -2.4856  2.3733
   59DOPE  C216 7555   0.850   0.006   4.021 -0.5403 -0.4687  0.2613
   59DOPE  H16R 7556   0.766   0.053   4.076  1.3044 -1.4395  4.2127
   59DOPE  H16S 7557   0.932   0.009   4.094 -0.7970  0.2299  0.5259
   59DOPE  C217 7558   0.811  -0.146   3.993  0.7813 -0.0758  0.1418
   59DOPE  H17R 7559   0.726  -0.149   3.922  0.3449  1.2139  0.5895
   59DOPE  H17S 7560   0.784  -0.174   4.097  0.2182  2.3427  0.6883
   59DOPE  C218 7561   0.944  -0.203   3.950 -0.0606 -0.2423 -0.7360
   59DOPE  H18R 7562   0.934  -0.311   3.924  0.2043 -0.2690 -0.7308
   59DOPE  H18S 7563   1.026  -0.197   4.026  1.1162  2.5966 -2.1061
   59DOPE  H18T 7564   0.987  -0.144   3.867 -2.4537  1.9514 -0.5229
   59DOPE   C33 7565   0.578   0.511   3.404  0.5351 -0.2291 -0.2638
   59DOPE   H3X 7566   0.602   0.462   3.501 -0.8602  0.4472  0.4513
   59DOPE   H3Y 7567   0.469   0.491   3.397 -0.3092  2.3032  3.0575
   59DOPE   C34 7568   0.579   0.664   3.420 -0.0415  0.3372  0.0529
   59DOPE   H4X 7569   0.676   0.694   3.465 -0.5462  4.0701 -1.0216
   59DOPE   H4Y 7570   0.556   0.718   3.326 -1.3348  1.6027  1.0570
   59DOPE   C35 7571   0.462   0.719   3.505  0.3045  0.5784  0.0809
   59DOPE   H5X 7572   0.490   0.826   3.515  2.3460  0.2098 -1.2286
   59DOPE   H5Y 7573   0.469   0.688   3.612  1.2823  3.6231  1.0022
   59DOPE   C36 7574   0.310   0.705   3.457  0.4655  0.0927  0.8370
   59DOPE   H6X 7575   0.246   0.677   3.543 -0.6123  1.5659  0.5689
   59DOPE   H6Y 7576   0.313   0.616   3.390  1.2860  1.2415 -0.7314
   59DOPE   C37 7577   0.238   0.819   3.387 -0.1232 -0.5517 -0.3204
   59DOPE   H7X 7578   0.309   0.830   3.303  0.6731 -1.5561  0.2075
   59DOPE   H7Y 7579   0.143   0.787   3.338  2.2999 -3.1580 -3.8146
   59DOPE   C38 7580   0.231   0.939   3.475 -0.7249  0.0412 -0.4764
   59DOPE   H8X 7581   0.330   0.980   3.504 -1.3263  0.5225  1.0383
   59DOPE   H8Y 7582   0.175   0.904   3.565 -1.9268  0.9358 -0.8535
   59DOPE   C39 7583   0.150   1.046   3.414 -0.2039 -0.5403  0.4627
   59DOPE   H9X 7584   0.175   1.065   3.308 -0.1224  0.8314  0.7027
   59DOPE  C310 7585   0.040   1.113   3.465 -0.1575  0.4055  0.0419
   59DOPE  H10X 7586  -0.010   1.192   3.406  0.5962  1.4613  0.7749
   59DOPE  C311 7587  -0.010   1.076   3.601  0.0657 -0.7202  0.2583
   59DOPE  H11X 7588  -0.119   1.097   3.612  0.0420 -1.3246  1.2685
   59DOPE  H11Y 7589   0.003   0.966   3.613  0.7733 -0.6206  0.4236
   59DOPE  C312 7590   0.061   1.137   3.716  0.7445 -0.0155 -0.3635
   59DOPE  H12X 7591   0.054   1.247   3.703  1.1419 -0.1483 -1.8514
   59DOPE  H12Y 7592   0.169   1.109   3.715  1.2354  1.4025  2.5031
   59DOPE  C313 7593   0.004   1.096   3.854  0.2736 -0.3496 -0.1267
   59DOPE  H13X 7594  -0.101   1.131   3.863  0.6466  1.0739 -1.0488
   59DOPE  H13Y 7595   0.006   0.985   3.855  0.2893 -0.3736 -1.5472
   59DOPE  C314 7596   0.088   1.138   3.972 -1.1174 -0.2387 -0.4402
   59DOPE  H14X 7597   0.088   1.249   3.958  0.8050 -0.0817  0.5140
   59DOPE  H14Y 7598   0.192   1.102   3.957 -1.1236 -0.3696 -0.1778
   59DOPE  C315 7599   0.033   1.093   4.109  0.5668 -0.0578  0.5720
   59DOPE  H15X 7600   0.036   0.982   4.108 -1.3082 -0.1585 -0.9455
   59DOPE  H15Y 7601  -0.073   1.129   4.105 -0.2508 -2.4118 -0.8223
   59DOPE  C316 7602   0.100   1.161   4.233  0.0767 -0.0240 -0.2070
   59DOPE  H16X 7603   0.137   1.265   4.221  0.9350 -0.3836 -0.7426
   59DOPE  H16Y 7604   0.191   1.099   4.248  0.5098  1.1732  2.7005
   59DOPE  C317 7605   0.023   1.167   4.359 -0.1812 -0.5939  0.8027
   59DOPE  H17X 7606  -0.060   1.238   4.341  0.7359 -0.0500 -1.5519
   59DOPE  H17Y 7607  -0.024   1.067   4.376  0.2442 -1.3131 -1.8035
   59DOPE  C318 7608   0.117   1.207   4.478  0.1200 -0.1573 -0.4810
   59DOPE  H18X 7609   0.069   1.185   4.576  3.0379 -1.6543  0.7156
   59DOPE  H18Y 7610   0.211   1.149   4.470  0.8228  0.6639  1.3934
   59DOPE  H18Z 7611   0.138   1.316   4.475 -1.4594  0.1728 -0.6195
   60DOPE     N 7612   5.604   4.848   2.290 -0.1582 -0.2519 -0.2972
   60DOPE   HN1 7613   5.605   4.745   2.295 -0.6686 -0.1969  1.8444
   60DOPE   HN2 7614   5.525   4.892   2.342 -0.1720  2.2363 -2.2100
   60DOPE   HN3 7615   5.589   4.867   2.189 -2.6056 -2.3991 -0.4292
   60DOPE   C12 7616   5.734   4.889   2.356 -0.1496 -0.1843  0.5202
   60DOPE  H12A 7617   5.788   4.948   2.279 -0.6089 -0.4898 -0.0387
   60DOPE  H12B 7618   5.793   4.796   2.375 -0.7885 -0.6195  0.4254
   60DOPE   C11 7619   5.700   4.952   2.485  0.2682  0.3522  0.1075
   60DOPE  H11A 7620   5.638   5.039   2.456  0.7570  1.1757  1.4279
   60DOPE  H11B 7621   5.788   4.980   2.547  0.3989 -2.2240  1.2057
   60DOPE     P 7622   5.550   4.925   2.696  0.2231 -0.4579  0.2363
   60DOPE   O13 7623   5.438   4.835   2.733  0.4751 -0.2680 -0.4885
   60DOPE   O14 7624   5.510   5.068   2.658 -0.2501  0.2220 -0.2882
   60DOPE   O11 7625   5.656   4.931   2.822  0.8982 -0.1624  0.2285
   60DOPE   O12 7626   5.622   4.859   2.566 -0.0893 -0.1089  0.0337
   60DOPE    C1 7627   5.732   4.814   2.839  0.6791  0.1696  0.1875
   60DOPE    HA 7628   5.841   4.835   2.844  0.8402 -0.8501  2.1509
   60DOPE    HB 7629   5.704   4.730   2.771 -0.9364  1.4216 -0.7705
   60DOPE    C2 7630   5.705   4.755   2.984 -0.1333  0.4407 -0.6438
   60DOPE    HS 7631   5.599   4.721   2.981  0.5500 -2.0787  0.7158
   60DOPE   O21 7632   5.727   4.864   3.089  0.2230  0.0628  0.0472
   60DOPE   C21 7633   5.640   4.850   3.194 -0.3569  0.4214 -0.2761
   60DOPE   O22 7634   5.574   4.755   3.219  0.1314  0.3913  0.3014
   60DOPE   C22 7635   5.648   4.978   3.288 -0.2361  0.1401  0.1982
   60DOPE   H2R 7636   5.541   5.003   3.302 -0.4836  0.5172 -1.9597
   60DOPE   H2S 7637   5.684   5.059   3.220 -0.2503 -1.8733 -2.3761
   60DOPE    C3 7638   5.791   4.632   3.007  0.7003  0.0172  1.0591
   60DOPE    HX 7639   5.891   4.680   3.015 -0.1661  1.8966  0.9594
   60DOPE    HY 7640   5.797   4.562   2.921  1.7082 -0.3359  1.3939
   60DOPE   O31 7641   5.766   4.561   3.129  0.0801  0.1145  0.0495
   60DOPE   C31 7642   5.673   4.468   3.132  0.4269 -0.8980 -0.2465
   60DOPE   O32 7643   5.614   4.420   3.036  0.2479 -0.0061  0.0089
   60DOPE   C32 7644   5.662   4.431   3.274  0.2340 -0.3205 -0.8930
   60DOPE   H2X 7645   5.748   4.366   3.302  0.3871  0.1937 -0.1353
   60DOPE   H2Y 7646   5.684   4.521   3.336  3.1546 -1.3822 -0.2263
   60DOPE   C23 7647   5.727   4.967   3.421  0.1581 -0.6270  0.0480
   60DOPE   H3R 7648   5.706   4.871   3.473 -1.1231 -0.3406  0.0989
   60DOPE   H3S 7649   5.706   5.055   3.487  0.9005 -2.6312  3.1981
   60DOPE   C24 7650   5.874   4.961   3.376  0.3567 -0.8897  0.2622
   60DOPE   H4R 7651   5.892   5.049   3.310  1.4147  0.8267  2.6884
   60DOPE   H4S 7652   5.908   4.875   3.315  2.0634  0.0138 -0.1182
   60DOPE   C25 7653   5.981   4.984   3.485 -0.7542 -0.1739  0.1394
   60DOPE   H5R 7654   6.001   4.888   3.537  2.6518  1.1219  1.4996
   60DOPE   H5S 7655   5.934   5.055   3.557 -0.6800 -1.8709  1.9331
   60DOPE   C26 7656   6.114   5.050   3.445  0.3238 -0.1113 -0.6307
   60DOPE   H6R 7657   6.101   5.138   3.379  1.0769  0.3590 -0.1733
   60DOPE   H6S 7658   6.173   4.974   3.389  1.8539  0.2136  0.4605
   60DOPE   C27 7659   6.210   5.083   3.554 -0.1528 -0.2130 -0.3475
   60DOPE   H7R 7660   6.313   5.096   3.514 -1.0932 -1.5158 -3.4177
   60DOPE   H7S 7661   6.216   4.993   3.619  1.6721  0.1297  0.0305
   60DOPE   C28 7662   6.172   5.201   3.642  0.0425 -0.5821  0.5308
   60DOPE   H8R 7663   6.256   5.232   3.708  0.1421 -0.1422  0.2048
   60DOPE   H8S 7664   6.096   5.172   3.717  0.8663 -1.3782  1.0901
   60DOPE   C29 7665   6.117   5.320   3.572  0.0184 -0.1036  1.1911
   60DOPE   H9R 7666   6.046   5.294   3.492  0.1057 -0.6725  1.2939
   60DOPE  C210 7667   6.150   5.453   3.582  0.1551  0.3736 -0.3828
   60DOPE  H10R 7668   6.079   5.518   3.529 -0.2009  0.1655 -0.1672
   60DOPE  C211 7669   6.254   5.512   3.669  0.5889 -0.2231  0.6105
   60DOPE  H11R 7670   6.353   5.521   3.620  0.4900  1.3360  0.6255
   60DOPE  H11S 7671   6.261   5.445   3.757 -0.7578  0.0628  0.9509
   60DOPE  C212 7672   6.205   5.651   3.720 -0.4217 -0.2103 -0.6702
   60DOPE  H12R 7673   6.096   5.652   3.737 -0.4050 -1.0362 -0.4463
   60DOPE  H12S 7674   6.225   5.731   3.646 -1.3072  2.4124  1.7418
   60DOPE  C213 7675   6.276   5.677   3.857  0.0371  0.0072  0.2138
   60DOPE  H13R 7676   6.385   5.698   3.856  0.1726 -0.5206  1.8701
   60DOPE  H13S 7677   6.262   5.598   3.934  0.6316  1.4227  1.8326
   60DOPE  C214 7678   6.202   5.803   3.918  0.0916 -0.2391  0.2575
   60DOPE  H14R 7679   6.092   5.792   3.910  0.3677 -2.3274 -1.6791
   60DOPE  H14S 7680   6.230   5.889   3.853 -1.6083 -1.2283 -1.9284
   60DOPE  C215 7681   6.239   5.843   4.065 -0.0729 -0.3558  0.0939
   60DOPE  H15R 7682   6.189   5.938   4.095  1.9510  1.1775 -1.0741
   60DOPE  H15S 7683   6.350   5.841   4.077 -0.2591 -1.7506  2.0819
   60DOPE  C216 7684   6.184   5.739   4.171 -0.2756  0.2465 -0.3128
   60DOPE  H16R 7685   6.240   5.761   4.264 -0.7224  0.4532 -0.0947
   60DOPE  H16S 7686   6.215   5.636   4.141 -0.1490  0.0751  0.3968
   60DOPE  C217 7687   6.032   5.737   4.188  0.0423  0.3195  0.3436
   60DOPE  H17R 7688   5.977   5.705   4.097  0.9368 -0.8776  0.1884
   60DOPE  H17S 7689   6.007   5.844   4.202  2.0042  0.9009 -0.2842
   60DOPE  C218 7690   5.987   5.644   4.298 -0.0767 -0.5985  0.3787
   60DOPE  H18R 7691   5.882   5.613   4.278  1.0512 -2.5893 -3.3421
   60DOPE  H18S 7692   5.988   5.701   4.393 -0.8954 -0.4978  0.3394
   60DOPE  H18T 7693   6.057   5.558   4.305 -0.4117 -1.0856 -1.6687
   60DOPE   C33 7694   5.525   4.367   3.312 -0.0466 -0.1550 -0.7870
   60DOPE   H3X 7695   5.533   4.261   3.280 -1.7633 -0.7851  0.6908
   60DOPE   H3Y 7696   5.443   4.418   3.256 -1.9983 -1.1586  0.9927
   60DOPE   C34 7697   5.502   4.381   3.466  0.5009 -0.1913 -0.1093
   60DOPE   H4X 7698   5.581   4.319   3.512 -0.0564 -1.3527 -0.6655
   60DOPE   H4Y 7699   5.527   4.484   3.498  0.2144 -0.1731  0.0663
   60DOPE   C35 7700   5.367   4.341   3.524 -0.1225  0.3385 -0.5592
   60DOPE   H5X 7701   5.354   4.231   3.512 -1.6124  0.4375 -0.0217
   60DOPE   H5Y 7702   5.294   4.390   3.456  1.3130  2.9739 -0.3305
   60DOPE   C36 7703   5.344   4.380   3.671  0.1011 -0.2122  0.7987
   60DOPE   H6X 7704   5.242   4.344   3.696  0.0773 -0.4221  0.4206
   60DOPE   H6Y 7705   5.345   4.490   3.683 -1.8793 -0.2571  1.8932
   60DOPE   C37 7706   5.447   4.325   3.765 -0.2609 -0.5866 -0.2112
   60DOPE   H7X 7707   5.445   4.214   3.758  0.6124 -0.5662 -0.9664
   60DOPE   H7Y 7708   5.549   4.358   3.737 -0.7956 -0.1677 -1.7897
   60DOPE   C38 7709   5.424   4.357   3.915 -0.1101  0.0617  0.4455
   60DOPE   H8X 7710   5.479   4.289   3.983 -1.8971 -0.0581  1.8060
   60DOPE   H8Y 7711   5.314   4.361   3.927 -0.6930  1.9088 -3.6691
   60DOPE   C39 7712   5.464   4.497   3.935 -1.2731 -0.4345 -0.2599
   60DOPE   H9X 7713   5.475   4.565   3.849 -3.2600  0.3543  0.0402
   60DOPE  C310 7714   5.492   4.552   4.050 -0.2394  0.2865 -0.4115
   60DOPE  H10X 7715   5.523   4.657   4.051 -2.5309  1.0325  1.5816
   60DOPE  C311 7716   5.496   4.490   4.187  0.9582  0.1041 -0.5194
   60DOPE  H11X 7717   5.396   4.502   4.234  0.1203 -1.0923 -1.9062
   60DOPE  H11Y 7718   5.503   4.379   4.178 -2.1728 -0.1249 -1.4809
   60DOPE  C312 7719   5.598   4.558   4.283  0.0088 -0.1842  0.8404
   60DOPE  H12X 7720   5.701   4.546   4.242  0.0535 -1.8003  1.3452
   60DOPE  H12Y 7721   5.588   4.496   4.375 -1.8213  0.1775  0.9262
   60DOPE  C313 7722   5.566   4.704   4.306  0.4101 -0.4113 -0.4455
   60DOPE  H13X 7723   5.569   4.772   4.219 -1.0519  1.1321  0.6508
   60DOPE  H13Y 7724   5.464   4.710   4.349  0.6150  0.4986 -0.0693
   60DOPE  C314 7725   5.661   4.770   4.409  0.1356 -0.2934 -0.0926
   60DOPE  H14X 7726   5.649   4.878   4.387  3.1196 -0.1136 -1.2267
   60DOPE  H14Y 7727   5.764   4.738   4.385 -0.4126 -2.3264  0.0613
   60DOPE  C315 7728   5.615   4.764   4.555 -0.2563 -0.1103  0.2981
   60DOPE  H15X 7729   5.634   4.657   4.581  2.0959  0.1311 -0.1669
   60DOPE  H15Y 7730   5.507   4.786   4.561 -0.6978 -2.1024  0.6313
   60DOPE  C316 7731   5.692   4.866   4.645  0.1762  0.4353  0.3135
   60DOPE  H16X 7732   5.707   4.960   4.587  2.2255  1.3482  2.1620
   60DOPE  H16Y 7733   5.794   4.837   4.677  0.3165  0.8194  0.2257
   60DOPE  C317 7734   5.611   4.923   4.764 -0.1246  0.0218 -0.7442
   60DOPE  H17X 7735   5.678   4.996   4.814  0.2869 -0.3173 -0.7964
   60DOPE  H17Y 7736   5.517   4.971   4.730 -2.5535 -0.8186  3.9264
   60DOPE  C318 7737   5.574   4.827   4.877  0.1321  0.3354  0.5366
   60DOPE  H18X 7738   5.546   4.882   4.970  1.2253  1.7833  0.0275
   60DOPE  H18Y 7739   5.499   4.753   4.841  1.2170 -1.2681  1.4533
   60DOPE  H18Z 7740   5.664   4.764   4.892  0.0710 -0.1363 -0.9206
   6123SM     N 7741   3.262   3.899   6.921  0.3591 -0.6857 -0.0043
   6123SM   C15 7742   3.160   3.967   7.016 -0.7405  0.5079 -0.3709
   6123SM  H15A 7743   3.183   3.914   7.107  2.0611  1.6809 -0.2990
   6123SM  H15B 7744   3.058   3.941   6.992 -0.8521  1.8617 -1.5288
   6123SM  H15C 7745   3.173   4.074   7.010 -0.3591  0.4478 -0.6890
   6123SM   C14 7746   3.244   3.957   6.782 -0.0261 -0.5105 -0.3137
   6123SM  H14A 7747   3.140   3.933   6.760 -0.0170 -1.6610  0.7979
   6123SM  H14B 7748   3.307   3.908   6.709  1.2905 -0.8624  1.0259
   6123SM  H14C 7749   3.259   4.063   6.791 -0.2296 -0.6620  2.9161
   6123SM   C13 7750   3.393   3.937   6.975  0.1893 -0.1579  0.4118
   6123SM  H13A 7751   3.406   3.914   7.079  0.8627  1.2091  0.6563
   6123SM  H13B 7752   3.406   4.044   6.981  2.8467 -0.3104 -1.0678
   6123SM  H13C 7753   3.476   3.906   6.914  0.0130  1.4912 -0.7545
   6123SM   C12 7754   3.243   3.748   6.920  0.8516  0.4311  0.4768
   6123SM  H12A 7755   3.318   3.699   6.860  0.7787 -0.2047  0.8957
   6123SM  H12B 7756   3.144   3.735   6.880 -0.1393  0.8848  2.6469
   6123SM   C11 7757   3.248   3.674   7.055 -0.1144  0.6150 -0.1881
   6123SM  H11A 7758   3.343   3.694   7.108 -0.4408 -1.9066  1.5272
   6123SM  H11B 7759   3.247   3.564   7.037 -0.9681  0.2910  1.6108
   6123SM     P 7760   3.008   3.615   7.131 -0.0428 -0.0369 -0.3564
   6123SM   O13 7761   3.026   3.529   7.252  0.3168 -0.0827 -0.4970
   6123SM   O14 7762   2.882   3.695   7.129 -0.4721 -0.3747  0.7131
   6123SM   O11 7763   3.027   3.531   6.999 -0.2059 -0.5276 -0.5121
   6123SM   O12 7764   3.130   3.713   7.132  0.6818  0.2277  0.3089
   6123SM   C1S 7765   2.920   3.451   6.949 -0.2692  0.6058 -0.2982
   6123SM   H1S 7766   2.817   3.493   6.950 -0.8693 -0.8470  0.3659
   6123SM   H1T 7767   2.925   3.358   7.009  1.9455  1.6831  1.3475
   6123SM    NF 7768   2.828   3.334   6.754  0.3027  0.2506 -0.5637
   6123SM   HNF 7769   2.834   3.235   6.765  0.6538  0.4093  0.9026
   6123SM   C2S 7770   2.943   3.413   6.797 -0.2773  0.2058 -0.7777
   6123SM   H2S 7771   2.955   3.508   6.740  2.0659  1.6497  1.9238
   6123SM   C3S 7772   3.078   3.341   6.788 -0.1691  0.2650 -0.1824
   6123SM   H3S 7773   3.070   3.259   6.862  0.4339  1.6472  1.4505
   6123SM    O3 7774   3.185   3.409   6.838 -0.1061 -0.0450 -0.4753
   6123SM   HO3 7775   3.150   3.472   6.902 -0.3457 -0.0682 -0.5837
   6123SM   C4S 7776   3.103   3.301   6.642 -0.1602 -0.1887  0.5133
   6123SM   H4S 7777   3.078   3.197   6.617 -4.3735  1.2920 -2.4793
   6123SM   C5S 7778   3.135   3.382   6.539 -0.0634 -1.2125 -0.1087
   6123SM   H5S 7779   3.131   3.488   6.570 -0.1800 -1.7075  1.6293
   6123SM   C6S 7780   3.158   3.342   6.395 -0.9568 -0.2127 -0.2396
   6123SM   H6S 7781   3.157   3.231   6.394  1.3152 -0.2852 -0.6111
   6123SM   H6T 7782   3.261   3.366   6.362 -1.8964  2.2245 -1.7108
   6123SM   C7S 7783   3.060   3.415   6.302 -0.3744 -0.1199 -0.3639
   6123SM   H7S 7784   3.069   3.524   6.320  0.6174 -0.7403  4.0476
   6123SM   H7T 7785   2.960   3.372   6.324  0.0360 -1.2052 -0.5579
   6123SM   C8S 7786   3.088   3.378   6.155 -0.6987 -0.2277  0.3939
   6123SM   H8S 7787   3.007   3.424   6.093 -0.1439 -2.3241 -2.0475
   6123SM   H8T 7788   3.073   3.269   6.148 -0.2368 -0.3443  1.1340
   6123SM   C9S 7789   3.228   3.427   6.108  0.2648  0.3743  0.4858
   6123SM   H9S 7790   3.305   3.376   6.170  0.1932 -0.4718 -0.1090
   6123SM   H9T 7791   3.229   3.537   6.124 -0.6244  0.7179 -1.4911
   6123SM  C10S 7792   3.252   3.374   5.966 -0.2402 -0.2706  0.4507
   6123SM  H10S 7793   3.156   3.388   5.912  0.6953 -1.9866 -1.7631
   6123SM  H10T 7794   3.289   3.271   5.951  2.8372  0.6221  1.1392
   6123SM  C11S 7795   3.361   3.444   5.890 -0.2112  0.2626 -0.0842
   6123SM  H11S 7796   3.456   3.440   5.947 -0.9791 -0.8529  1.1621
   6123SM  H11T 7797   3.345   3.553   5.873  3.3580  1.2886  2.0980
   6123SM  C12S 7798   3.389   3.376   5.750  0.1953  1.3795  0.7528
   6123SM  H12S 7799   3.292   3.344   5.707  2.5458 -2.1000 -2.6301
   6123SM  H12T 7800   3.457   3.288   5.754 -2.7512 -1.3209 -2.1541
   6123SM  C13S 7801   3.436   3.470   5.644  0.2087  0.3750  0.6705
   6123SM  H13S 7802   3.534   3.499   5.688  0.3005  0.9165  0.1194
   6123SM  H13T 7803   3.380   3.565   5.645 -1.3911 -0.5251  1.0110
   6123SM  C14S 7804   3.457   3.414   5.507  0.2324  0.5760  0.0278
   6123SM  H14S 7805   3.370   3.349   5.485 -0.2885  0.2298  2.8207
   6123SM  H14T 7806   3.547   3.348   5.504  0.0121  0.2761 -0.0353
   6123SM  C15S 7807   3.467   3.513   5.393 -0.2100  0.0013  0.6996
   6123SM  H15S 7808   3.572   3.549   5.390  0.2677 -1.3810  0.1039
   6123SM  H15T 7809   3.398   3.597   5.417  0.8240  0.6952  1.3044
   6123SM  C16S 7810   3.432   3.447   5.256 -0.2231  0.1505  0.5867
   6123SM  H16S 7811   3.324   3.428   5.244  0.4049 -2.9499 -1.5270
   6123SM  H16T 7812   3.483   3.347   5.256  0.7763  0.5887 -1.6528
   6123SM  C17S 7813   3.470   3.516   5.123  0.2928 -0.2559 -0.2781
   6123SM  H17S 7814   3.581   3.509   5.115  0.2447 -1.8232  0.1068
   6123SM  H17T 7815   3.429   3.619   5.134  0.9858 -0.2148  3.0276
   6123SM  C18S 7816   3.418   3.446   5.000  0.1917  0.4670  0.3637
   6123SM  H18S 7817   3.470   3.348   4.991 -0.7958  0.0315 -0.8929
   6123SM  H18T 7818   3.437   3.517   4.917  0.1030  1.7767  1.4215
   6123SM  H18U 7819   3.308   3.431   5.000  0.0528  1.4143  0.3911
   6123SM   C1F 7820   2.715   3.382   6.708 -0.3965  0.5246 -0.6783
   6123SM    OF 7821   2.693   3.500   6.711 -0.2928 -0.5523 -0.3583
   6123SM   C2F 7822   2.619   3.283   6.668 -0.2914 -0.0284 -0.2937
   6123SM   H2F 7823   2.563   3.253   6.758 -2.0288  0.7255 -1.0796
   6123SM   H2G 7824   2.678   3.197   6.631 -1.5559 -1.3527  0.6702
   6123SM   C3F 7825   2.520   3.338   6.557 -0.7976 -0.4131  0.6378
   6123SM   H3F 7826   2.461   3.425   6.593  0.4464  1.0631 -0.7391
   6123SM   H3G 7827   2.448   3.255   6.541  0.8440 -1.9329  0.8768
   6123SM   C4F 7828   2.593   3.371   6.422 -0.2504 -0.2118  0.0683
   6123SM   H4F 7829   2.656   3.285   6.392 -1.3819 -0.6348 -1.2152
   6123SM   H4G 7830   2.653   3.464   6.433 -0.1763 -0.1234 -0.9381
   6123SM   C5F 7831   2.491   3.407   6.310 -0.0447  0.2016 -0.6943
   6123SM   H5F 7832   2.415   3.476   6.353 -1.6520 -2.5014  1.1623
   6123SM   H5G 7833   2.439   3.310   6.294 -1.7021  0.6816  1.3576
   6123SM   C6F 7834   2.554   3.445   6.175 -0.5040  0.2799  0.1049
   6123SM   H6F 7835   2.604   3.543   6.191 -1.3988  0.5185  1.7045
   6123SM   H6G 7836   2.468   3.458   6.107 -1.7054 -1.6746  1.1574
   6123SM   C7F 7837   2.659   3.348   6.114 -0.0428  0.4649 -0.6699
   6123SM   H7F 7838   2.621   3.244   6.114  0.4724  0.2669 -1.5480
   6123SM   H7G 7839   2.742   3.347   6.186 -1.1242 -1.5099  0.6269
   6123SM   C8F 7840   2.707   3.386   5.972  0.1672 -0.4361 -0.0264
   6123SM   H8F 7841   2.795   3.329   5.934  0.0164 -0.8879  0.2949
   6123SM   H8G 7842   2.742   3.491   5.964 -0.0042 -0.3433  0.4204
   6123SM   C9F 7843   2.592   3.373   5.859  0.1811 -0.2417 -0.3857
   6123SM   H9F 7844   2.523   3.458   5.875  1.6031  0.7352  0.8405
   6123SM   H9G 7845   2.535   3.280   5.877  1.8963 -1.2139  0.3030
   6123SM  C10F 7846   2.652   3.375   5.727  0.8165 -0.5266 -0.3449
   6123SM  H10F 7847   2.749   3.320   5.728 -0.2878 -2.6151 -1.2363
   6123SM  H10G 7848   2.679   3.481   5.706  0.3996 -0.7654 -2.3002
   6123SM  C11F 7849   2.558   3.334   5.612 -0.0943 -0.0980 -0.6832
   6123SM  H11F 7850   2.472   3.404   5.610  0.7622  1.1432  1.6137
   6123SM  H11G 7851   2.522   3.232   5.640  1.7708 -0.9910 -1.3266
   6123SM  C12F 7852   2.632   3.339   5.484 -0.1919  0.4869  0.2251
   6123SM  H12F 7853   2.732   3.294   5.502 -0.7572 -0.8823  0.0783
   6123SM  H12G 7854   2.658   3.446   5.469  0.9639 -0.0046 -1.6772
   6123SM  C13F 7855   2.554   3.276   5.372 -0.7138  0.6111 -0.0638
   6123SM  H13F 7856   2.630   3.286   5.292 -3.1207 -0.6146 -2.7087
   6123SM  H13G 7857   2.464   3.340   5.355 -0.1886  1.2859 -0.3340
   6123SM  C14F 7858   2.518   3.123   5.380  0.3570  0.0157  0.1319
   6123SM  H14F 7859   2.471   3.095   5.283  2.4156  2.6735 -1.8135
   6123SM  H14G 7860   2.450   3.101   5.465  1.1760  0.6622  0.9783
   6123SM  C15F 7861   2.650   3.033   5.386 -0.4005 -0.3219 -1.0908
   6123SM  H15F 7862   2.700   3.080   5.473 -0.4512 -0.7253 -0.8435
   6123SM  H15G 7863   2.721   3.044   5.301 -0.5266 -0.3765 -1.2052
   6123SM  C16F 7864   2.618   2.889   5.415 -0.0168 -0.3387 -0.2381
   6123SM  H16F 7865   2.713   2.847   5.454  0.3357  2.2859  2.0453
   6123SM  H16G 7866   2.597   2.840   5.317 -0.4920  0.4936 -0.5603
   6123SM  C17F 7867   2.528   2.849   5.533  0.8247  0.7144  0.0325
   6123SM  H17F 7868   2.522   2.739   5.517  1.1476  0.4423  1.5792
   6123SM  H17G 7869   2.427   2.893   5.519  0.6470  0.5018  0.6121
   6123SM  C18F 7870   2.564   2.912   5.674 -0.5161  0.4386  0.4864
   6123SM  H18F 7871   2.576   3.021   5.659 -0.0359  0.0537 -2.6066
   6123SM  H18G 7872   2.656   2.859   5.707 -0.5503 -2.1096 -2.9285
   6123SM  C19F 7873   2.447   2.872   5.761 -0.6951 -0.4166  0.2295
   6123SM  H19F 7874   2.423   2.763   5.757 -1.4437 -0.2941  0.9975
   6123SM  H19G 7875   2.358   2.927   5.724  1.5433  2.0440 -1.8698
   6123SM  C20F 7876   2.458   2.924   5.905 -0.4805 -0.5946  0.3428
   6123SM  H20F 7877   2.472   3.032   5.925 -2.0370 -0.6753  2.2082
   6123SM  H20G 7878   2.550   2.879   5.950  0.1207  1.4619  1.3171
   6123SM  C21F 7879   2.331   2.883   5.988 -0.0754  0.6142 -0.1669
   6123SM  H21F 7880   2.295   2.781   5.959  0.8208 -0.3823  2.0396
   6123SM  H21G 7881   2.245   2.947   5.960 -1.1011 -0.7175 -0.1794
   6123SM  C22F 7882   2.351   2.885   6.142 -0.2239 -0.2649  0.3774
   6123SM  H22F 7883   2.395   2.785   6.166 -2.3767 -1.5336 -0.7320
   6123SM  H22G 7884   2.252   2.893   6.192  0.0117 -0.2007  0.8400
   6123SM  C23F 7885   2.431   3.000   6.195 -0.1880 -0.0589  0.1739
   6123SM  H23F 7886   2.428   3.004   6.306 -1.2271  3.9074  0.1293
   6123SM  H23G 7887   2.404   3.103   6.165  2.3880  0.5446 -0.3256
   6123SM  H23H 7888   2.539   2.996   6.168  0.2097 -0.3700  1.7012
   6223SM     N 7889   3.075   3.219   7.414 -0.2511  0.1151  0.1305
   6223SM   C15 7890   3.146   3.105   7.480  0.0040  0.5844  0.2959
   6223SM  H15A 7891   3.097   3.019   7.437  0.1732  1.0123 -0.7750
   6223SM  H15B 7892   3.138   3.098   7.587 -0.3283 -2.0454  0.1760
   6223SM  H15C 7893   3.252   3.097   7.460 -0.0942 -1.6560  0.4052
   6223SM   C14 7894   2.929   3.202   7.433 -0.1874 -0.0098 -0.1623
   6223SM  H14A 7895   2.884   3.125   7.372 -0.0703  0.4431 -0.8294
   6223SM  H14B 7896   2.879   3.297   7.416  2.1893  1.0691 -1.4584
   6223SM  H14C 7897   2.914   3.180   7.538  0.9719 -1.0111 -0.1894
   6223SM   C13 7898   3.099   3.334   7.500  0.1443 -0.3066  0.2266
   6223SM  H13A 7899   3.201   3.369   7.486  0.1998 -1.0357 -1.4126
   6223SM  H13B 7900   3.093   3.316   7.606 -1.1596  1.3990  0.4774
   6223SM  H13C 7901   3.041   3.419   7.468  1.6333  0.3823 -0.7399
   6223SM   C12 7902   3.110   3.239   7.267 -0.0976 -0.5370  0.8672
   6223SM  H12A 7903   3.217   3.236   7.251 -0.3464 -1.1146 -0.9536
   6223SM  H12B 7904   3.068   3.328   7.223  0.8064 -0.3314  0.4057
   6223SM   C11 7905   3.059   3.132   7.163 -0.4980  0.2900 -0.5801
   6223SM  H11A 7906   3.078   3.180   7.064  0.7437  1.7215  0.3199
   6223SM  H11B 7907   2.952   3.104   7.173 -0.2433 -0.3967  0.3998
   6223SM     P 7908   3.263   2.957   7.105  0.0226 -0.2090  0.6469
   6223SM   O13 7909   3.377   3.042   7.133  0.1385  0.1360  0.7033
   6223SM   O14 7910   3.277   2.815   7.151  0.4323 -0.9637  0.7615
   6223SM   O11 7911   3.215   2.959   6.959 -0.0822 -0.5817  0.0733
   6223SM   O12 7912   3.131   3.013   7.171 -0.1128  0.1122 -0.4425
   6223SM   C1S 7913   3.094   2.905   6.907  0.2503  0.1016  0.8349
   6223SM   H1S 7914   3.013   2.975   6.936 -0.2857 -1.1032  2.4179
   6223SM   H1T 7915   3.056   2.809   6.948 -3.3381  0.4331 -1.3077
   6223SM    NF 7916   2.969   2.858   6.703  0.3914  0.2805  0.1475
   6223SM   HNF 7917   2.956   2.766   6.667 -0.6656  0.6286 -0.3989
   6223SM   C2S 7918   3.099   2.886   6.752  0.3535 -0.7273  0.4169
   6223SM   H2S 7919   3.125   2.990   6.723  0.8390 -0.4563  1.7482
   6223SM   C3S 7920   3.203   2.774   6.716 -0.3930 -0.1794 -0.7597
   6223SM   H3S 7921   3.170   2.677   6.758  0.7606 -0.1159  0.3450
   6223SM    O3 7922   3.327   2.807   6.781  0.0198  0.1975  0.0983
   6223SM   HO3 7923   3.299   2.863   6.854  1.4646 -1.2236  1.8476
   6223SM   C4S 7924   3.219   2.764   6.569  0.0535 -0.0913 -0.7937
   6223SM   H4S 7925   3.273   2.851   6.530 -0.8686  0.9356  0.1452
   6223SM   C5S 7926   3.171   2.663   6.492 -0.1731  0.6893  0.1524
   6223SM   H5S 7927   3.114   2.580   6.538 -0.8456  1.7124  1.2138
   6223SM   C6S 7928   3.190   2.665   6.341 -0.1018  0.5224 -0.0176
   6223SM   H6S 7929   3.094   2.624   6.304 -0.0542 -0.6405  1.0696
   6223SM   H6T 7930   3.267   2.591   6.312 -0.5869  0.0542 -0.1250
   6223SM   C7S 7931   3.217   2.798   6.281  0.4325 -0.5193 -0.0996
   6223SM   H7S 7932   3.309   2.848   6.320 -0.5677  0.9842  0.4220
   6223SM   H7T 7933   3.140   2.874   6.306  3.1083  1.8975  1.5483
   6223SM   C8S 7934   3.216   2.784   6.126  0.1197  0.4844 -0.4575
   6223SM   H8S 7935   3.113   2.771   6.086 -0.1107 -0.3054  0.3710
   6223SM   H8T 7936   3.280   2.696   6.105  0.7633  0.8677 -0.1454
   6223SM   C9S 7937   3.276   2.908   6.059 -0.2466  0.4435  0.5477
   6223SM   H9S 7938   3.381   2.905   6.096 -0.2305 -2.3255  0.5422
   6223SM   H9T 7939   3.229   3.004   6.088  1.4173  2.1384 -1.9399
   6223SM  C10S 7940   3.286   2.886   5.903  0.0843 -0.3114 -0.2858
   6223SM  H10S 7941   3.184   2.895   5.860 -1.2392 -0.6892  2.4993
   6223SM  H10T 7942   3.327   2.787   5.877  1.9741  0.4760 -0.4852
   6223SM  C11S 7943   3.373   2.984   5.824  0.4425  0.3150  0.5752
   6223SM  H11S 7944   3.480   2.973   5.853  0.5468 -1.3955 -0.3528
   6223SM  H11T 7945   3.345   3.091   5.836  0.8332  0.3853  0.8867
   6223SM  C12S 7946   3.390   2.933   5.683 -0.8346 -1.3008  0.2759
   6223SM  H12S 7947   3.293   2.933   5.628  0.4713 -1.2529 -2.2054
   6223SM  H12T 7948   3.413   2.824   5.686  1.5754 -0.8616 -0.0553
   6223SM  C13S 7949   3.487   3.017   5.605 -0.2028 -0.1656  0.0204
   6223SM  H13S 7950   3.586   3.032   5.654  0.8055  0.4865 -2.1180
   6223SM  H13T 7951   3.442   3.119   5.606  0.1050 -0.0014  2.3405
   6223SM  C14S 7952   3.516   2.980   5.460 -0.1368  0.2622 -0.1701
   6223SM  H14S 7953   3.423   2.960   5.402 -0.5489 -1.1919  0.9217
   6223SM  H14T 7954   3.563   2.879   5.461 -1.0968 -0.2390 -1.5251
   6223SM  C15S 7955   3.629   3.067   5.390 -0.3941  0.2813 -0.5715
   6223SM  H15S 7956   3.592   3.171   5.379  0.4355  0.6605  0.1197
   6223SM  H15T 7957   3.632   3.022   5.288 -2.4185  1.5110 -1.2444
   6223SM  C16S 7958   3.768   3.068   5.441  0.4109 -0.4712 -0.4259
   6223SM  H16S 7959   3.808   2.964   5.450 -0.2580 -0.5600  2.5395
   6223SM  H16T 7960   3.780   3.108   5.544  0.6436  0.3872 -0.7796
   6223SM  C17S 7961   3.856   3.150   5.347 -0.5623 -0.6931 -0.1305
   6223SM  H17S 7962   3.828   3.255   5.365  0.1592 -0.5124 -0.0247
   6223SM  H17T 7963   3.848   3.125   5.238  1.9984 -1.2499 -0.2656
   6223SM  C18S 7964   4.000   3.132   5.381  0.1699  0.7050 -0.5665
   6223SM  H18S 7965   4.028   3.162   5.484  2.5769  2.0832 -1.5328
   6223SM  H18T 7966   4.071   3.185   5.313 -0.6513  0.7513 -1.4155
   6223SM  H18U 7967   4.042   3.031   5.365  0.5177  1.0067 -1.7024
   6223SM   C1F 7968   2.869   2.938   6.712  0.6054 -0.3274 -0.4089
   6223SM    OF 7969   2.867   3.040   6.774  0.4894 -1.1002  0.2663
   6223SM   C2F 7970   2.738   2.887   6.658 -0.4631 -0.2799 -0.1338
   6223SM   H2F 7971   2.655   2.959   6.673 -0.9426 -0.5514 -1.3506
   6223SM   H2G 7972   2.702   2.794   6.707  0.2366 -0.4941 -0.0093
   6223SM   C3F 7973   2.753   2.850   6.510  0.3827  0.3305 -0.2740
   6223SM   H3F 7974   2.653   2.819   6.473  0.4163  1.8041 -1.7451
   6223SM   H3G 7975   2.819   2.761   6.506 -0.4533 -0.3471  0.5495
   6223SM   C4F 7976   2.803   2.964   6.421 -0.0401  0.4339  0.1941
   6223SM   H4F 7977   2.904   2.995   6.455 -0.3962 -0.6857  2.4309
   6223SM   H4G 7978   2.734   3.050   6.430  0.0254  0.4466  0.6114
   6223SM   C5F 7979   2.806   2.917   6.279 -0.4459  0.6955 -0.4225
   6223SM   H5F 7980   2.703   2.881   6.260 -0.0803 -1.1900  0.9034
   6223SM   H5G 7981   2.869   2.826   6.282 -0.2249  0.8813  0.8002
   6223SM   C6F 7982   2.865   3.023   6.183  0.2754 -0.4769 -0.3697
   6223SM   H6F 7983   2.968   3.058   6.205 -0.0644  0.1610  0.2446
   6223SM   H6G 7984   2.798   3.111   6.195  0.6037 -0.4537  1.6912
   6223SM   C7F 7985   2.870   2.976   6.039 -0.5191 -0.0337 -0.1527
   6223SM   H7F 7986   2.768   2.965   5.997 -0.1740  0.6657 -1.2430
   6223SM   H7G 7987   2.917   2.876   6.043 -0.8250 -0.1422  1.1864
   6223SM   C8F 7988   2.949   3.066   5.930  0.0448 -0.0210 -0.3087
   6223SM   H8F 7989   3.057   3.060   5.954  0.7002  0.7255 -2.7592
   6223SM   H8G 7990   2.911   3.167   5.958 -2.0399 -1.0192  0.7297
   6223SM   C9F 7991   2.932   3.034   5.785  0.5519  0.2916  0.5413
   6223SM   H9F 7992   2.826   3.032   5.753  0.9659 -1.8708 -0.9194
   6223SM   H9G 7993   2.970   2.931   5.769  0.0622  0.1727  0.1277
   6223SM  C10F 7994   3.009   3.131   5.696  0.1636 -0.2117 -0.3563
   6223SM  H10F 7995   3.115   3.131   5.730 -0.0325 -1.6007  0.2861
   6223SM  H10G 7996   2.972   3.235   5.710  0.9676  0.3192 -1.8491
   6223SM  C11F 7997   3.009   3.084   5.547 -0.1161  0.5222  0.4979
   6223SM  H11F 7998   2.906   3.082   5.506  0.4720 -1.2927 -1.0200
   6223SM  H11G 7999   3.033   2.977   5.529 -0.6602  0.5259 -0.3039
   6223SM  C12F 8000   3.092   3.170   5.450  0.3432  0.0589  0.2439
   6223SM  H12F 8001   3.197   3.133   5.446  0.9420  1.7100 -2.8255
   6223SM  H12G 8002   3.085   3.279   5.472 -3.1272 -0.2678  1.2679
   6223SM  C13F 8003   3.041   3.139   5.314 -0.2642  0.1685 -0.3566
   6223SM  H13F 8004   2.938   3.168   5.285 -0.0490  1.0695 -0.2409
   6223SM  H13G 8005   3.056   3.028   5.315  1.0845  0.3293  1.3855
   6223SM  C14F 8006   3.139   3.213   5.219 -0.3443  0.0982 -0.9203
   6223SM  H14F 8007   3.244   3.177   5.228 -0.1244  0.7489 -0.8814
   6223SM  H14G 8008   3.144   3.317   5.257 -0.1030 -0.0343 -0.5907
   6223SM  C15F 8009   3.109   3.204   5.068  0.5432 -0.8704  0.3803
   6223SM  H15F 8010   3.134   3.102   5.032  0.1729 -0.5204 -0.9162
   6223SM  H15G 8011   3.165   3.277   5.006 -0.1250 -1.5730 -1.0810
   6223SM  C16F 8012   2.962   3.237   5.043 -0.4874  0.5303  0.2091
   6223SM  H16F 8013   2.887   3.162   5.076  0.3862  0.1287  1.3145
   6223SM  H16G 8014   2.957   3.244   4.932  1.3965 -1.2055 -0.0302
   6223SM  C17F 8015   2.919   3.375   5.090  1.0175 -0.2926  0.1769
   6223SM  H17F 8016   3.007   3.436   5.059  0.3844  0.0206 -1.0772
   6223SM  H17G 8017   2.916   3.384   5.200  0.1916  0.0052  0.1404
   6223SM  C18F 8018   2.788   3.429   5.030 -0.2251  0.3104 -0.2847
   6223SM  H18F 8019   2.704   3.357   5.032 -0.2919  0.1679 -3.1126
   6223SM  H18G 8020   2.799   3.444   4.920 -0.3250 -0.8500 -0.4654
   6223SM  C19F 8021   2.735   3.561   5.086 -0.2814  0.4401 -0.4044
   6223SM  H19F 8022   2.809   3.641   5.065  0.5472  0.0728  1.0042
   6223SM  H19G 8023   2.729   3.552   5.196  3.1390 -0.1387 -0.1475
   6223SM  C20F 8024   2.607   3.611   5.024 -0.4856 -0.3018 -0.0812
   6223SM  H20F 8025   2.548   3.536   4.968 -1.2654  1.4040 -1.6216
   6223SM  H20G 8026   2.635   3.686   4.948  0.4342 -0.2580  0.2847
   6223SM  C21F 8027   2.518   3.681   5.135 -0.0347  0.0895  0.3351
   6223SM  H21F 8028   2.577   3.770   5.164 -1.3452  0.6613  1.3320
   6223SM  H21G 8029   2.509   3.619   5.227  0.7797  1.1881  1.1788
   6223SM  C22F 8030   2.388   3.736   5.082  0.3751  0.3456 -0.5712
   6223SM  H22F 8031   2.321   3.652   5.053 -0.6516  1.0495 -0.3153
   6223SM  H22G 8032   2.420   3.785   4.987  0.9507  2.1202  0.5001
   6223SM  C23F 8033   2.310   3.833   5.176  0.3616 -0.2296  0.3095
   6223SM  H23F 8034   2.266   3.781   5.263 -0.4758 -1.0204 -0.5633
   6223SM  H23G 8035   2.217   3.878   5.135  0.0164  0.7424  2.0657
   6223SM  H23H 8036   2.377   3.918   5.200 -1.2183  1.2500 -0.2702
   6323SM     N 8037   4.631   4.929   7.191 -0.1744  1.0569  0.0358
   6323SM   C15 8038   4.582   5.060   7.243 -0.4749  0.5010  0.6860
   6323SM  H15A 8039   4.498   5.109   7.196 -2.3347 -1.3012  1.9566
   6323SM  H15B 8040   4.665   5.128   7.229  1.2244 -1.8626 -1.6330
   6323SM  H15C 8041   4.552   5.052   7.346 -0.4953 -0.1092  0.6315
   6323SM   C14 8042   4.690   4.852   7.303  0.0663 -0.2744 -0.2385
   6323SM  H14A 8043   4.733   4.758   7.273  1.7774  0.3550  0.1385
   6323SM  H14B 8044   4.612   4.824   7.373 -0.1853  1.0574  0.0571
   6323SM  H14C 8045   4.773   4.908   7.343 -1.0439 -0.1888  2.1279
   6323SM   C13 8046   4.522   4.850   7.126  0.1858  1.2067  0.2682
   6323SM  H13A 8047   4.444   4.825   7.197  1.1462  1.9255  1.6153
   6323SM  H13B 8048   4.553   4.750   7.098 -0.9261  0.4469  1.5930
   6323SM  H13C 8049   4.469   4.903   7.049 -1.0843  1.6850  1.4294
   6323SM   C12 8050   4.738   4.941   7.088  0.0604  0.1587  0.0409
   6323SM  H12A 8051   4.712   5.007   7.007  0.9467 -0.0282 -0.4124
   6323SM  H12B 8052   4.745   4.842   7.047  0.4349  0.9476 -1.9374
   6323SM   C11 8053   4.876   4.989   7.142 -0.6114 -0.4636  0.1014
   6323SM  H11A 8054   4.944   4.977   7.055 -1.3264  1.3155 -0.7591
   6323SM  H11B 8055   4.907   4.926   7.227  0.0415  0.1875  0.3627
   6323SM     P 8056   4.879   5.241   7.086 -0.1843  0.0085  0.0903
   6323SM   O13 8057   4.821   5.359   7.152  0.0659 -0.0821  0.2763
   6323SM   O14 8058   5.008   5.257   7.019 -0.1895  0.1085  0.1258
   6323SM   O11 8059   4.784   5.196   6.971  0.4953  0.9608 -0.1377
   6323SM   O12 8060   4.878   5.124   7.190  0.1209 -0.0652  0.3414
   6323SM   C1S 8061   4.736   5.301   6.877  0.2905 -0.4398 -0.0849
   6323SM   H1S 8062   4.783   5.401   6.887  1.0354 -0.3035 -3.5554
   6323SM   H1T 8063   4.628   5.319   6.895  0.8699  1.6369  1.7899
   6323SM    NF 8064   4.703   5.394   6.643 -0.3155  0.4984  0.7083
   6323SM   HNF 8065   4.606   5.394   6.619 -0.4545 -2.8050  0.7241
   6323SM   C2S 8066   4.742   5.275   6.717  0.5622 -0.3538 -0.6791
   6323SM   H2S 8067   4.849   5.251   6.698  0.4271 -1.6590  0.0606
   6323SM   C3S 8068   4.657   5.149   6.696  0.2063 -0.3363  0.7294
   6323SM   H3S 8069   4.548   5.170   6.710  0.3096  0.1767  0.7641
   6323SM    O3 8070   4.701   5.041   6.779  0.0393  0.4768  0.4280
   6323SM   HO3 8071   4.771   5.075   6.835 -0.2854  0.1678  1.0295
   6323SM   C4S 8072   4.676   5.110   6.548 -0.6549  0.9263  0.8395
   6323SM   H4S 8073   4.783   5.110   6.520 -0.8066  1.5181  0.2485
   6323SM   C5S 8074   4.586   5.083   6.449  0.2962  0.1235 -0.2870
   6323SM   H5S 8075   4.478   5.082   6.464  0.3559  0.3720  0.1852
   6323SM   C6S 8076   4.624   5.045   6.312 -0.1826  1.1410  0.1629
   6323SM   H6S 8077   4.566   4.955   6.285  0.4332  1.1926 -1.4252
   6323SM   H6T 8078   4.734   5.031   6.304 -0.1083  1.5930  0.3220
   6323SM   C7S 8079   4.572   5.145   6.208  0.3589 -0.2743 -0.0543
   6323SM   H7S 8080   4.609   5.245   6.239 -0.0549 -0.2452  0.3489
   6323SM   H7T 8081   4.463   5.137   6.225  0.2911  1.4484  0.5512
   6323SM   C8S 8082   4.620   5.108   6.068  0.3095 -0.9491  0.2187
   6323SM   H8S 8083   4.571   5.011   6.045  1.5317 -1.3699 -0.7394
   6323SM   H8T 8084   4.728   5.080   6.075  0.6033 -0.8909 -2.6469
   6323SM   C9S 8085   4.581   5.218   5.965  0.6548  0.0406 -0.2861
   6323SM   H9S 8086   4.470   5.223   5.963  0.7078  1.5218 -1.3096
   6323SM   H9T 8087   4.605   5.186   5.861 -0.7595  1.1629 -1.0087
   6323SM  C10S 8088   4.643   5.360   5.985  0.6450  0.4825 -0.4422
   6323SM  H10S 8089   4.735   5.347   6.046  0.0204 -0.8155  0.2755
   6323SM  H10T 8090   4.566   5.411   6.046  2.0536  2.5539 -0.3087
   6323SM  C11S 8091   4.671   5.424   5.856 -0.8164 -0.0688  0.0864
   6323SM  H11S 8092   4.586   5.426   5.784  0.6195 -1.0397 -1.7102
   6323SM  H11T 8093   4.735   5.349   5.807 -1.9390 -2.3259  1.8928
   6323SM  C12S 8094   4.755   5.547   5.878 -0.3905  0.1826 -0.0664
   6323SM  H12S 8095   4.795   5.580   5.779 -1.5400 -2.2694 -1.4480
   6323SM  H12T 8096   4.841   5.513   5.940 -0.4386  0.0171 -0.0922
   6323SM  C13S 8097   4.675   5.670   5.946  0.6212 -0.5611 -0.3485
   6323SM  H13S 8098   4.749   5.749   5.968 -2.0245  1.8330  0.4906
   6323SM  H13T 8099   4.646   5.634   6.047  1.0455  2.0233  0.7804
   6323SM  C14S 8100   4.557   5.711   5.860 -0.1650 -0.1131  0.2842
   6323SM  H14S 8101   4.488   5.627   5.840  0.5786 -0.3735 -1.3330
   6323SM  H14T 8102   4.598   5.742   5.761 -0.6527  0.9217  0.3852
   6323SM  C15S 8103   4.472   5.825   5.916  0.3710  0.2752 -0.2418
   6323SM  H15S 8104   4.408   5.863   5.833 -0.2113 -1.6067 -0.6944
   6323SM  H15T 8105   4.531   5.912   5.952 -0.3299  0.8274 -0.4196
   6323SM  C16S 8106   4.387   5.772   6.033 -0.2982  0.3847 -0.3407
   6323SM  H16S 8107   4.448   5.772   6.125 -0.3979  3.3088 -0.1812
   6323SM  H16T 8108   4.357   5.670   6.001  0.5094  0.6583 -2.0808
   6323SM  C17S 8109   4.265   5.864   6.078  0.5087  0.5921  0.6030
   6323SM  H17S 8110   4.320   5.952   6.118  0.2428  1.7703 -1.4453
   6323SM  H17T 8111   4.199   5.821   6.156  0.1183 -1.5631 -0.8392
   6323SM  C18S 8112   4.179   5.909   5.964  0.5876 -0.2262  0.5266
   6323SM  H18S 8113   4.101   5.981   5.999  0.1114 -0.0953 -0.7421
   6323SM  H18T 8114   4.122   5.819   5.933  0.9170 -0.2329 -0.0701
   6323SM  H18U 8115   4.233   5.966   5.885  1.0727  0.8612  1.6071
   6323SM   C1F 8116   4.779   5.508   6.655 -0.4777 -0.1951  0.3715
   6323SM    OF 8117   4.883   5.514   6.709  0.6830 -1.0194  0.0647
   6323SM   C2F 8118   4.717   5.627   6.601 -0.2821  0.1856 -0.0755
   6323SM   H2F 8119   4.684   5.698   6.679  1.8232 -0.1746  1.2038
   6323SM   H2G 8120   4.620   5.591   6.560 -0.1624 -1.8499  1.2872
   6323SM   C3F 8121   4.798   5.687   6.486  0.3056 -0.2283 -0.4668
   6323SM   H3F 8122   4.829   5.615   6.408  2.0347  1.4738 -1.4437
   6323SM   H3G 8123   4.893   5.721   6.533  0.1789 -0.8472  0.2633
   6323SM   C4F 8124   4.735   5.803   6.407  1.0303  0.2390  0.1893
   6323SM   H4F 8125   4.703   5.881   6.479 -0.9978  1.7915 -2.2154
   6323SM   H4G 8126   4.642   5.763   6.362  1.3982 -1.3523  0.7495
   6323SM   C5F 8127   4.836   5.854   6.299  0.1174 -0.1777 -1.5419
   6323SM   H5F 8128   4.862   5.782   6.218  0.1872 -1.9391 -0.0161
   6323SM   H5G 8129   4.926   5.887   6.356 -1.4105 -1.3428  1.8208
   6323SM   C6F 8130   4.783   5.981   6.227 -1.1485 -0.7138 -0.1089
   6323SM   H6F 8131   4.741   6.040   6.312  1.3538 -0.0239  0.7201
   6323SM   H6G 8132   4.694   5.948   6.168 -1.0897 -1.9895  0.4681
   6323SM   C7F 8133   4.892   6.057   6.153  0.9192  0.2100 -0.4687
   6323SM   H7F 8134   4.943   5.984   6.086 -0.6388  0.4914 -2.0387
   6323SM   H7G 8135   4.969   6.084   6.228  2.2475  0.7770 -1.9612
   6323SM   C8F 8136   4.831   6.172   6.071  0.2630 -0.6798 -0.4118
   6323SM   H8F 8137   4.914   6.244   6.054 -0.4445  0.4415  0.7244
   6323SM   H8G 8138   4.754   6.214   6.139  1.9368  0.9142  0.5988
   6323SM   C9F 8139   4.795   6.131   5.930  0.4826 -0.3722  0.5544
   6323SM   H9F 8140   4.726   6.044   5.936  1.3009 -1.0197  0.6923
   6323SM   H9G 8141   4.888   6.102   5.877  0.1721  1.2497 -1.0175
   6323SM  C10F 8142   4.711   6.233   5.849 -0.1994  0.0338  0.0638
   6323SM  H10F 8143   4.777   6.306   5.798  1.3195 -0.8819  0.6783
   6323SM  H10G 8144   4.633   6.277   5.914 -1.4006 -1.2962 -0.4086
   6323SM  C11F 8145   4.635   6.156   5.739  0.4282 -0.1485 -0.0499
   6323SM  H11F 8146   4.580   6.233   5.681  2.0924 -0.5652 -2.2938
   6323SM  H11G 8147   4.570   6.078   5.783  2.1931 -2.8486 -1.9198
   6323SM  C12F 8148   4.723   6.089   5.637 -0.2709 -0.8109  0.3085
   6323SM  H12F 8149   4.781   6.010   5.690  0.4584 -0.4291  0.0901
   6323SM  H12G 8150   4.793   6.164   5.596 -1.8863 -0.7500 -2.6310
   6323SM  C13F 8151   4.646   6.037   5.518  0.4192  0.8644  0.2733
   6323SM  H13F 8152   4.608   6.124   5.461  0.4360  1.0777  0.5839
   6323SM  H13G 8153   4.553   5.982   5.546  2.5870 -1.0567  4.6632
   6323SM  C14F 8154   4.730   5.960   5.421  0.1211 -0.2123 -0.0695
   6323SM  H14F 8155   4.837   5.990   5.422 -0.1332  0.8737  2.6979
   6323SM  H14G 8156   4.704   5.994   5.318 -1.3105  0.7636  0.5834
   6323SM  C15F 8157   4.717   5.810   5.433  0.0651  0.5726  0.1024
   6323SM  H15F 8158   4.612   5.790   5.404 -0.2506 -0.3159  1.7605
   6323SM  H15G 8159   4.750   5.767   5.530  2.1621  1.2063 -0.2683
   6323SM  C16F 8160   4.796   5.730   5.327  0.5806  0.4573 -0.3325
   6323SM  H16F 8161   4.903   5.754   5.346  0.1689  1.1575  1.2563
   6323SM  H16G 8162   4.780   5.773   5.226 -0.0422 -0.6933 -0.7408
   6323SM  C17F 8163   4.749   5.586   5.332 -0.7834  0.1112  0.1605
   6323SM  H17F 8164   4.638   5.579   5.323 -0.7918  1.3510 -0.8500
   6323SM  H17G 8165   4.796   5.534   5.419 -1.7447 -1.7502 -0.3702
   6323SM  C18F 8166   4.808   5.511   5.212 -0.0644  0.2017 -0.7587
   6323SM  H18F 8167   4.909   5.478   5.243 -0.5703 -1.6698 -1.0350
   6323SM  H18G 8168   4.813   5.572   5.119 -0.8681  0.0320 -0.9195
   6323SM  C19F 8169   4.726   5.390   5.164  0.0788 -0.1241 -0.4822
   6323SM  H19F 8170   4.618   5.416   5.163  0.3116  1.1103  1.6490
   6323SM  H19G 8171   4.741   5.302   5.230  0.6053  0.8326  0.7057
   6323SM  C20F 8172   4.760   5.342   5.021 -0.0613 -0.7497 -0.4765
   6323SM  H20F 8173   4.753   5.425   4.948 -0.9136 -1.1416 -0.8618
   6323SM  H20G 8174   4.679   5.270   4.996 -1.3828  1.0444 -1.6404
   6323SM  C21F 8175   4.900   5.280   5.005 -0.2974 -0.1236 -0.2900
   6323SM  H21F 8176   4.900   5.191   5.072 -1.1500  1.1080  1.4076
   6323SM  H21G 8177   4.979   5.356   5.024 -0.2793 -0.1157 -0.3974
   6323SM  C22F 8178   4.917   5.227   4.864 -0.4207 -0.0607 -0.6644
   6323SM  H22F 8179   4.829   5.166   4.834 -2.3541  1.9021  0.7651
   6323SM  H22G 8180   5.003   5.156   4.862  0.1479  0.4341  2.4397
   6323SM  C23F 8181   4.936   5.336   4.765  0.9060 -0.1607 -0.8515
   6323SM  H23F 8182   5.024   5.394   4.801  1.1254 -2.2423  2.3788
   6323SM  H23G 8183   4.846   5.400   4.754  1.3665  0.6416 -0.0179
   6323SM  H23H 8184   4.962   5.310   4.660  1.3101  1.0960 -1.0820
   6423SM     N 8185   5.803   3.750   6.688  0.2251 -0.7317  0.2362
   6423SM   C15 8186   5.853   3.790   6.821  0.7856  0.0122  0.2321
   6423SM  H15A 8187   5.958   3.770   6.831  0.9446  0.3037 -0.7894
   6423SM  H15B 8188   5.803   3.747   6.907  0.3453  2.3913  1.2433
   6423SM  H15C 8189   5.829   3.892   6.846 -2.2942 -0.6228  0.2928
   6423SM   C14 8190   5.874   3.830   6.572  0.1280 -0.7400 -0.2465
   6423SM  H14A 8191   5.980   3.830   6.596 -0.6114 -1.8881  3.7398
   6423SM  H14B 8192   5.845   3.933   6.589 -0.0215 -0.5369 -1.6202
   6423SM  H14C 8193   5.849   3.797   6.472 -0.5140 -1.2712  0.0871
   6423SM   C13 8194   5.860   3.615   6.673  0.2287  0.2515 -0.0584
   6423SM  H13A 8195   5.967   3.620   6.662  0.3136  0.4695  0.7908
   6423SM  H13B 8196   5.815   3.579   6.581 -0.4380  0.1332  0.3078
   6423SM  H13C 8197   5.836   3.547   6.753 -1.2656 -1.1134 -1.5764
   6423SM   C12 8198   5.655   3.755   6.663  0.5634  0.8369 -0.4922
   6423SM  H12A 8199   5.608   3.696   6.741  0.8116  1.1607 -0.0940
   6423SM  H12B 8200   5.632   3.725   6.562  0.5513  1.4690 -0.6836
   6423SM   C11 8201   5.587   3.894   6.687  0.6106  0.2920 -0.0530
   6423SM  H11A 8202   5.477   3.879   6.675  0.7494 -1.0573  0.1755
   6423SM  H11B 8203   5.608   3.956   6.597 -0.0202 -2.7300 -2.4380
   6423SM     P 8204   5.511   3.951   6.929  0.4206 -0.1754 -0.1697
   6423SM   O13 8205   5.426   3.827   6.932  0.9110  0.7788 -0.4194
   6423SM   O14 8206   5.587   3.984   7.055 -0.2321  0.1184  0.3284
   6423SM   O11 8207   5.410   4.070   6.896  0.4953 -0.5517  0.0273
   6423SM   O12 8208   5.609   3.959   6.808 -0.2498  0.1172  0.0683
   6423SM   C1S 8209   5.459   4.202   6.893  0.6452  0.9580  0.0859
   6423SM   H1S 8210   5.563   4.221   6.927  0.3731  0.6312  1.1131
   6423SM   H1T 8211   5.400   4.266   6.962  0.8286 -0.0831  1.2364
   6423SM    NF 8212   5.467   4.403   6.754  0.2069  0.7481 -0.0472
   6423SM   HNF 8213   5.391   4.466   6.752 -1.9549 -1.6584 -2.0227
   6423SM   C2S 8214   5.432   4.264   6.755  0.0428 -0.4470  0.1486
   6423SM   H2S 8215   5.502   4.214   6.685 -0.4231 -0.2466 -0.4743
   6423SM   C3S 8216   5.279   4.250   6.706 -0.5620  0.6245 -0.1061
   6423SM   H3S 8217   5.224   4.325   6.768 -0.0591  0.0285  1.0892
   6423SM    O3 8218   5.220   4.126   6.724 -0.1862 -0.5553 -0.1057
   6423SM   HO3 8219   5.283   4.079   6.780  0.5457  0.6883  0.1630
   6423SM   C4S 8220   5.279   4.284   6.563  0.5901  0.3918 -0.3276
   6423SM   H4S 8221   5.355   4.232   6.503  1.3377  0.1768  0.7787
   6423SM   C5S 8222   5.192   4.369   6.503  0.0096 -0.0068  0.0562
   6423SM   H5S 8223   5.118   4.417   6.568  1.1277 -0.4825  1.7372
   6423SM   C6S 8224   5.187   4.396   6.353  0.2833  0.6057  0.4785
   6423SM   H6S 8225   5.145   4.497   6.334 -1.4347  0.0374  1.1163
   6423SM   H6T 8226   5.122   4.316   6.312  0.6234 -0.1457  1.3625
   6423SM   C7S 8227   5.315   4.391   6.261 -0.4219 -0.3420 -0.0551
   6423SM   H7S 8228   5.337   4.282   6.258  2.3952  0.1684 -1.7346
   6423SM   H7T 8229   5.400   4.447   6.307 -0.8521 -0.2375  0.6201
   6423SM   C8S 8230   5.296   4.465   6.128  0.9236  0.8112 -0.3463
   6423SM   H8S 8231   5.387   4.450   6.067 -0.0013 -0.4675 -1.4655
   6423SM   H8T 8232   5.286   4.571   6.161 -0.5329  0.0924  1.7826
   6423SM   C9S 8233   5.181   4.416   6.039  0.0823 -0.6338 -0.0426
   6423SM   H9S 8234   5.081   4.422   6.087  0.8968 -3.6483  2.3865
   6423SM   H9T 8235   5.187   4.311   6.002 -1.0718 -0.8097  0.2112
   6423SM  C10S 8236   5.192   4.480   5.893 -0.1451  0.5156  0.0434
   6423SM  H10S 8237   5.298   4.464   5.862  0.5958  1.0981  2.1419
   6423SM  H10T 8238   5.178   4.591   5.896  3.6264  1.1696 -1.0751
   6423SM  C11S 8239   5.084   4.430   5.795 -0.0520  0.6325 -0.5053
   6423SM  H11S 8240   4.981   4.451   5.830 -0.7232 -1.1108 -1.2815
   6423SM  H11T 8241   5.085   4.320   5.779 -0.6853  0.6164 -0.4797
   6423SM  C12S 8242   5.112   4.495   5.657 -0.0535 -0.2255 -0.2315
   6423SM  H12S 8243   5.209   4.455   5.621 -0.8918 -1.6274 -1.0004
   6423SM  H12T 8244   5.128   4.604   5.673 -0.2387  0.0109 -1.5024
   6423SM  C13S 8245   5.002   4.478   5.555 -0.4729  0.4716  0.4905
   6423SM  H13S 8246   5.035   4.522   5.459  1.5305  0.4831  1.1335
   6423SM  H13T 8247   4.911   4.535   5.583 -0.6489  1.6019 -2.1506
   6423SM  C14S 8248   4.978   4.330   5.522 -0.0754 -0.3517  0.4136
   6423SM  H14S 8249   4.928   4.294   5.615  0.7560  0.1238  1.0590
   6423SM  H14T 8250   5.070   4.268   5.513  0.6802  0.6625  0.9308
   6423SM  C15S 8251   4.897   4.309   5.390 -0.0947  0.1708  0.2450
   6423SM  H15S 8252   4.953   4.365   5.312 -1.9799  1.2120 -0.4252
   6423SM  H15T 8253   4.804   4.365   5.414  0.1182 -0.2533  2.1977
   6423SM  C16S 8254   4.853   4.168   5.348  0.3097  0.4814  0.0436
   6423SM  H16S 8255   4.819   4.110   5.436  0.0551 -0.1907 -0.4923
   6423SM  H16T 8256   4.938   4.115   5.299  0.1627  0.3757 -0.0976
   6423SM  C17S 8257   4.738   4.169   5.247  0.0968 -0.1305 -0.8158
   6423SM  H17S 8258   4.743   4.263   5.189 -1.4161 -0.0231 -0.8129
   6423SM  H17T 8259   4.646   4.196   5.304  0.6664  1.5473 -0.6633
   6423SM  C18S 8260   4.720   4.037   5.170  0.3253 -0.1390 -0.0488
   6423SM  H18S 8261   4.728   3.945   5.232  1.3420  0.4291  0.6935
   6423SM  H18T 8262   4.806   4.018   5.102  1.2803 -1.7761  1.5149
   6423SM  H18U 8263   4.622   4.029   5.120 -0.0783 -1.4029  0.8701
   6423SM   C1F 8264   5.590   4.449   6.764  0.6359 -0.2159  0.3856
   6423SM    OF 8265   5.680   4.371   6.773 -0.1600  0.5933  0.4875
   6423SM   C2F 8266   5.606   4.595   6.779  0.8925 -0.4671  0.0347
   6423SM   H2F 8267   5.714   4.620   6.775  0.9156  1.4189  5.2222
   6423SM   H2G 8268   5.578   4.619   6.884 -0.6118 -0.0913 -0.4207
   6423SM   C3F 8269   5.526   4.678   6.673 -0.2260 -0.2802 -0.0508
   6423SM   H3F 8270   5.542   4.786   6.695  0.1604 -0.1125 -1.1048
   6423SM   H3G 8271   5.418   4.660   6.692 -0.4009  0.5498 -0.2090
   6423SM   C4F 8272   5.574   4.659   6.531  0.0771 -0.4934  0.6440
   6423SM   H4F 8273   5.536   4.563   6.492 -1.4000  0.5618 -0.6166
   6423SM   H4G 8274   5.685   4.655   6.534  0.0618 -0.6908  1.0103
   6423SM   C5F 8275   5.549   4.784   6.437 -0.0237 -0.0398 -0.4712
   6423SM   H5F 8276   5.619   4.771   6.352  2.0807  2.7173  0.6787
   6423SM   H5G 8277   5.582   4.876   6.490  0.4081  0.0917 -0.9663
   6423SM   C6F 8278   5.406   4.812   6.398 -0.2140 -0.0442 -0.7214
   6423SM   H6F 8279   5.350   4.839   6.491  3.0012 -1.7072  1.8895
   6423SM   H6G 8280   5.351   4.719   6.371 -1.8548  0.2826  1.2562
   6423SM   C7F 8281   5.387   4.934   6.296  0.8536 -1.1922 -0.0958
   6423SM   H7F 8282   5.420   5.022   6.355  1.9066 -0.4753 -1.6844
   6423SM   H7G 8283   5.286   4.951   6.253  1.3028 -1.1370 -1.1628
   6423SM   C8F 8284   5.479   4.931   6.171 -0.6175 -0.1903  0.0917
   6423SM   H8F 8285   5.584   4.962   6.194 -0.8958 -0.1801  1.4020
   6423SM   H8G 8286   5.438   5.014   6.109  0.2531 -0.4502 -0.8700
   6423SM   C9F 8287   5.469   4.797   6.091  0.4601 -0.2794 -0.7775
   6423SM   H9F 8288   5.364   4.771   6.068  0.2387  0.8081 -1.0393
   6423SM   H9G 8289   5.522   4.713   6.143 -0.4553  0.1748  0.9593
   6423SM  C10F 8290   5.543   4.824   5.960 -0.0636  0.3375 -0.4253
   6423SM  H10F 8291   5.651   4.807   5.976 -0.2614 -1.5883 -0.9404
   6423SM  H10G 8292   5.524   4.930   5.932  0.0269  0.1971 -1.0434
   6423SM  C11F 8293   5.499   4.732   5.842  0.5147  0.2123  0.2426
   6423SM  H11F 8294   5.388   4.727   5.842  0.4895  0.4463 -0.9979
   6423SM  H11G 8295   5.536   4.630   5.865 -1.4074 -0.2408  1.5495
   6423SM  C12F 8296   5.542   4.772   5.699  0.3197  0.2923 -0.2694
   6423SM  H12F 8297   5.653   4.775   5.696  0.2900  1.7420 -0.5650
   6423SM  H12G 8298   5.495   4.871   5.684 -0.6340 -0.2345 -0.8075
   6423SM  C13F 8299   5.486   4.680   5.584 -0.3093  1.1386  0.1109
   6423SM  H13F 8300   5.375   4.680   5.583 -0.3316 -0.1716 -0.9692
   6423SM  H13G 8301   5.503   4.575   5.615  0.7598  1.1962 -0.2484
   6423SM  C14F 8302   5.557   4.717   5.450  1.2734 -0.1872 -0.4130
   6423SM  H14F 8303   5.663   4.686   5.462  0.6213 -1.7653  2.1085
   6423SM  H14G 8304   5.532   4.822   5.422 -0.2649  0.2643  2.2760
   6423SM  C15F 8305   5.502   4.637   5.330  0.5911 -0.1383  0.4184
   6423SM  H15F 8306   5.577   4.654   5.249  0.1508 -1.5137 -0.3212
   6423SM  H15G 8307   5.400   4.672   5.306  0.6582  0.0578  0.4198
   6423SM  C16F 8308   5.507   4.486   5.350  0.1971 -0.1407  0.1238
   6423SM  H16F 8309   5.471   4.452   5.449  1.2915  0.5334  0.7734
   6423SM  H16G 8310   5.615   4.462   5.341  0.4350  0.5077  1.1307
   6423SM  C17F 8311   5.447   4.401   5.237 -0.3595  0.2928  0.1432
   6423SM  H17F 8312   5.504   4.406   5.142 -0.8298 -0.6516 -0.1988
   6423SM  H17G 8313   5.342   4.429   5.213 -1.3833 -3.7331 -0.6969
   6423SM  C18F 8314   5.438   4.253   5.280  0.2987  0.9368  0.4625
   6423SM  H18F 8315   5.384   4.237   5.376 -0.0087  0.1424  0.1710
   6423SM  H18G 8316   5.538   4.208   5.297  0.7531  1.5358 -0.5640
   6423SM  C19F 8317   5.362   4.178   5.170 -0.2836 -0.6425 -0.0922
   6423SM  H19F 8318   5.423   4.176   5.077  1.5858 -0.0958  1.0568
   6423SM  H19G 8319   5.264   4.225   5.147  0.0695 -0.8367 -2.1698
   6423SM  C20F 8320   5.335   4.032   5.216  0.1666  0.3337  0.1324
   6423SM  H20F 8321   5.295   4.035   5.319  0.2051 -0.8370  0.1954
   6423SM  H20G 8322   5.431   3.976   5.215 -1.3150 -2.3530 -0.8525
   6423SM  C21F 8323   5.237   3.947   5.116  0.3291 -0.0889 -0.0199
   6423SM  H21F 8324   5.290   3.935   5.019  0.3425 -0.7797  0.0721
   6423SM  H21G 8325   5.145   4.007   5.096  0.6619  0.4954  0.1490
   6423SM  C22F 8326   5.188   3.812   5.169 -0.2813  0.6151  0.3191
   6423SM  H22F 8327   5.277   3.747   5.154 -0.2984  0.2894  1.4829
   6423SM  H22G 8328   5.095   3.789   5.111 -1.5718  2.5767  1.4967
   6423SM  C23F 8329   5.146   3.808   5.313 -0.0128  0.1527 -0.5881
   6423SM  H23F 8330   5.061   3.875   5.338  2.3296  2.2304  2.6338
   6423SM  H23G 8331   5.225   3.827   5.389 -0.5520 -0.9773  0.2637
   6423SM  H23H 8332   5.110   3.707   5.340  1.4734 -1.5046 -4.1473
   6523SM     N 8333   6.541   4.636   7.506  0.8656  0.6864  0.8308
   6523SM   C15 8334   6.538   4.491   7.538  0.3711  1.1151 -0.5003
   6523SM  H15A 8335   6.573   4.472   7.639  2.5305 -0.0962 -1.4138
   6523SM  H15B 8336   6.605   4.428   7.481 -0.6585 -0.9632  0.4356
   6523SM  H15C 8337   6.440   4.448   7.523 -0.1957  1.2496  2.1568
   6523SM   C14 8338   6.449   4.702   7.603 -0.7254 -0.6561 -0.2990
   6523SM  H14A 8339   6.482   4.696   7.706  0.5803 -0.7720 -0.6995
   6523SM  H14B 8340   6.352   4.656   7.599 -1.1766  0.2963 -0.8003
   6523SM  H14C 8341   6.422   4.802   7.570  1.0268  0.1982  0.7036
   6523SM   C13 8342   6.681   4.674   7.520  0.0927 -0.2371  0.1224
   6523SM  H13A 8343   6.748   4.605   7.471  1.7680  0.4365  1.3620
   6523SM  H13B 8344   6.707   4.683   7.625  0.0746 -0.9259  0.1939
   6523SM  H13C 8345   6.703   4.767   7.470 -1.4882  1.3790  2.2370
   6523SM   C12 8346   6.495   4.655   7.364  0.3013  0.1820 -0.2959
   6523SM  H12A 8347   6.569   4.622   7.293 -0.1187  0.3117 -0.8046
   6523SM  H12B 8348   6.482   4.762   7.356 -0.5795  0.1155  0.0466
   6523SM   C11 8349   6.359   4.588   7.324  0.4283  0.0008  0.1756
   6523SM  H11A 8350   6.346   4.483   7.359 -2.9710  0.7144  1.3436
   6523SM  H11B 8351   6.361   4.593   7.213 -1.4974  1.2872  0.1606
   6523SM     P 8352   6.192   4.796   7.322  0.6012 -0.1354  0.3869
   6523SM   O13 8353   6.054   4.779   7.269 -0.3912 -0.2265 -0.3335
   6523SM   O14 8354   6.214   4.893   7.427  1.0241 -0.3883  0.7151
   6523SM   O11 8355   6.296   4.843   7.213  0.5346  0.3315  0.9930
   6523SM   O12 8356   6.246   4.661   7.375 -0.2845  0.0406 -0.3557
   6523SM   C1S 8357   6.268   4.798   7.080  0.1068  0.4011  0.1436
   6523SM   H1S 8358   6.192   4.717   7.078  0.8815 -0.3390  0.2777
   6523SM   H1T 8359   6.359   4.753   7.036 -0.8435  0.0968 -1.5891
   6523SM    NF 8360   6.220   4.854   6.847 -0.2890 -0.8071 -0.1908
   6523SM   HNF 8361   6.288   4.888   6.782 -1.6547  1.8253 -0.3904
   6523SM   C2S 8362   6.240   4.914   6.982 -0.2418 -0.7686  0.2672
   6523SM   H2S 8363   6.143   4.959   7.015  0.7455  1.4227  0.3692
   6523SM   C3S 8364   6.340   5.028   6.995  0.0047 -0.3764  0.0862
   6523SM   H3S 8365   6.430   4.995   6.937 -1.6099 -0.3831 -2.5799
   6523SM    O3 8366   6.375   5.077   7.123 -0.1379  0.1634  0.2479
   6523SM   HO3 8367   6.334   5.011   7.180 -0.0544 -1.1531 -1.1646
   6523SM   C4S 8368   6.286   5.143   6.906 -0.1882  0.0975  0.5433
   6523SM   H4S 8369   6.322   5.132   6.803 -1.8974 -1.9020  0.0668
   6523SM   C5S 8370   6.210   5.254   6.928  0.1121  0.5057 -0.5716
   6523SM   H5S 8371   6.167   5.271   7.027 -0.1846  0.5199 -0.7003
   6523SM   C6S 8372   6.165   5.351   6.818 -0.2684 -0.0807 -0.4494
   6523SM   H6S 8373   6.220   5.444   6.843 -0.5293 -0.2231  0.7476
   6523SM   H6T 8374   6.057   5.374   6.823 -0.0180  0.9956  0.4089
   6523SM   C7S 8375   6.182   5.298   6.673 -0.3590 -0.0643 -0.5458
   6523SM   H7S 8376   6.117   5.212   6.645 -1.9989  1.1214 -0.5725
   6523SM   H7T 8377   6.286   5.276   6.643 -0.2873 -0.1865 -0.2167
   6523SM   C8S 8378   6.129   5.395   6.569 -1.0113 -0.0525  0.1524
   6523SM   H8S 8379   6.193   5.485   6.581 -1.0212  0.1092 -0.8859
   6523SM   H8T 8380   6.027   5.425   6.600 -0.7840 -0.3805  1.2484
   6523SM   C9S 8381   6.136   5.341   6.427  0.4200 -0.0582  0.0984
   6523SM   H9S 8382   6.093   5.239   6.422 -0.0446  0.1751 -0.8299
   6523SM   H9T 8383   6.241   5.331   6.390  0.9295 -1.3947  1.7397
   6523SM  C10S 8384   6.062   5.426   6.318  0.4933 -0.4927  0.0032
   6523SM  H10S 8385   6.116   5.524   6.316 -0.6923  0.2412  1.6561
   6523SM  H10T 8386   5.962   5.447   6.360  0.8727 -0.3786  0.8874
   6523SM  C11S 8387   6.055   5.370   6.178  0.5870  0.3416 -0.3902
   6523SM  H11S 8388   6.004   5.272   6.194  0.3168  0.4581 -0.5202
   6523SM  H11T 8389   6.158   5.353   6.141  0.5541  1.2564 -0.9373
   6523SM  C12S 8390   5.982   5.465   6.076 -0.2069  0.9860 -1.1990
   6523SM  H12S 8391   6.043   5.557   6.092 -0.2304  0.8676 -0.3430
   6523SM  H12T 8392   5.879   5.476   6.115 -0.1549  0.6704 -0.9636
   6523SM  C13S 8393   5.994   5.416   5.933 -0.5960  0.0954  0.2031
   6523SM  H13S 8394   5.901   5.358   5.916  0.1511 -1.3608  0.8430
   6523SM  H13T 8395   6.083   5.355   5.905  1.1539  1.7024  1.9302
   6523SM  C14S 8396   5.969   5.536   5.836 -0.6062  0.2242 -0.7007
   6523SM  H14S 8397   6.065   5.593   5.837 -0.4907  0.0388 -1.1412
   6523SM  H14T 8398   5.890   5.605   5.872  0.6190  0.4963  1.7514
   6523SM  C15S 8399   5.917   5.487   5.697 -0.0009  0.2184  0.5381
   6523SM  H15S 8400   5.882   5.573   5.637 -1.6364 -0.0125  1.1061
   6523SM  H15T 8401   5.840   5.412   5.726 -0.2228  0.6026  0.9489
   6523SM  C16S 8402   6.023   5.419   5.605 -0.6450 -0.0762  0.5961
   6523SM  H16S 8403   6.033   5.312   5.634  0.1079 -0.8338 -2.1970
   6523SM  H16T 8404   6.126   5.459   5.617  0.5117 -2.8989  1.0132
   6523SM  C17S 8405   5.993   5.429   5.451 -0.1334 -0.6266 -0.2577
   6523SM  H17S 8406   5.998   5.538   5.429  1.0346 -0.1478  2.1451
   6523SM  H17T 8407   5.892   5.388   5.426 -1.0285  1.9034 -1.0723
   6523SM  C18S 8408   6.097   5.371   5.354 -0.2704 -0.5220  0.1499
   6523SM  H18S 8409   6.109   5.261   5.363 -1.0558 -0.7002 -0.7558
   6523SM  H18T 8410   6.198   5.415   5.367 -0.7092  0.2131  1.2976
   6523SM  H18U 8411   6.058   5.386   5.251  0.2713  0.5386  0.0877
   6523SM   C1F 8412   6.136   4.766   6.815  0.3867  0.3612 -0.7669
   6523SM    OF 8413   6.039   4.745   6.890 -0.6238  0.5027  0.1251
   6523SM   C2F 8414   6.163   4.688   6.689  0.0300 -0.2025 -0.0286
   6523SM   H2F 8415   6.269   4.654   6.695  0.5199  1.1447 -0.7497
   6523SM   H2G 8416   6.159   4.765   6.610  2.6753  1.8433  1.6698
   6523SM   C3F 8417   6.061   4.573   6.675 -0.0130 -0.2065  0.0685
   6523SM   H3F 8418   5.953   4.598   6.668 -0.3400 -1.8135 -1.4111
   6523SM   H3G 8419   6.078   4.502   6.758  0.1561  0.2299  0.4144
   6523SM   C4F 8420   6.088   4.487   6.548 -0.7338  0.3745  0.1784
   6523SM   H4F 8421   6.195   4.455   6.549 -0.1759  2.1354  0.2249
   6523SM   H4G 8422   6.063   4.549   6.459  0.2266  0.0861 -0.3039
   6523SM   C5F 8423   5.998   4.369   6.554 -0.1385  0.1314 -0.3856
   6523SM   H5F 8424   5.988   4.331   6.658 -1.8565 -0.0140 -0.5743
   6523SM   H5G 8425   6.054   4.293   6.495 -0.3493  0.8538 -1.5328
   6523SM   C6F 8426   5.857   4.383   6.492 -0.2866  0.6276 -0.0709
   6523SM   H6F 8427   5.782   4.439   6.550  0.7269  0.2728  1.6400
   6523SM   H6G 8428   5.820   4.278   6.488  1.7865 -0.1597  0.0994
   6523SM   C7F 8429   5.855   4.442   6.343  0.1038 -0.8576 -0.8969
   6523SM   H7F 8430   5.937   4.387   6.291  1.6069 -0.0620  0.5460
   6523SM   H7G 8431   5.881   4.550   6.340 -0.0624 -0.8296 -1.5762
   6523SM   C8F 8432   5.719   4.420   6.281 -0.3643 -0.4232 -0.4575
   6523SM   H8F 8433   5.642   4.458   6.350 -0.6611 -0.1852 -0.9115
   6523SM   H8G 8434   5.700   4.312   6.266 -1.0928 -0.3966  0.2499
   6523SM   C9F 8435   5.690   4.496   6.151 -0.0756  0.3754  0.8307
   6523SM   H9F 8436   5.755   4.586   6.153  1.1791 -0.5057  0.3372
   6523SM   H9G 8437   5.580   4.514   6.146 -0.4192 -1.7288 -0.3455
   6523SM  C10F 8438   5.739   4.414   6.029  0.1868  0.1388 -0.0840
   6523SM  H10F 8439   5.826   4.347   6.049 -1.4866 -1.4072  2.6379
   6523SM  H10G 8440   5.777   4.493   5.961  2.9140  0.4848  1.7004
   6523SM  C11F 8441   5.617   4.343   5.965 -0.6360 -0.0958  0.1377
   6523SM  H11F 8442   5.534   4.414   5.946 -1.2387 -1.0638 -0.9930
   6523SM  H11G 8443   5.573   4.265   6.031 -1.3350  0.7737  0.7192
   6523SM  C12F 8444   5.662   4.260   5.841 -0.5898 -0.1700  0.4291
   6523SM  H12F 8445   5.756   4.211   5.871 -1.5054 -0.3688  3.2649
   6523SM  H12G 8446   5.698   4.326   5.759 -1.0800 -0.6236 -0.1562
   6523SM  C13F 8447   5.563   4.162   5.786  0.1658 -0.4743  0.2592
   6523SM  H13F 8448   5.537   4.090   5.867 -1.1931  2.1187  2.2873
   6523SM  H13G 8449   5.606   4.103   5.702  3.0142  1.2524  0.4020
   6523SM  C14F 8450   5.442   4.236   5.728 -0.0444 -0.1610 -0.1899
   6523SM  H14F 8451   5.473   4.312   5.653 -0.9947 -0.8928 -1.3745
   6523SM  H14G 8452   5.392   4.296   5.807  0.5390  0.2294 -0.1152
   6523SM  C15F 8453   5.338   4.137   5.666  0.4365 -0.1835  0.4371
   6523SM  H15F 8454   5.395   4.079   5.590  2.3904  0.5623  1.2539
   6523SM  H15G 8455   5.258   4.191   5.610  1.1481 -1.5220 -2.0445
   6523SM  C16F 8456   5.268   4.054   5.773  0.2212  0.2374  0.5437
   6523SM  H16F 8457   5.236   4.124   5.853  1.3468 -0.4952  1.6700
   6523SM  H16G 8458   5.334   3.975   5.815 -0.9270 -1.4392 -0.6882
   6523SM  C17F 8459   5.137   3.983   5.724 -0.1670  0.0799 -0.5028
   6523SM  H17F 8460   5.169   3.895   5.664 -0.3300 -1.0389  1.0009
   6523SM  H17G 8461   5.074   4.053   5.664 -2.6381 -1.0919  0.5915
   6523SM  C18F 8462   5.038   3.943   5.838  0.5959 -0.5558 -0.2036
   6523SM  H18F 8463   4.948   3.903   5.786 -0.3172  1.1925 -0.0102
   6523SM  H18G 8464   5.021   4.032   5.902 -1.8496 -1.0526 -0.0706
   6523SM  C19F 8465   5.099   3.837   5.928  0.1305 -0.7577  0.2237
   6523SM  H19F 8466   5.182   3.883   5.985  1.2301 -0.2463 -1.6776
   6523SM  H19G 8467   5.126   3.748   5.867  1.3733  0.7249 -1.4948
   6523SM  C20F 8468   5.011   3.772   6.035  0.1027 -0.6550 -0.2088
   6523SM  H20F 8469   4.984   3.859   6.099 -0.5245  1.3023 -2.9818
   6523SM  H20G 8470   5.068   3.700   6.098  0.3336 -0.6552 -0.4178
   6523SM  C21F 8471   4.876   3.718   5.990  0.1129 -0.4100  0.1009
   6523SM  H21F 8472   4.892   3.626   5.929 -2.2082 -1.8783  1.5592
   6523SM  H21G 8473   4.823   3.791   5.925 -1.4800  1.3860  3.1794
   6523SM  C22F 8474   4.781   3.687   6.106 -0.3113  0.4037 -0.2120
   6523SM  H22F 8475   4.837   3.627   6.182 -1.8353 -1.1391 -0.2247
   6523SM  H22G 8476   4.693   3.631   6.067 -0.3664  1.0102 -0.9727
   6523SM  C23F 8477   4.711   3.808   6.161 -0.9793 -0.5687  0.1983
   6523SM  H23F 8478   4.630   3.855   6.101 -0.2861  0.7024  0.2407
   6523SM  H23G 8479   4.789   3.885   6.174 -0.4356 -0.5938 -2.5210
   6523SM  H23H 8480   4.654   3.784   6.254 -0.4169  2.6096  1.5024
   6623SM     N 8481   3.536   1.830   7.357 -0.0024 -0.4913 -0.4884
   6623SM   C15 8482   3.558   1.891   7.494 -0.0258 -0.0059  0.5134
   6623SM  H15A 8483   3.617   1.981   7.491  1.5784 -1.0438 -1.3369
   6623SM  H15B 8484   3.607   1.827   7.567 -0.3699  0.7820  1.4678
   6623SM  H15C 8485   3.464   1.917   7.541 -0.1483 -0.3264  0.4454
   6623SM   C14 8486   3.466   1.700   7.372  0.4663  0.2389  0.9455
   6623SM  H14A 8487   3.456   1.659   7.272  1.6080 -0.3947  1.0776
   6623SM  H14B 8488   3.370   1.707   7.421 -0.6379  2.1647 -1.2848
   6623SM  H14C 8489   3.527   1.628   7.424 -2.1364 -2.7418  0.1862
   6623SM   C13 8490   3.441   1.928   7.285  0.0017 -0.5550  0.2817
   6623SM  H13A 8491   3.402   1.891   7.191 -0.1921 -0.5700  0.3660
   6623SM  H13B 8492   3.492   2.021   7.262  0.3645 -1.1872 -1.7035
   6623SM  H13C 8493   3.364   1.946   7.358  2.9128 -0.0375  3.4441
   6623SM   C12 8494   3.673   1.807   7.286  0.2701 -0.4233  0.4447
   6623SM  H12A 8495   3.732   1.751   7.357 -1.0732 -0.3147  1.7087
   6623SM  H12B 8496   3.722   1.903   7.292  1.1167 -0.9302  2.3846
   6623SM   C11 8497   3.668   1.737   7.151  1.2517 -0.0994 -0.1033
   6623SM  H11A 8498   3.772   1.754   7.116  1.2758  0.9802  0.4639
   6623SM  H11B 8499   3.592   1.783   7.085  0.7119 -0.8844 -0.0423
   6623SM     P 8500   3.755   1.501   7.127 -0.0902  0.3662  0.5147
   6623SM   O13 8501   3.881   1.532   7.195 -0.0700  0.9909  0.2597
   6623SM   O14 8502   3.709   1.363   7.136 -0.0884 -0.6980 -0.0362
   6623SM   O11 8503   3.765   1.548   6.981  0.5586  0.3749  0.2776
   6623SM   O12 8504   3.639   1.595   7.176  0.1387  0.0033 -0.0502
   6623SM   C1S 8505   3.657   1.502   6.888 -0.4867  0.3993 -0.4229
   6623SM   H1S 8506   3.562   1.553   6.917  0.7767  2.4939  0.1863
   6623SM   H1T 8507   3.658   1.391   6.891  0.0470  0.3972  2.6957
   6623SM    NF 8508   3.564   1.494   6.665  0.4555  0.4855 -0.3309
   6623SM   HNF 8509   3.590   1.415   6.610 -0.2172  0.8071 -1.1292
   6623SM   C2S 8510   3.676   1.542   6.740  0.1581 -0.2125  0.7378
   6623SM   H2S 8511   3.671   1.652   6.729 -1.5718 -0.3567 -0.2710
   6623SM   C3S 8512   3.817   1.479   6.694 -0.0605 -0.0769  0.0462
   6623SM   H3S 8513   3.806   1.369   6.710 -1.1789 -0.0615 -0.5376
   6623SM    O3 8514   3.923   1.526   6.782 -0.4056  0.2682 -0.0928
   6623SM   HO3 8515   3.876   1.549   6.863  1.8821 -1.3082  1.8371
   6623SM   C4S 8516   3.848   1.501   6.549 -0.2340 -0.3814 -0.2508
   6623SM   H4S 8517   3.803   1.424   6.485  0.5503  0.0336 -1.3240
   6623SM   C5S 8518   3.919   1.599   6.495 -0.1882 -0.0049 -0.7986
   6623SM   H5S 8519   3.971   1.669   6.562  2.5724 -1.6673 -1.0733
   6623SM   C6S 8520   3.948   1.626   6.354 -0.2619  0.0977 -0.2541
   6623SM   H6S 8521   4.054   1.651   6.334 -0.0111 -1.3339 -0.8690
   6623SM   H6T 8522   3.890   1.712   6.312 -0.3191 -0.4573 -1.3657
   6623SM   C7S 8523   3.919   1.503   6.261 -0.0434 -0.2944  0.1962
   6623SM   H7S 8524   3.809   1.484   6.267 -0.1404 -0.1897 -1.0619
   6623SM   H7T 8525   3.983   1.425   6.308 -0.4647 -0.1679  0.9973
   6623SM   C8S 8526   3.955   1.526   6.111  0.0209  0.1813 -0.7827
   6623SM   H8S 8527   4.045   1.591   6.115  0.2490 -0.1957  1.4149
   6623SM   H8T 8528   3.873   1.582   6.061 -0.6601  0.8759  1.0212
   6623SM   C9S 8529   3.973   1.393   6.040  0.3276 -0.5360  0.2980
   6623SM   H9S 8530   3.882   1.330   6.046  1.6801 -2.5834  0.4998
   6623SM   H9T 8531   4.060   1.340   6.085  1.3459  1.8919  1.3586
   6623SM  C10S 8532   3.996   1.427   5.891 -0.5371 -0.2372 -0.9967
   6623SM  H10S 8533   4.095   1.472   5.869  0.0965 -0.8571  0.4627
   6623SM  H10T 8534   3.918   1.502   5.864 -0.3171  0.0887 -0.7412
   6623SM  C11S 8535   3.979   1.300   5.809 -0.3557  0.2897  0.9542
   6623SM  H11S 8536   3.890   1.247   5.847 -1.8181  1.3788 -0.7970
   6623SM  H11T 8537   4.064   1.233   5.835 -1.4134 -1.1528  0.7930
   6623SM  C12S 8538   3.990   1.332   5.655  0.4446 -0.1664  0.0115
   6623SM  H12S 8539   4.021   1.244   5.595  2.4249 -1.0303  2.1547
   6623SM  H12T 8540   4.070   1.404   5.627  0.7741 -0.9995 -1.3013
   6623SM  C13S 8541   3.860   1.384   5.594 -0.2237  0.0125  0.3887
   6623SM  H13S 8542   3.850   1.493   5.610  1.6424  0.2429  0.2290
   6623SM  H13T 8543   3.779   1.326   5.644  0.4553 -0.5349  0.8793
   6623SM  C14S 8544   3.855   1.355   5.439 -0.1752  0.2578 -0.0826
   6623SM  H14S 8545   3.886   1.256   5.401 -1.4089  0.7353 -2.5102
   6623SM  H14T 8546   3.936   1.418   5.396  1.4703 -2.3786 -1.0878
   6623SM  C15S 8547   3.725   1.396   5.373  0.7222  0.3986 -0.8991
   6623SM  H15S 8548   3.705   1.501   5.405 -0.3244 -0.5735  2.0075
   6623SM  H15T 8549   3.647   1.328   5.414  2.1230 -0.2568  0.7665
   6623SM  C16S 8550   3.729   1.373   5.222 -0.3821  0.7873  0.1077
   6623SM  H16S 8551   3.786   1.283   5.191  0.6100  0.8239  1.7436
   6623SM  H16T 8552   3.783   1.461   5.180  1.0430 -0.2643 -0.3166
   6623SM  C17S 8553   3.589   1.383   5.162  0.5684 -0.2522 -0.7874
   6623SM  H17S 8554   3.546   1.478   5.200  1.0551 -0.0002 -0.8695
   6623SM  H17T 8555   3.522   1.301   5.195 -0.7844  0.9714 -0.4028
   6623SM  C18S 8556   3.582   1.371   5.009 -0.4186  0.8252 -0.0800
   6623SM  H18S 8557   3.674   1.406   4.958  0.3425 -1.4086 -0.3564
   6623SM  H18T 8558   3.500   1.438   4.974 -0.9722 -1.1076 -2.8206
   6623SM  H18U 8559   3.554   1.269   4.975  0.5212  0.1669  1.0854
   6623SM   C1F 8560   3.443   1.550   6.667  0.8084  0.2418  0.0386
   6623SM    OF 8561   3.421   1.654   6.734  0.3501 -0.1036 -0.4010
   6623SM   C2F 8562   3.331   1.482   6.588 -0.8139 -0.3799 -0.0466
   6623SM   H2F 8563   3.309   1.383   6.632 -0.9056 -1.3390 -2.1297
   6623SM   H2G 8564   3.372   1.451   6.489  0.8302 -0.6682  0.6813
   6623SM   C3F 8565   3.198   1.568   6.595 -0.3001 -0.0919 -0.4693
   6623SM   H3F 8566   3.209   1.662   6.538  0.2914  1.3879  1.9249
   6623SM   H3G 8567   3.178   1.596   6.701  0.4234 -0.8711 -0.1173
   6623SM   C4F 8568   3.069   1.491   6.565 -0.0446 -0.5831  0.2693
   6623SM   H4F 8569   2.992   1.569   6.584  1.0702  0.7861 -0.6721
   6623SM   H4G 8570   3.057   1.413   6.644 -0.6902  0.5251  1.3018
   6623SM   C5F 8571   3.072   1.432   6.424 -0.4143  0.2660 -0.0902
   6623SM   H5F 8572   3.149   1.354   6.406 -0.1842  0.4380  0.1260
   6623SM   H5G 8573   3.105   1.510   6.352  1.4310 -2.5944 -2.5798
   6623SM   C6F 8574   2.935   1.394   6.368 -0.3806 -1.1133 -0.5221
   6623SM   H6F 8575   2.850   1.453   6.410 -0.5205 -0.8450 -1.1658
   6623SM   H6G 8576   2.931   1.290   6.407  0.6155 -0.7628  0.5796
   6623SM   C7F 8577   2.937   1.397   6.212  0.0900 -0.2926  0.3987
   6623SM   H7F 8578   3.020   1.333   6.175  1.4400  0.2311  2.3421
   6623SM   H7G 8579   2.963   1.500   6.181  1.2302 -0.6307  0.1738
   6623SM   C8F 8580   2.802   1.371   6.151  0.0692 -0.1150 -0.2744
   6623SM   H8F 8581   2.778   1.426   6.058 -1.3097  0.2119  0.2405
   6623SM   H8G 8582   2.723   1.387   6.228  1.1401  2.0261  0.4515
   6623SM   C9F 8583   2.797   1.224   6.107  0.2565  0.2615 -0.0863
   6623SM   H9F 8584   2.839   1.152   6.180 -0.4130 -0.2124 -0.1670
   6623SM   H9G 8585   2.855   1.212   6.013  0.5390  0.3615  0.0738
   6623SM  C10F 8586   2.655   1.195   6.064  0.2029 -0.3559  0.0663
   6623SM  H10F 8587   2.613   1.280   6.006  1.9023  0.5126  0.0533
   6623SM  H10G 8588   2.587   1.169   6.148  0.0830 -1.6142 -0.3862
   6623SM  C11F 8589   2.643   1.069   5.974  0.4221 -0.2498  0.0146
   6623SM  H11F 8590   2.535   1.042   5.969 -0.0814  1.8371 -3.4181
   6623SM  H11G 8591   2.687   0.984   6.030 -1.0824 -1.1074 -0.0460
   6623SM  C12F 8592   2.685   1.082   5.825 -0.1424 -0.4527 -0.4119
   6623SM  H12F 8593   2.681   0.979   5.783 -0.0863 -0.2032 -1.0495
   6623SM  H12G 8594   2.792   1.112   5.820 -0.2371  0.3405  1.6449
   6623SM  C13F 8595   2.589   1.165   5.738 -0.1725 -0.9352 -0.3456
   6623SM  H13F 8596   2.604   1.275   5.743 -2.4764 -0.6134  0.6097
   6623SM  H13G 8597   2.485   1.156   5.775  0.1405  1.9919  1.4863
   6623SM  C14F 8598   2.579   1.098   5.600 -0.7984  0.2476 -0.2255
   6623SM  H14F 8599   2.530   1.003   5.631  0.0259  0.6671  2.6702
   6623SM  H14G 8600   2.685   1.086   5.567 -0.8868 -3.2985  0.3370
   6623SM  C15F 8601   2.505   1.173   5.493  0.0661  0.0815 -1.2580
   6623SM  H15F 8602   2.556   1.269   5.469 -0.0228  0.6423  0.6325
   6623SM  H15G 8603   2.402   1.186   5.533  0.1477 -3.0493  0.2518
   6623SM  C16F 8604   2.492   1.093   5.366 -0.6152  0.2418 -0.4424
   6623SM  H16F 8605   2.450   0.998   5.405  2.3155 -0.2103  2.0344
   6623SM  H16G 8606   2.596   1.074   5.335  0.3950  2.3756  1.3880
   6623SM  C17F 8607   2.424   1.161   5.247 -0.1848  0.5762 -0.7432
   6623SM  H17F 8608   2.478   1.251   5.211 -0.5530  0.0662 -2.6715
   6623SM  H17G 8609   2.326   1.198   5.284 -0.2484  0.8753 -1.2050
   6623SM  C18F 8610   2.396   1.061   5.135  0.8134 -0.4071 -0.3863
   6623SM  H18F 8611   2.339   1.124   5.062 -1.8219  1.1379  2.7355
   6623SM  H18G 8612   2.319   0.987   5.164  0.3075  0.7620  1.4333
   6623SM  C19F 8613   2.507   1.003   5.052  0.3986  0.1986  0.3044
   6623SM  H19F 8614   2.542   0.920   5.117  0.4242  0.4211  0.5787
   6623SM  H19G 8615   2.595   1.064   5.025  1.2227 -0.4344  1.4708
   6623SM  C20F 8616   2.458   0.942   4.921 -0.2120  0.2169 -0.0231
   6623SM  H20F 8617   2.401   1.005   4.850 -1.0547 -1.0958 -0.5650
   6623SM  H20G 8618   2.395   0.858   4.958 -0.9683  0.1225 -1.4543
   6623SM  C21F 8619   2.581   0.898   4.837 -1.0160 -0.3624  0.2329
   6623SM  H21F 8620   2.647   0.839   4.904  0.2449 -0.5800 -1.1574
   6623SM  H21G 8621   2.629   0.992   4.803 -2.7581  0.3592 -0.3584
   6623SM  C22F 8622   2.536   0.807   4.719 -0.3058 -0.1370  0.3274
   6623SM  H22F 8623   2.466   0.876   4.666 -1.1578 -0.1492  1.3952
   6623SM  H22G 8624   2.486   0.717   4.761  0.6179  0.8995  4.0702
   6623SM  C23F 8625   2.655   0.764   4.620 -0.5864 -0.4406 -0.4533
   6623SM  H23F 8626   2.630   0.726   4.519  0.1978  2.2869 -1.7728
   6623SM  H23G 8627   2.712   0.686   4.674  0.5794  1.0997  0.6061
   6623SM  H23H 8628   2.733   0.842   4.611 -1.0801  0.5670  2.6099
   6723SM     N 8629   3.992   5.321   7.003 -0.0570  0.0821  1.0902
   6723SM   C15 8630   4.084   5.386   7.106  0.2015  0.3526  0.1783
   6723SM  H15A 8631   4.145   5.324   7.170 -1.4056 -0.3069  1.1444
   6723SM  H15B 8632   4.024   5.446   7.173  0.1909  1.2277 -0.5895
   6723SM  H15C 8633   4.143   5.455   7.048 -0.9328 -0.1665 -1.6448
   6723SM   C14 8634   3.909   5.223   7.073 -0.0546 -0.1441  0.0494
   6723SM  H14A 8635   3.838   5.269   7.141  0.7512 -0.8018  1.3832
   6723SM  H14B 8636   3.970   5.156   7.132 -1.9525  0.5084  2.9884
   6723SM  H14C 8637   3.847   5.173   6.999 -4.0231  1.5298  1.9223
   6723SM   C13 8638   3.896   5.424   6.962  0.3098 -0.4376  0.0417
   6723SM  H13A 8639   3.830   5.451   7.043 -2.8175  0.4466 -2.6038
   6723SM  H13B 8640   3.825   5.384   6.890 -2.2209 -1.5810  2.9197
   6723SM  H13C 8641   3.938   5.517   6.929 -1.5113  0.4077 -0.0229
   6723SM   C12 8642   4.060   5.260   6.884 -0.1665 -0.1204 -0.6565
   6723SM  H12A 8643   4.126   5.180   6.911 -2.6171 -1.9407  0.2625
   6723SM  H12B 8644   4.118   5.342   6.843 -1.3313 -0.2102 -2.6533
   6723SM   C11 8645   3.969   5.206   6.769 -0.2014 -0.4147  0.1275
   6723SM  H11A 8646   4.052   5.169   6.705 -0.2275  0.3791 -0.3800
   6723SM  H11B 8647   3.921   5.292   6.718  0.7377  0.4886  0.7207
   6723SM     P 8648   3.925   4.961   6.867  0.1245 -0.4572 -0.3006
   6723SM   O13 8649   4.070   4.961   6.884  0.0428  0.4578  0.0351
   6723SM   O14 8650   3.832   4.943   6.988 -0.1262  0.1110  0.5113
   6723SM   O11 8651   3.886   4.863   6.751  0.5039  0.0057  0.4102
   6723SM   O12 8652   3.887   5.096   6.802 -0.1732 -0.2270  0.3325
   6723SM   C1S 8653   3.756   4.865   6.698 -0.0757 -0.4321 -0.3943
   6723SM   H1S 8654   3.678   4.895   6.771  0.3916 -4.0375  1.8637
   6723SM   H1T 8655   3.735   4.757   6.680  2.1837 -1.2917  1.5956
   6723SM    NF 8656   3.604   4.923   6.530  0.0657 -0.5023  1.1357
   6723SM   HNF 8657   3.589   4.845   6.469  1.7694  1.6089 -2.3579
   6723SM   C2S 8658   3.747   4.943   6.565  0.5826 -0.4400  0.0228
   6723SM   H2S 8659   3.768   5.045   6.604  4.4507 -1.4712  1.0423
   6723SM   C3S 8660   3.848   4.907   6.453  0.0938 -0.1413 -0.1239
   6723SM   H3S 8661   3.838   4.805   6.410  1.1820 -0.6996  0.8634
   6723SM    O3 8662   3.987   4.910   6.495  0.2684 -0.1682 -0.5933
   6723SM   HO3 8663   3.991   4.908   6.591 -0.2794 -4.0833 -0.4845
   6723SM   C4S 8664   3.829   5.010   6.348  0.2884 -1.2765  0.7204
   6723SM   H4S 8665   3.855   5.116   6.355 -3.1544 -0.1990 -0.5905
   6723SM   C5S 8666   3.753   4.990   6.240 -0.1664  0.7570  0.2080
   6723SM   H5S 8667   3.698   4.895   6.236 -0.5297  0.9322  0.9050
   6723SM   C6S 8668   3.725   5.085   6.132  0.5228 -0.0479 -0.7148
   6723SM   H6S 8669   3.822   5.132   6.107  0.4464 -0.4733 -1.8582
   6723SM   H6T 8670   3.665   5.164   6.182  1.3903 -0.0840  0.4375
   6723SM   C7S 8671   3.664   5.015   6.017 -0.1740  0.6162 -0.0548
   6723SM   H7S 8672   3.641   5.088   5.937  1.0664  1.2242  0.1262
   6723SM   H7T 8673   3.575   4.961   6.056  0.6887 -0.6372  0.2332
   6723SM   C8S 8674   3.759   4.922   5.948  0.2546  0.4116  0.1505
   6723SM   H8S 8675   3.795   4.851   6.025 -0.2202  1.5789  1.4986
   6723SM   H8T 8676   3.847   4.974   5.905 -0.8397  0.9592 -1.5352
   6723SM   C9S 8677   3.702   4.842   5.831  0.4505  0.3662 -0.6322
   6723SM   H9S 8678   3.647   4.912   5.763 -0.3464 -1.1759 -1.6391
   6723SM   H9T 8679   3.626   4.774   5.877  0.1635  1.4017  0.4817
   6723SM  C10S 8680   3.813   4.779   5.752  0.5415 -0.1426  0.4227
   6723SM  H10S 8681   3.866   4.700   5.810 -1.0158 -0.3543  1.6038
   6723SM  H10T 8682   3.878   4.865   5.722  1.1052 -1.1219 -1.3251
   6723SM  C11S 8683   3.761   4.727   5.619 -0.6745 -0.0269 -0.5678
   6723SM  H11S 8684   3.846   4.715   5.548  1.6254  0.9775  1.8451
   6723SM  H11T 8685   3.702   4.813   5.581  1.7539  1.5890 -0.8794
   6723SM  C12S 8686   3.684   4.596   5.632  0.2647  0.1568  0.2247
   6723SM  H12S 8687   3.598   4.603   5.702  0.9089  1.2999  0.9305
   6723SM  H12T 8688   3.763   4.529   5.673  0.8019  0.5499 -0.1514
   6723SM  C13S 8689   3.654   4.518   5.498 -0.3658  0.3989  0.1244
   6723SM  H13S 8690   3.638   4.409   5.510 -0.4133  0.4137  0.1997
   6723SM  H13T 8691   3.741   4.527   5.429 -0.4743 -1.4514 -0.2937
   6723SM  C14S 8692   3.540   4.572   5.417 -0.5561 -0.2682 -0.1146
   6723SM  H14S 8693   3.514   4.676   5.445  1.2430 -0.3486  2.1531
   6723SM  H14T 8694   3.454   4.510   5.449 -1.0066  1.0954  1.4239
   6723SM  C15S 8695   3.554   4.553   5.259  0.1186 -0.5550 -0.0735
   6723SM  H15S 8696   3.576   4.444   5.263  1.9965 -0.3794 -2.5821
   6723SM  H15T 8697   3.637   4.617   5.221  0.7316 -2.0534 -1.3708
   6723SM  C16S 8698   3.424   4.574   5.187 -0.3551  0.1621 -1.0105
   6723SM  H16S 8699   3.415   4.680   5.154  0.1500 -0.3040 -2.7501
   6723SM  H16T 8700   3.340   4.541   5.250 -0.2340 -1.4368 -1.6498
   6723SM  C17S 8701   3.412   4.480   5.070  0.1561  0.4585 -0.2853
   6723SM  H17S 8702   3.313   4.484   5.021  0.6862  1.4771 -1.3107
   6723SM  H17T 8703   3.418   4.375   5.106 -0.4701  0.5789  0.1965
   6723SM  C18S 8704   3.517   4.505   4.968 -0.1161  0.3048 -0.2512
   6723SM  H18S 8705   3.613   4.528   5.019 -0.1225 -0.4510  0.1051
   6723SM  H18T 8706   3.491   4.600   4.915  0.4518 -0.3807 -1.8401
   6723SM  H18U 8707   3.523   4.423   4.893 -0.8802 -1.1570  1.2346
   6723SM   C1F 8708   3.503   4.986   6.588 -0.3843  0.0435 -0.6671
   6723SM    OF 8709   3.527   5.070   6.677 -0.3032 -0.2368  0.4267
   6723SM   C2F 8710   3.358   4.946   6.551 -0.2625  0.4983  0.5805
   6723SM   H2F 8711   3.328   4.880   6.635  2.2412 -1.3871  0.1233
   6723SM   H2G 8712   3.348   4.880   6.462 -2.8671 -0.8945  1.8039
   6723SM   C3F 8713   3.256   5.061   6.543  0.3632 -0.0499 -0.2635
   6723SM   H3F 8714   3.254   5.116   6.640 -0.6210 -0.2902 -0.1340
   6723SM   H3G 8715   3.150   5.031   6.528  0.9672 -1.4659 -2.0504
   6723SM   C4F 8716   3.299   5.163   6.436 -0.0229 -0.2042  0.1321
   6723SM   H4F 8717   3.379   5.237   6.457 -1.3100  1.0348  0.8069
   6723SM   H4G 8718   3.213   5.229   6.413 -2.1636 -1.8673  2.7803
   6723SM   C5F 8719   3.322   5.107   6.292  0.0890  0.3879 -0.1518
   6723SM   H5F 8720   3.234   5.050   6.255  0.7041 -0.2684 -0.6518
   6723SM   H5G 8721   3.420   5.054   6.291  1.0001  1.9305  1.3591
   6723SM   C6F 8722   3.340   5.226   6.190  0.0756  0.1714 -0.3055
   6723SM   H6F 8723   3.423   5.286   6.233  0.9345  0.7735 -2.6480
   6723SM   H6G 8724   3.251   5.292   6.180  1.1413  1.7620  0.2712
   6723SM   C7F 8725   3.359   5.190   6.038 -0.3674  0.0841  0.1540
   6723SM   H7F 8726   3.261   5.143   6.017  0.2102 -0.9697 -0.2417
   6723SM   H7G 8727   3.438   5.113   6.027  0.9425  1.6490 -2.1127
   6723SM   C8F 8728   3.364   5.315   5.938 -0.0597 -0.2360 -0.1631
   6723SM   H8F 8729   3.458   5.374   5.948 -0.5227  0.1443  3.3005
   6723SM   H8G 8730   3.293   5.387   5.982  2.8013  1.3967  2.0973
   6723SM   C9F 8731   3.347   5.284   5.786 -0.1936  0.2154 -0.1479
   6723SM   H9F 8732   3.372   5.380   5.736  0.8983 -0.2270 -0.4763
   6723SM   H9G 8733   3.242   5.267   5.752 -0.5393  0.6644  0.6738
   6723SM  C10F 8734   3.434   5.169   5.728 -0.2346  0.6600 -0.1138
   6723SM  H10F 8735   3.384   5.080   5.771  1.4953 -0.9550 -1.2703
   6723SM  H10G 8736   3.539   5.166   5.765 -0.5978 -0.5145  0.8701
   6723SM  C11F 8737   3.430   5.157   5.575  0.0773 -0.3509 -0.3270
   6723SM  H11F 8738   3.465   5.255   5.536 -0.8723  0.6066  1.1364
   6723SM  H11G 8739   3.323   5.133   5.556 -0.2127 -1.0713  1.9695
   6723SM  C12F 8740   3.511   5.046   5.503 -0.2381  0.2044  0.3996
   6723SM  H12F 8741   3.475   4.943   5.524  1.9164 -1.2549 -2.4926
   6723SM  H12G 8742   3.619   5.058   5.524 -0.3198  0.9903  0.3923
   6723SM  C13F 8743   3.487   5.055   5.351  0.4934  0.1147  0.2133
   6723SM  H13F 8744   3.490   5.160   5.315  0.9238  0.3878  1.0253
   6723SM  H13G 8745   3.389   5.005   5.335  0.5039  0.3024 -0.4959
   6723SM  C14F 8746   3.584   4.966   5.274 -0.3145 -0.1618 -0.0730
   6723SM  H14F 8747   3.580   4.866   5.321  1.1325 -0.0320  0.3476
   6723SM  H14G 8748   3.683   5.015   5.278 -0.4409  0.0354  1.7029
   6723SM  C15F 8749   3.549   4.956   5.127 -0.0098  0.1767 -0.2523
   6723SM  H15F 8750   3.444   4.922   5.111 -0.5112  1.6619 -0.3375
   6723SM  H15G 8751   3.614   4.878   5.082  1.3812  0.8624  0.5187
   6723SM  C16F 8752   3.571   5.090   5.049  0.4252  0.2673 -0.2273
   6723SM  H16F 8753   3.675   5.114   5.077 -0.4032  1.7832  1.7365
   6723SM  H16G 8754   3.509   5.172   5.090  0.5749  0.7474 -0.9487
   6723SM  C17F 8755   3.543   5.089   4.897 -0.0536 -0.1232  0.5504
   6723SM  H17F 8756   3.435   5.082   4.872  0.2268 -2.3233 -0.2793
   6723SM  H17G 8757   3.595   5.002   4.851 -0.1824  0.6635 -1.1778
   6723SM  C18F 8758   3.615   5.209   4.830  0.6498  0.5866  0.0597
   6723SM  H18F 8759   3.724   5.190   4.836  0.3406 -0.8831  4.1126
   6723SM  H18G 8760   3.587   5.301   4.887 -2.2473  0.4749 -1.0110
   6723SM  C19F 8761   3.571   5.214   4.682 -0.2723  0.8485 -0.0831
   6723SM  H19F 8762   3.464   5.246   4.679 -0.2334  0.9220 -1.0523
   6723SM  H19G 8763   3.591   5.114   4.640 -1.9657  0.1370  0.7105
   6723SM  C20F 8764   3.644   5.316   4.596  0.4464 -0.8167 -0.0229
   6723SM  H20F 8765   3.751   5.291   4.584  0.8390  0.4033  0.7003
   6723SM  H20G 8766   3.639   5.417   4.642  0.3791 -0.7134 -0.2586
   6723SM  C21F 8767   3.598   5.309   4.447 -0.1744  0.0981  0.8439
   6723SM  H21F 8768   3.645   5.396   4.398 -0.8879  0.0796  0.1129
   6723SM  H21G 8769   3.488   5.317   4.438 -0.0144  1.0533 -0.5331
   6723SM  C22F 8770   3.640   5.176   4.371 -0.4417 -0.1722  1.0587
   6723SM  H22F 8771   3.592   5.089   4.420  1.1641 -1.9501 -0.3789
   6723SM  H22G 8772   3.751   5.177   4.373 -0.2166  0.7354 -2.8554
   6723SM  C23F 8773   3.597   5.169   4.221  0.2942  0.6013  0.0832
   6723SM  H23F 8774   3.636   5.071   4.187  0.8658  0.4197  1.2356
   6723SM  H23G 8775   3.643   5.257   4.171 -1.0336  1.6194  0.6091
   6723SM  H23H 8776   3.487   5.159   4.210  0.2564  2.2514 -1.4380
   6823SM     N 8777   1.974   1.273   6.945 -0.7480  0.1466 -0.3245
   6823SM   C15 8778   1.954   1.366   7.061  0.1695  0.1686  0.0902
   6823SM  H15A 8779   1.867   1.345   7.120 -2.4364 -0.2229 -3.5189
   6823SM  H15B 8780   1.932   1.465   7.024 -2.3130  0.4008  1.9723
   6823SM  H15C 8781   2.044   1.383   7.118 -0.6203  2.8239  0.7001
   6823SM   C14 8782   1.999   1.142   7.018 -0.1701  0.5840 -0.5908
   6823SM  H14A 8783   2.083   1.146   7.086 -0.0384  2.1754 -0.8075
   6823SM  H14B 8784   2.016   1.061   6.949  1.4481 -0.2836  0.7436
   6823SM  H14C 8785   1.913   1.107   7.073 -0.9639  3.3717  0.0711
   6823SM   C13 8786   1.848   1.269   6.860  0.3560 -0.1809 -0.8160
   6823SM  H13A 8787   1.815   1.364   6.822  1.4800  0.6106  0.1333
   6823SM  H13B 8788   1.759   1.233   6.911 -1.4006  1.4363 -2.5527
   6823SM  H13C 8789   1.857   1.210   6.770 -0.5554  0.5308 -1.3884
   6823SM   C12 8790   2.092   1.310   6.862  0.4552  0.2239  0.2040
   6823SM  H12A 8791   2.069   1.391   6.794  1.2979 -0.5762 -1.0640
   6823SM  H12B 8792   2.107   1.236   6.785 -0.0948 -1.1122  1.3428
   6823SM   C11 8793   2.224   1.331   6.928 -0.4930  0.1342 -0.7093
   6823SM  H11A 8794   2.237   1.247   6.999  1.1197  1.5839  0.8295
   6823SM  H11B 8795   2.219   1.421   6.993 -1.5164  0.4890 -1.2513
   6823SM     P 8796   2.469   1.381   6.860 -0.1350  0.0062  0.0172
   6823SM   O13 8797   2.462   1.506   6.939  0.6385  0.8026  0.9375
   6823SM   O14 8798   2.564   1.274   6.915 -0.2085 -0.3144 -0.0933
   6823SM   O11 8799   2.522   1.413   6.717  0.1734 -0.1455  0.2410
   6823SM   O12 8800   2.326   1.323   6.831  0.4417  0.1001  0.0115
   6823SM   C1S 8801   2.578   1.320   6.623  0.0762  0.1526  0.1907
   6823SM   H1S 8802   2.650   1.251   6.672  2.3399  1.8373 -0.5911
   6823SM   H1T 8803   2.637   1.368   6.543 -0.6478 -2.2429 -1.9328
   6823SM    NF 8804   2.558   1.141   6.472  0.2820  0.0688  0.5598
   6823SM   HNF 8805   2.573   1.159   6.375 -0.8327 -1.0778  0.1480
   6823SM   C2S 8806   2.478   1.236   6.540 -0.0484  0.4860  0.2661
   6823SM   H2S 8807   2.402   1.184   6.602 -0.3672 -0.7651 -1.1095
   6823SM   C3S 8808   2.390   1.329   6.450  0.4610  0.2423 -0.5079
   6823SM   H3S 8809   2.455   1.406   6.404  0.8315  1.2846  1.6107
   6823SM    O3 8810   2.301   1.408   6.529  0.0042 -0.2478  0.4418
   6823SM   HO3 8811   2.350   1.418   6.611  1.6592 -0.6622 -0.4342
   6823SM   C4S 8812   2.322   1.247   6.345  0.3342  0.1152  0.3075
   6823SM   H4S 8813   2.295   1.144   6.374  0.7873 -0.0064  0.3046
   6823SM   C5S 8814   2.289   1.290   6.223 -0.2979 -0.2973 -0.0474
   6823SM   H5S 8815   2.303   1.397   6.201 -2.9187  0.5216  1.8453
   6823SM   C6S 8816   2.221   1.202   6.124 -0.2040 -0.1839 -0.1445
   6823SM   H6S 8817   2.252   1.244   6.026  2.8950 -0.6245  0.5233
   6823SM   H6T 8818   2.111   1.216   6.133 -0.4821 -2.8517  1.9372
   6823SM   C7S 8819   2.244   1.053   6.138 -0.0517  0.6751 -0.1903
   6823SM   H7S 8820   2.182   1.017   6.223 -2.0518  1.6192 -1.1900
   6823SM   H7T 8821   2.349   1.029   6.164 -0.0715 -0.5179 -1.1414
   6823SM   C8S 8822   2.215   0.968   6.012 -0.6462 -0.8730  0.0944
   6823SM   H8S 8823   2.283   0.989   5.926 -0.8158 -0.7503 -0.0108
   6823SM   H8T 8824   2.114   0.994   5.973 -1.7169 -3.3045  1.0405
   6823SM   C9S 8825   2.230   0.817   6.034  0.3663  0.3791 -0.5480
   6823SM   H9S 8826   2.145   0.791   6.102 -0.2441 -0.9516 -1.7657
   6823SM   H9T 8827   2.326   0.795   6.086 -0.4152  0.9544  1.2387
   6823SM  C10S 8828   2.223   0.732   5.907 -0.2233  0.1257  0.2408
   6823SM  H10S 8829   2.225   0.624   5.932 -0.0943  0.0244 -0.1837
   6823SM  H10T 8830   2.316   0.758   5.851 -1.0060 -0.6017 -1.4835
   6823SM  C11S 8831   2.103   0.761   5.822 -0.3422  0.8087 -0.1035
   6823SM  H11S 8832   2.093   0.868   5.794 -0.1715  0.5779 -1.0763
   6823SM  H11T 8833   2.010   0.742   5.880 -0.8167  0.1370 -1.0428
   6823SM  C12S 8834   2.112   0.671   5.698 -0.2323 -0.2349  0.0317
   6823SM  H12S 8835   2.143   0.568   5.728  3.8190  0.3142 -1.6971
   6823SM  H12T 8836   2.190   0.706   5.628  1.3521  0.1024  1.8680
   6823SM  C13S 8837   1.979   0.665   5.623  0.3847  0.1106  0.0971
   6823SM  H13S 8838   1.984   0.758   5.563  3.3647  0.4771  0.7504
   6823SM  H13T 8839   1.894   0.663   5.695  0.9270 -1.5999  0.7367
   6823SM  C14S 8840   1.963   0.543   5.531 -0.3052  0.7419 -0.0448
   6823SM  H14S 8841   1.863   0.520   5.489 -0.4035 -0.3874  0.7374
   6823SM  H14T 8842   1.990   0.456   5.595 -0.3560  0.6891 -0.0955
   6823SM  C15S 8843   2.069   0.538   5.414  0.2758 -0.3524  0.0492
   6823SM  H15S 8844   2.164   0.505   5.460  0.8900  2.3505  0.8831
   6823SM  H15T 8845   2.083   0.641   5.376  0.1914 -0.7604 -1.1238
   6823SM  C16S 8846   2.010   0.452   5.304  0.5920 -0.4694  0.5120
   6823SM  H16S 8847   1.914   0.485   5.259  2.0146 -0.4605 -2.8017
   6823SM  H16T 8848   1.979   0.348   5.329 -1.0893 -0.0012  0.5266
   6823SM  C17S 8849   2.103   0.443   5.182  0.5221  0.1465 -0.4387
   6823SM  H17S 8850   2.196   0.390   5.212 -0.8824 -1.1143  1.9247
   6823SM  H17T 8851   2.138   0.539   5.140 -1.0000  1.0340  0.2307
   6823SM  C18S 8852   2.048   0.372   5.064  0.2074 -0.0983 -0.7912
   6823SM  H18S 8853   2.030   0.263   5.075  1.6471 -0.1893  1.2682
   6823SM  H18T 8854   2.122   0.388   4.983  0.2746 -1.0984 -0.9387
   6823SM  H18U 8855   1.952   0.417   5.034 -0.1395  0.5057  1.0730
   6823SM   C1F 8856   2.604   1.033   6.529 -0.7413  0.2941 -0.2194
   6823SM    OF 8857   2.564   1.003   6.643 -0.0116 -0.1915 -0.7397
   6823SM   C2F 8858   2.709   0.945   6.462  0.9008  0.2756  0.3690
   6823SM   H2F 8859   2.805   0.936   6.518  1.7899 -0.5832 -1.2289
   6823SM   H2G 8860   2.727   0.983   6.360 -0.4298  2.2196  0.8088
   6823SM   C3F 8861   2.660   0.799   6.439 -0.2761  0.5440 -0.1860
   6823SM   H3F 8862   2.633   0.757   6.539 -0.2173  0.3398 -0.2563
   6823SM   H3G 8863   2.736   0.737   6.388 -0.7807  0.8597 -1.3598
   6823SM   C4F 8864   2.534   0.798   6.353 -0.2425  0.4317 -0.8239
   6823SM   H4F 8865   2.562   0.848   6.257  1.7488 -1.1076 -1.1033
   6823SM   H4G 8866   2.459   0.860   6.408  0.8706 -0.1862  1.4871
   6823SM   C5F 8867   2.476   0.653   6.323 -0.2293 -0.6582  0.3552
   6823SM   H5F 8868   2.539   0.573   6.367 -2.3009 -1.2188  2.5613
   6823SM   H5G 8869   2.473   0.639   6.213  0.2973 -1.5947  0.4479
   6823SM   C6F 8870   2.338   0.637   6.383 -0.2990  0.4427  0.1483
   6823SM   H6F 8871   2.259   0.705   6.342  0.1674  1.0828  0.2942
   6823SM   H6G 8872   2.331   0.669   6.489  3.0554  0.6114  0.4148
   6823SM   C7F 8873   2.283   0.500   6.357 -0.1048  0.6716  0.2533
   6823SM   H7F 8874   2.177   0.504   6.389  0.0348  4.0210  0.5898
   6823SM   H7G 8875   2.342   0.428   6.419  1.3948  1.1096 -0.6114
   6823SM   C8F 8876   2.266   0.453   6.209 -0.4298  0.2552 -0.0568
   6823SM   H8F 8877   2.366   0.457   6.160 -1.3357 -3.2516 -2.5783
   6823SM   H8G 8878   2.201   0.521   6.151 -1.5939 -1.5459 -0.9493
   6823SM   C9F 8879   2.204   0.311   6.186 -0.3704  0.4298 -0.2320
   6823SM   H9F 8880   2.093   0.301   6.180 -0.2602 -1.0061 -0.1619
   6823SM   H9G 8881   2.237   0.248   6.272  0.6761 -0.2055 -1.0811
   6823SM  C10F 8882   2.264   0.244   6.063 -0.0166  0.4586 -0.2320
   6823SM  H10F 8883   2.235   0.136   6.059  2.6340 -0.3099 -0.2656
   6823SM  H10G 8884   2.374   0.255   6.070 -0.1667  1.0576  1.8618
   6823SM  C11F 8885   2.206   0.293   5.934  0.0652  0.2152  0.8631
   6823SM  H11F 8886   2.228   0.401   5.919 -0.3199  0.0812 -0.8062
   6823SM  H11G 8887   2.096   0.287   5.936 -0.0833  0.8589 -1.8618
   6823SM  C12F 8888   2.258   0.204   5.809 -0.5819 -0.0821  0.2596
   6823SM  H12F 8889   2.214   0.103   5.823 -0.1370 -0.6941 -2.2697
   6823SM  H12G 8890   2.369   0.200   5.812 -0.3803  3.4151  1.3476
   6823SM  C13F 8891   2.199   0.272   5.683 -0.1640 -0.0523  0.2399
   6823SM  H13F 8892   2.243   0.373   5.668 -0.3237  0.1136  0.8416
   6823SM  H13G 8893   2.089   0.278   5.701 -0.2369 -2.4703  0.8774
   6823SM  C14F 8894   2.208   0.181   5.561  0.0614 -0.4487  0.1370
   6823SM  H14F 8895   2.300   0.118   5.562 -0.0607 -0.6245  1.2240
   6823SM  H14G 8896   2.209   0.229   5.461 -1.5022 -0.9674 -0.1417
   6823SM  C15F 8897   2.091   0.087   5.538 -0.4900 -0.1778  0.0840
   6823SM  H15F 8898   2.012   0.139   5.479 -0.4846 -0.0530  0.1855
   6823SM  H15G 8899   2.052   0.040   5.630 -0.3808 -1.8541 -0.7008
   6823SM  C16F 8900   2.133  -0.039   5.468  0.0637  0.8376 -0.3315
   6823SM  H16F 8901   2.050  -0.108   5.442  0.4188  0.9801 -1.9503
   6823SM  H16G 8902   2.192  -0.092   5.546  0.8654  2.4752  0.2317
   6823SM  C17F 8903   2.213  -0.033   5.345 -0.3536 -0.4469 -0.4495
   6823SM  H17F 8904   2.320  -0.012   5.366 -0.2637 -0.5484 -0.7896
   6823SM  H17G 8905   2.182   0.050   5.278 -3.0708 -1.3400 -0.3933
   6823SM  C18F 8906   2.220  -0.167   5.269  0.1080  0.0685 -0.4184
   6823SM  H18F 8907   2.120  -0.189   5.226 -0.2243  3.0610 -1.3457
   6823SM  H18G 8908   2.239  -0.249   5.342  0.9995  0.6240 -0.0075
   6823SM  C19F 8909   2.330  -0.175   5.164  0.3730  0.5205 -0.1161
   6823SM  H19F 8910   2.433  -0.165   5.204  0.7975 -3.4247  0.2095
   6823SM  H19G 8911   2.318  -0.085   5.101  0.7691  1.8303  1.6064
   6823SM  C20F 8912   2.321  -0.309   5.082  0.6326 -0.5582 -0.4265
   6823SM  H20F 8913   2.396  -0.300   5.001  1.9699  0.3036  0.8600
   6823SM  H20G 8914   2.219  -0.317   5.038  0.5415 -0.6357 -0.2043
   6823SM  C21F 8915   2.369  -0.440   5.157  0.2900  0.0827 -0.1055
   6823SM  H21F 8916   2.352  -0.540   5.112 -2.0041  0.1383  0.5448
   6823SM  H21G 8917   2.311  -0.438   5.252 -0.8901  0.3394 -0.8201
   6823SM  C22F 8918   2.519  -0.441   5.201  0.6544 -0.3146 -0.4498
   6823SM  H22F 8919   2.538  -0.360   5.276  0.1104 -0.4800 -0.1288
   6823SM  H22G 8920   2.594  -0.427   5.120 -0.3613 -2.3776 -1.8272
   6823SM  C23F 8921   2.565  -0.576   5.264  0.2292 -0.6097  0.8785
   6823SM  H23F 8922   2.672  -0.582   5.294  0.5818  2.2740  0.5202
   6823SM  H23G 8923   2.560  -0.669   5.204  2.2585  0.4061 -1.0504
   6823SM  H23H 8924   2.518  -0.593   5.363  1.1916 -0.5767  1.3590
   6923SM     N 8925   5.653   1.979   7.467 -0.2082  0.4089  0.1413
   6923SM   C15 8926   5.585   2.106   7.505  0.5321 -0.7988  0.1493
   6923SM  H15A 8927   5.660   2.183   7.515 -1.4660  1.0178  2.3030
   6923SM  H15B 8928   5.529   2.100   7.597 -0.0073 -1.2706 -0.1972
   6923SM  H15C 8929   5.513   2.139   7.431 -0.0981 -1.9805  0.2050
   6923SM   C14 8930   5.778   1.969   7.555  0.3027  0.2723 -0.6437
   6923SM  H14A 8931   5.820   1.869   7.552 -0.4628 -0.0721 -0.1610
   6923SM  H14B 8932   5.729   1.985   7.650 -0.5215 -1.9810 -0.6178
   6923SM  H14C 8933   5.851   2.047   7.543  1.6592 -0.5302  1.8502
   6923SM   C13 8934   5.562   1.866   7.500  0.3360  0.1866  0.1255
   6923SM  H13A 8935   5.471   1.885   7.445 -0.3278 -2.5695  0.1354
   6923SM  H13B 8936   5.528   1.873   7.603  0.5017  2.8610  0.0644
   6923SM  H13C 8937   5.593   1.767   7.470 -0.3281 -0.7686  2.3352
   6923SM   C12 8938   5.677   1.983   7.315  0.1710  0.0930 -0.0271
   6923SM  H12A 8939   5.730   1.895   7.284  0.5344 -0.3741  1.7929
   6923SM  H12B 8940   5.753   2.058   7.298  0.3122 -0.1797 -0.5987
   6923SM   C11 8941   5.562   2.001   7.220  0.1003 -0.3014 -0.3847
   6923SM  H11A 8942   5.596   2.022   7.117  0.4378 -0.8972 -0.3998
   6923SM  H11B 8943   5.506   2.090   7.256 -0.2425 -1.2353  1.5701
   6923SM     P 8944   5.513   1.752   7.170 -0.1342 -0.2441 -0.2122
   6923SM   O13 8945   5.660   1.754   7.152 -0.2665 -0.2681  0.3140
   6923SM   O14 8946   5.449   1.667   7.275 -0.0365  0.3936 -0.2279
   6923SM   O11 8947   5.444   1.731   7.032  0.2479  0.3147  0.2331
   6923SM   O12 8948   5.476   1.888   7.219  0.3217  0.2284 -0.5893
   6923SM   C1S 8949   5.335   1.816   6.992  0.3085 -0.3975  0.2028
   6923SM   H1S 8950   5.359   1.924   6.986 -0.0375 -0.2285  1.4902
   6923SM   H1T 8951   5.248   1.812   7.061  1.1863  0.1405  1.3609
   6923SM    NF 8952   5.199   1.871   6.787  0.2392  0.1081  0.5674
   6923SM   HNF 8953   5.100   1.859   6.783  0.2786  0.0679 -1.5555
   6923SM   C2S 8954   5.273   1.764   6.854  0.0232  0.0491 -0.3900
   6923SM   H2S 8955   5.351   1.730   6.784 -0.5109 -2.0431 -0.0160
   6923SM   C3S 8956   5.185   1.637   6.880  0.9803 -0.2619  0.5172
   6923SM   H3S 8957   5.092   1.658   6.937  0.7045 -0.1145  0.0205
   6923SM    O3 8958   5.256   1.537   6.950 -0.6213  0.1969 -0.7454
   6923SM   HO3 8959   5.348   1.564   6.949 -0.6970  0.5719  0.5683
   6923SM   C4S 8960   5.134   1.577   6.754 -0.6829  0.2923  0.4810
   6923SM   H4S 8961   5.216   1.562   6.683 -0.3992 -2.1247  1.2024
   6923SM   C5S 8962   5.003   1.537   6.737  0.3054  0.7061  0.0617
   6923SM   H5S 8963   4.923   1.552   6.811  0.6260 -0.2809  0.6347
   6923SM   C6S 8964   4.954   1.468   6.613 -0.7552 -0.5351  0.2030
   6923SM   H6S 8965   4.844   1.480   6.610 -0.5773  1.5644  0.1855
   6923SM   H6T 8966   4.985   1.362   6.615 -1.1108 -0.6300  1.4040
   6923SM   C7S 8967   5.015   1.536   6.487  0.4599 -0.2798  0.2255
   6923SM   H7S 8968   5.121   1.567   6.495 -0.3123  2.2101  2.0463
   6923SM   H7T 8969   4.968   1.635   6.473  0.9713  0.0286  0.6460
   6923SM   C8S 8970   4.978   1.464   6.356 -0.3861  0.0288 -0.6695
   6923SM   H8S 8971   4.874   1.429   6.375 -0.8481  1.3764 -0.5996
   6923SM   H8T 8972   5.061   1.394   6.335  1.1345  1.3493  0.5902
   6923SM   C9S 8973   4.976   1.558   6.244  0.0002  0.0453 -0.2119
   6923SM   H9S 8974   5.078   1.600   6.231  0.6149 -1.3936 -0.2234
   6923SM   H9T 8975   4.923   1.652   6.271 -0.6800 -0.2774 -0.3915
   6923SM  C10S 8976   4.927   1.486   6.117 -0.5772  0.0708 -0.5962
   6923SM  H10S 8977   4.819   1.459   6.127 -1.1309  2.0595 -0.6833
   6923SM  H10T 8978   4.990   1.395   6.109 -0.3292  0.2802 -1.0265
   6923SM  C11S 8979   4.958   1.556   5.991 -1.0285 -0.5766 -0.6096
   6923SM  H11S 8980   5.068   1.557   5.976 -1.0139 -0.1845 -0.4687
   6923SM  H11T 8981   4.929   1.662   6.004  1.4592  0.3989 -2.1264
   6923SM  C12S 8982   4.897   1.517   5.861  0.4964 -0.1218  0.4416
   6923SM  H12S 8983   4.949   1.594   5.800  1.1490 -0.3376  0.7091
   6923SM  H12T 8984   4.787   1.533   5.864  0.3619 -1.1123  1.4067
   6923SM  C13S 8985   4.924   1.367   5.830 -0.8143  0.0883 -0.1983
   6923SM  H13S 8986   4.884   1.307   5.915  0.9151  1.2925  1.5506
   6923SM  H13T 8987   5.033   1.349   5.823 -0.8621  0.2910 -2.0832
   6923SM  C14S 8988   4.836   1.320   5.707  0.3239 -0.4607 -0.0409
   6923SM  H14S 8989   4.863   1.373   5.613 -2.2474  2.9636  0.9181
   6923SM  H14T 8990   4.728   1.339   5.725  0.6123  1.8146 -0.3820
   6923SM  C15S 8991   4.856   1.163   5.689  0.6828 -0.2622 -0.4938
   6923SM  H15S 8992   4.861   1.108   5.785 -0.2751 -0.2707 -0.4318
   6923SM  H15T 8993   4.955   1.158   5.640  0.9824 -0.9663  0.1741
   6923SM  C16S 8994   4.748   1.109   5.604 -0.0693  0.6507 -0.1221
   6923SM  H16S 8995   4.663   1.100   5.674  1.8105 -0.4867  2.1376
   6923SM  H16T 8996   4.784   1.007   5.576 -0.6224 -0.1652  1.9968
   6923SM  C17S 8997   4.707   1.192   5.478 -0.4561 -0.5852  0.0914
   6923SM  H17S 8998   4.783   1.260   5.436 -0.6731 -0.1414  0.4145
   6923SM  H17T 8999   4.620   1.258   5.498  0.3357  0.4403  0.2238
   6923SM  C18S 9000   4.665   1.107   5.359 -0.9762  0.1554  0.4965
   6923SM  H18S 9001   4.740   1.032   5.325 -1.7472 -0.7962  0.8713
   6923SM  H18T 9002   4.637   1.178   5.278  0.5800  1.6683  1.2061
   6923SM  H18U 9003   4.575   1.049   5.386 -2.0748  1.7239  0.3588
   6923SM   C1F 9004   5.258   1.986   6.746  0.1242  0.0431  0.4413
   6923SM    OF 9005   5.375   2.009   6.763 -0.0068 -0.8320  0.0134
   6923SM   C2F 9006   5.171   2.076   6.663 -0.1835 -0.3632  0.0603
   6923SM   H2F 9007   5.072   2.078   6.713  0.3113  1.6856  1.0673
   6923SM   H2G 9008   5.172   2.038   6.558  1.2378  3.8985 -1.7042
   6923SM   C3F 9009   5.217   2.222   6.652 -0.5767  0.5335  0.2494
   6923SM   H3F 9010   5.170   2.277   6.569 -2.2241  1.1354  1.5222
   6923SM   H3G 9011   5.326   2.234   6.633 -0.9843  0.2931 -2.5429
   6923SM   C4F 9012   5.187   2.312   6.776  0.0810  0.0175  0.3932
   6923SM   H4F 9013   5.270   2.297   6.848 -0.2269 -1.9628  0.3704
   6923SM   H4G 9014   5.090   2.277   6.818  0.5261 -1.1955  0.4390
   6923SM   C5F 9015   5.178   2.460   6.736  0.1283 -0.5084 -0.5459
   6923SM   H5F 9016   5.141   2.506   6.830 -2.3287 -0.6431 -1.3862
   6923SM   H5G 9017   5.093   2.477   6.668  0.6566 -0.2735 -1.1566
   6923SM   C6F 9018   5.306   2.531   6.680 -0.1218  0.3176 -0.0339
   6923SM   H6F 9019   5.334   2.492   6.581 -3.1574  0.4511 -1.0536
   6923SM   H6G 9020   5.395   2.497   6.738  0.5205 -0.1473 -1.2655
   6923SM   C7F 9021   5.297   2.682   6.688 -0.0823 -0.2342 -0.0901
   6923SM   H7F 9022   5.263   2.718   6.787 -1.4292  0.5285 -0.7980
   6923SM   H7G 9023   5.226   2.717   6.610  0.1207  1.2042  0.3437
   6923SM   C8F 9024   5.429   2.753   6.655 -0.2444 -0.0813  0.4276
   6923SM   H8F 9025   5.502   2.728   6.734 -0.0292 -0.4048  0.1301
   6923SM   H8G 9026   5.395   2.859   6.652 -2.3784 -0.7266 -1.1459
   6923SM   C9F 9027   5.485   2.719   6.509  0.2765 -0.5608 -0.7057
   6923SM   H9F 9028   5.400   2.726   6.437 -1.3738 -0.3315  1.1845
   6923SM   H9G 9029   5.509   2.611   6.499  2.1702 -0.0020 -3.0797
   6923SM  C10F 9030   5.605   2.813   6.473  0.1891  0.0922 -0.2794
   6923SM  H10F 9031   5.655   2.785   6.378 -1.1038  0.8626 -1.2030
   6923SM  H10G 9032   5.688   2.809   6.547  1.5622  0.6412 -1.7241
   6923SM  C11F 9033   5.566   2.960   6.457  0.7840 -0.6917 -0.1115
   6923SM  H11F 9034   5.659   3.019   6.444 -0.5097  1.4553 -0.1340
   6923SM  H11G 9035   5.511   2.995   6.548 -0.0118  1.0954 -1.2106
   6923SM  C12F 9036   5.485   2.990   6.335  0.6319 -0.4454 -0.1391
   6923SM  H12F 9037   5.449   3.095   6.335  1.0245 -0.3076  0.1789
   6923SM  H12G 9038   5.399   2.920   6.327 -0.2615  0.7159 -0.8403
   6923SM  C13F 9039   5.563   2.957   6.199 -0.2717  0.7522  0.5375
   6923SM  H13F 9040   5.490   2.920   6.124  1.8148 -0.3473 -1.0531
   6923SM  H13G 9041   5.639   2.877   6.209  1.2322  1.9540 -0.7053
   6923SM  C14F 9042   5.635   3.073   6.140  0.3275 -0.4699  0.2819
   6923SM  H14F 9043   5.726   3.090   6.202  0.1426 -0.0846  0.4502
   6923SM  H14G 9044   5.575   3.165   6.155 -0.3490 -0.6158 -1.3238
   6923SM  C15F 9045   5.676   3.067   5.990  0.2852  0.6290 -0.1112
   6923SM  H15F 9046   5.590   3.036   5.926 -0.3908 -0.2418  1.1842
   6923SM  H15G 9047   5.755   2.989   5.986 -0.3122  0.0567 -1.1186
   6923SM  C16F 9048   5.747   3.189   5.936 -0.3768 -0.4139  0.0231
   6923SM  H16F 9049   5.815   3.220   6.018  0.9266 -1.8850 -0.4300
   6923SM  H16G 9050   5.677   3.274   5.932  0.0378 -0.1199 -2.3023
   6923SM  C17F 9051   5.843   3.188   5.812  0.4412 -0.1852 -0.1689
   6923SM  H17F 9052   5.777   3.164   5.726 -1.6231  3.7198  0.1343
   6923SM  H17G 9053   5.921   3.109   5.820 -1.6547 -2.3367  0.4261
   6923SM  C18F 9054   5.899   3.324   5.786  0.1581  0.2017  0.3417
   6923SM  H18F 9055   5.981   3.326   5.861 -1.1248 -1.8608  1.9328
   6923SM  H18G 9056   5.828   3.408   5.801  1.8151  1.4240  1.7493
   6923SM  C19F 9057   5.958   3.331   5.642 -0.5748 -0.0718  0.0272
   6923SM  H19F 9058   5.878   3.283   5.582 -1.5183  2.0061 -0.4874
   6923SM  H19G 9059   6.043   3.260   5.637 -1.9591 -1.9997  1.9211
   6923SM  C20F 9060   5.985   3.474   5.588 -0.3150  0.0675  0.2545
   6923SM  H20F 9061   6.049   3.528   5.661 -0.2756 -0.6571  0.7638
   6923SM  H20G 9062   5.885   3.522   5.585 -0.0580  0.7899  1.9056
   6923SM  C21F 9063   6.072   3.479   5.466  0.8975  0.4442 -0.0624
   6923SM  H21F 9064   6.030   3.430   5.376  1.3791  0.8824 -0.5311
   6923SM  H21G 9065   6.167   3.423   5.484  0.3430 -0.7001 -0.6104
   6923SM  C22F 9066   6.092   3.615   5.401 -0.9891  0.1047  0.1820
   6923SM  H22F 9067   6.001   3.680   5.401 -0.4133  0.9417  0.6168
   6923SM  H22G 9068   6.119   3.600   5.295 -2.8140  0.5485 -0.3836
   6923SM  C23F 9069   6.213   3.695   5.452 -0.4563 -0.1176  0.2804
   6923SM  H23F 9070   6.299   3.627   5.436 -0.0485  0.4896 -0.1367
   6923SM  H23G 9071   6.199   3.723   5.559 -0.7466 -1.8002  0.7177
   6923SM  H23H 9072   6.218   3.788   5.392 -0.7858 -0.6302 -0.5560
   7023SM     N 9073   4.747   1.689   7.311  0.3924 -0.1571 -0.2117
   7023SM   C15 9074   4.636   1.791   7.301  0.1078 -0.1907 -0.4225
   7023SM  H15A 9075   4.617   1.839   7.396  1.1008 -1.2230  0.3236
   7023SM  H15B 9076   4.547   1.735   7.276  0.9844 -0.9641 -2.0137
   7023SM  H15C 9077   4.658   1.871   7.232 -0.5570  0.2055 -0.1847
   7023SM   C14 9078   4.846   1.752   7.404  0.1210 -0.3546  0.2834
   7023SM  H14A 9079   4.925   1.682   7.424  1.1818  0.1775 -1.8066
   7023SM  H14B 9080   4.792   1.771   7.496 -1.8744 -0.4686 -0.8023
   7023SM  H14C 9081   4.889   1.843   7.364  0.2689  0.3325  1.9060
   7023SM   C13 9082   4.707   1.562   7.366 -0.4699 -0.6622 -0.5228
   7023SM  H13A 9083   4.793   1.500   7.383 -0.6783 -0.9613 -0.5412
   7023SM  H13B 9084   4.646   1.511   7.293 -0.2893 -0.0832 -1.0882
   7023SM  H13C 9085   4.662   1.564   7.464  0.8130  0.6649  0.0745
   7023SM   C12 9086   4.820   1.662   7.178 -0.1515  0.1396 -0.2494
   7023SM  H12A 9087   4.897   1.594   7.210 -0.5274 -0.9532 -1.5948
   7023SM  H12B 9088   4.867   1.752   7.141  0.5515 -0.5557 -1.1011
   7023SM   C11 9089   4.737   1.595   7.066 -0.2918  0.1439  0.5403
   7023SM  H11A 9090   4.776   1.594   6.962  2.4736 -0.2749  1.5055
   7023SM  H11B 9091   4.654   1.665   7.042  1.6762  1.7109 -2.2607
   7023SM     P 9092   4.775   1.347   7.083 -0.6540  0.2691 -0.1559
   7023SM   O13 9093   4.907   1.396   7.121 -0.6644 -0.6280  0.1491
   7023SM   O14 9094   4.724   1.235   7.166  0.0662 -0.1942  0.4031
   7023SM   O11 9095   4.773   1.311   6.926  0.1497  0.3616 -0.1975
   7023SM   O12 9096   4.679   1.463   7.102  0.0411 -0.2206 -0.0444
   7023SM   C1S 9097   4.643   1.297   6.870 -0.9448  1.0405 -0.4385
   7023SM   H1S 9098   4.585   1.392   6.876 -0.9364  1.1193 -1.4416
   7023SM   H1T 9099   4.579   1.219   6.916  0.7892 -0.1643  0.0094
   7023SM    NF 9100   4.497   1.285   6.669  0.5007 -0.2443  0.5891
   7023SM   HNF 9101   4.443   1.202   6.672 -1.7766  1.0601 -1.1097
   7023SM   C2S 9102   4.641   1.270   6.712  0.6289 -0.5660  0.4683
   7023SM   H2S 9103   4.700   1.338   6.646 -0.3116  0.5715  0.7572
   7023SM   C3S 9104   4.699   1.136   6.683  0.1620  0.0111 -0.9351
   7023SM   H3S 9105   4.646   1.059   6.743 -0.5676  0.8572 -0.4707
   7023SM    O3 9106   4.835   1.124   6.723  0.0152  0.2853  0.4723
   7023SM   HO3 9107   4.838   1.205   6.775 -0.0977  1.7518 -1.6862
   7023SM   C4S 9108   4.685   1.106   6.538 -0.2428 -1.1771 -0.6149
   7023SM   H4S 9109   4.588   1.060   6.514 -1.3409  0.3579  0.6716
   7023SM   C5S 9110   4.775   1.126   6.440  0.5423  0.5413  0.8074
   7023SM   H5S 9111   4.873   1.170   6.465 -0.1662  1.8301  1.4471
   7023SM   C6S 9112   4.746   1.091   6.292  0.1957 -0.4307  0.5916
   7023SM   H6S 9113   4.825   1.037   6.235 -0.6974 -0.5809 -0.5544
   7023SM   H6T 9114   4.726   1.180   6.229 -0.4137 -1.5370 -0.8272
   7023SM   C7S 9115   4.618   1.007   6.263 -0.0122  0.7075 -0.4101
   7023SM   H7S 9116   4.527   1.056   6.304  0.9398  1.2529  1.1663
   7023SM   H7T 9117   4.618   0.908   6.314  1.4965  0.5556 -0.6722
   7023SM   C8S 9118   4.601   0.970   6.120  0.4416 -0.2503  0.0965
   7023SM   H8S 9119   4.613   1.052   6.046 -0.6595 -0.3038 -0.1726
   7023SM   H8T 9120   4.494   0.942   6.109  0.3336 -1.0666  2.5740
   7023SM   C9S 9121   4.690   0.847   6.083  0.1641 -0.0082  0.8469
   7023SM   H9S 9122   4.653   0.763   6.145 -0.4333  0.2627  0.8661
   7023SM   H9T 9123   4.793   0.878   6.110  0.1809  0.1198  0.6379
   7023SM  C10S 9124   4.704   0.815   5.934 -0.2978 -0.4971  0.1694
   7023SM  H10S 9125   4.784   0.738   5.923  0.8089  0.7013 -0.5765
   7023SM  H10T 9126   4.749   0.902   5.881  0.3372 -1.8187 -1.5838
   7023SM  C11S 9127   4.575   0.769   5.861  0.2955  0.9816  0.4574
   7023SM  H11S 9128   4.501   0.852   5.871 -0.5559  0.4096 -0.8122
   7023SM  H11T 9129   4.523   0.677   5.897 -0.8544  2.0218  1.5740
   7023SM  C12S 9130   4.599   0.730   5.718  0.2031 -0.0211  0.1781
   7023SM  H12S 9131   4.654   0.634   5.720 -0.8550 -0.6284  1.0063
   7023SM  H12T 9132   4.665   0.802   5.665  0.9198  0.9464  2.2811
   7023SM  C13S 9133   4.466   0.703   5.644 -0.1960 -0.1393  0.3753
   7023SM  H13S 9134   4.418   0.803   5.635  0.7048  0.2152 -0.7591
   7023SM  H13T 9135   4.406   0.629   5.700 -1.9720  0.9549 -0.0141
   7023SM  C14S 9136   4.483   0.665   5.492  0.2931  0.5326 -0.0075
   7023SM  H14S 9137   4.537   0.568   5.491 -0.5022  0.0820 -0.4211
   7023SM  H14T 9138   4.547   0.738   5.438  2.1512 -0.9850  0.0362
   7023SM  C15S 9139   4.353   0.652   5.409  0.2146 -0.3914  0.1552
   7023SM  H15S 9140   4.297   0.747   5.427  0.1437 -0.7121  1.7363
   7023SM  H15T 9141   4.297   0.561   5.440  0.2357 -0.0817  1.1384
   7023SM  C16S 9142   4.386   0.621   5.266 -0.1756  0.6008  0.3318
   7023SM  H16S 9143   4.294   0.590   5.213  1.7971  1.0004 -3.6711
   7023SM  H16T 9144   4.464   0.542   5.264  1.4335  2.1208 -0.5727
   7023SM  C17S 9145   4.421   0.745   5.183  0.6751 -0.4245 -0.5446
   7023SM  H17S 9146   4.512   0.791   5.227  0.9961 -1.8357  0.3548
   7023SM  H17T 9147   4.343   0.823   5.188  2.9055  1.8488  1.4368
   7023SM  C18S 9148   4.455   0.717   5.039 -0.5482  0.2885  0.3234
   7023SM  H18S 9149   4.360   0.709   4.982 -0.1640  0.9375 -0.4203
   7023SM  H18T 9150   4.533   0.639   5.031 -0.4121  0.4603 -0.0682
   7023SM  H18U 9151   4.493   0.815   5.006 -0.3799 -0.1226 -0.7402
   7023SM   C1F 9152   4.431   1.402   6.653  0.2650  0.0014  0.2031
   7023SM    OF 9153   4.476   1.511   6.683  0.5710  0.0070  0.6949
   7023SM   C2F 9154   4.286   1.388   6.601 -0.6754  0.1238  0.1371
   7023SM   H2F 9155   4.215   1.449   6.661 -0.8888  0.5892 -0.5701
   7023SM   H2G 9156   4.255   1.282   6.608  1.5972 -0.7142 -1.2622
   7023SM   C3F 9157   4.269   1.437   6.459 -0.1543  0.3547 -0.0837
   7023SM   H3F 9158   4.287   1.546   6.458  2.5257 -0.0177 -0.9876
   7023SM   H3G 9159   4.162   1.419   6.435 -0.0914  0.9881 -0.8668
   7023SM   C4F 9160   4.353   1.362   6.348  0.5524 -0.2556  0.2945
   7023SM   H4F 9161   4.313   1.259   6.360  1.0578 -0.3162  1.5566
   7023SM   H4G 9162   4.463   1.365   6.364  0.2508  0.5538  2.4951
   7023SM   C5F 9163   4.319   1.395   6.205 -0.6258 -0.1581 -0.8224
   7023SM   H5F 9164   4.369   1.489   6.174 -0.9417 -0.3076 -1.8373
   7023SM   H5G 9165   4.215   1.432   6.192 -0.3934  0.0847 -2.1072
   7023SM   C6F 9166   4.352   1.276   6.111 -0.6248 -0.5695  0.0890
   7023SM   H6F 9167   4.279   1.198   6.142  0.4207 -0.7798  2.2717
   7023SM   H6G 9168   4.452   1.238   6.141 -0.1742  0.1781 -0.4277
   7023SM   C7F 9169   4.351   1.301   5.959  0.7535  0.2486  0.0105
   7023SM   H7F 9170   4.427   1.380   5.942  1.1980 -0.2417 -0.3058
   7023SM   H7G 9171   4.245   1.325   5.934  0.0001 -0.2900  2.4239
   7023SM   C8F 9172   4.394   1.190   5.869  0.0897  0.3680  0.2909
   7023SM   H8F 9173   4.331   1.101   5.887 -0.8396  1.5045  3.5062
   7023SM   H8G 9174   4.498   1.162   5.894  0.1390  0.5287  0.2716
   7023SM   C9F 9175   4.386   1.239   5.727 -0.3758 -0.3270 -0.3219
   7023SM   H9F 9176   4.492   1.253   5.696 -0.9880  0.5037 -2.2022
   7023SM   H9G 9177   4.340   1.340   5.726  4.1578  2.0170 -2.1671
   7023SM  C10F 9178   4.317   1.134   5.640  0.3829 -0.5491  0.7400
   7023SM  H10F 9179   4.222   1.099   5.686  0.3038 -1.5275 -0.1353
   7023SM  H10G 9180   4.389   1.050   5.628 -0.4751 -1.1571 -0.3474
   7023SM  C11F 9181   4.294   1.187   5.496 -0.1403  0.2696 -0.3683
   7023SM  H11F 9182   4.384   1.240   5.458 -1.2876  2.6202  0.0205
   7023SM  H11G 9183   4.212   1.262   5.504 -0.4821 -0.1839  0.5520
   7023SM  C12F 9184   4.255   1.067   5.407 -0.2467 -0.2569  0.2827
   7023SM  H12F 9185   4.207   0.987   5.468  0.1136 -0.2792  0.5385
   7023SM  H12G 9186   4.352   1.026   5.373  1.0531  1.0033  2.2064
   7023SM  C13F 9187   4.170   1.110   5.288  0.0273 -0.1479 -0.0415
   7023SM  H13F 9188   4.078   1.157   5.330 -0.5945 -2.1543  0.9482
   7023SM  H13G 9189   4.136   1.015   5.243  1.0318 -1.2477  1.4435
   7023SM  C14F 9190   4.240   1.181   5.175 -0.7042 -0.6149  0.2729
   7023SM  H14F 9191   4.347   1.169   5.203 -0.2660 -0.2815 -1.1907
   7023SM  H14G 9192   4.208   1.287   5.170 -0.9137 -0.5757  1.9219
   7023SM  C15F 9193   4.218   1.117   5.040 -0.3038 -0.4216 -0.4066
   7023SM  H15F 9194   4.252   1.011   5.037  0.5894 -0.1203 -1.5525
   7023SM  H15G 9195   4.272   1.174   4.961 -3.2381  0.9213 -1.5971
   7023SM  C16F 9196   4.070   1.124   5.001 -0.2970  0.2856 -0.3342
   7023SM  H16F 9197   4.054   1.197   4.920 -0.2458  0.1657 -0.4534
   7023SM  H16G 9198   4.004   1.167   5.079 -0.5585 -2.0213  0.8232
   7023SM  C17F 9199   4.022   0.977   4.965 -0.4615 -0.3061 -0.1988
   7023SM  H17F 9200   4.033   0.913   5.055  2.6131 -1.1845 -1.1073
   7023SM  H17G 9201   4.079   0.929   4.883 -1.5216 -0.4008 -0.9047
   7023SM  C18F 9202   3.874   0.980   4.918  0.4400  0.4472 -0.4342
   7023SM  H18F 9203   3.839   0.880   4.885 -1.3630  0.7029  0.5640
   7023SM  H18G 9204   3.860   1.045   4.830  0.5710 -0.1727 -0.9223
   7023SM  C19F 9205   3.778   1.030   5.026  0.1324 -0.6152 -0.5921
   7023SM  H19F 9206   3.757   1.138   5.015 -1.1227 -0.6011  1.5350
   7023SM  H19G 9207   3.833   1.009   5.120  2.3070  0.9212 -1.4455
   7023SM  C20F 9208   3.644   0.959   5.025 -0.3117 -0.4920 -0.2612
   7023SM  H20F 9209   3.651   0.848   5.032 -0.7566 -0.7975 -3.2763
   7023SM  H20G 9210   3.596   0.975   4.926  0.1649  1.4679 -0.2148
   7023SM  C21F 9211   3.559   1.010   5.140  0.0829  0.6241  0.0132
   7023SM  H21F 9212   3.506   1.100   5.103 -0.9361 -0.1344 -0.3926
   7023SM  H21G 9213   3.621   1.037   5.229  0.6729 -2.7848  0.7871
   7023SM  C22F 9214   3.458   0.908   5.190 -0.1994  0.1776 -0.1646
   7023SM  H22F 9215   3.395   0.865   5.110  0.3626 -0.8695 -0.0645
   7023SM  H22G 9216   3.382   0.956   5.255 -1.0625  1.9778 -2.3831
   7023SM  C23F 9217   3.516   0.790   5.266 -0.4686 -0.1190  0.1693
   7023SM  H23F 9218   3.440   0.717   5.303  0.0383  0.0835  1.7116
   7023SM  H23G 9219   3.572   0.818   5.358  0.1521 -0.9152  0.0511
   7023SM  H23H 9220   3.584   0.732   5.199  1.0064  0.4900  1.0737
   7123SM     N 9221   3.853   0.804   7.270 -0.1738 -0.5128  0.4099
   7123SM   C15 9222   3.920   0.669   7.258 -0.0619 -0.4557 -0.3592
   7123SM  H15A 9223   3.906   0.617   7.352  1.6640  1.2369  0.9183
   7123SM  H15B 9224   4.023   0.672   7.226 -0.1765 -2.4914 -1.0657
   7123SM  H15C 9225   3.866   0.609   7.186  0.2638  0.0040 -0.9946
   7123SM   C14 9226   3.920   0.887   7.377 -0.5920 -0.5557 -0.0922
   7123SM  H14A 9227   3.888   0.990   7.366  0.3243 -0.4336 -2.0791
   7123SM  H14B 9228   4.028   0.888   7.378 -0.5682  0.2134  1.9662
   7123SM  H14C 9229   3.882   0.855   7.473 -1.6527 -3.8934 -1.4914
   7123SM   C13 9230   3.872   0.874   7.135  0.0483 -0.3082 -0.2934
   7123SM  H13A 9231   3.826   0.825   7.051  1.1322  0.1850 -1.1918
   7123SM  H13B 9232   3.978   0.890   7.127  0.2749 -0.5834  1.6525
   7123SM  H13C 9233   3.819   0.968   7.136  0.1353 -0.2584 -0.3837
   7123SM   C12 9234   3.710   0.781   7.306  0.2312 -0.2910 -0.6893
   7123SM  H12A 9235   3.660   0.873   7.333  2.4439  0.4477  1.2071
   7123SM  H12B 9236   3.710   0.715   7.391  0.1978  0.2850 -0.2379
   7123SM   C11 9237   3.632   0.704   7.199  0.6877 -0.3923  0.3912
   7123SM  H11A 9238   3.670   0.602   7.180 -0.5693 -0.8386  0.1610
   7123SM  H11B 9239   3.633   0.767   7.108 -1.3280 -1.2557 -0.2882
   7123SM     P 9240   3.399   0.575   7.191  0.0621 -0.0459  0.1195
   7123SM   O13 9241   3.438   0.441   7.242 -1.0106 -0.1539 -0.1782
   7123SM   O14 9242   3.261   0.625   7.215 -0.4313  0.0592  0.3897
   7123SM   O11 9243   3.422   0.582   7.041  0.2773  0.3780 -0.0164
   7123SM   O12 9244   3.496   0.693   7.241  0.3072 -0.5707  0.0143
   7123SM   C1S 9245   3.462   0.465   6.963  0.1386 -0.8217 -0.2966
   7123SM   H1S 9246   3.384   0.390   6.985 -0.9350  0.1921 -0.5313
   7123SM   H1T 9247   3.562   0.434   7.002 -0.1014 -1.3183 -0.0702
   7123SM    NF 9248   3.488   0.368   6.746 -0.5152 -0.2951 -0.3920
   7123SM   HNF 9249   3.578   0.336   6.717 -0.1214 -1.8975  2.2368
   7123SM   C2S 9250   3.477   0.497   6.807 -0.4098 -0.2428 -0.2992
   7123SM   H2S 9251   3.386   0.551   6.772  0.1432 -0.6053 -2.4905
   7123SM   C3S 9252   3.600   0.593   6.789 -0.8954 -0.1970  0.0716
   7123SM   H3S 9253   3.698   0.542   6.804 -0.5343  0.8198  1.4291
   7123SM    O3 9254   3.606   0.713   6.868  0.2705  0.2753  0.0326
   7123SM   HO3 9255   3.539   0.700   6.936 -0.0281 -1.0076 -0.4630
   7123SM   C4S 9256   3.595   0.638   6.650 -0.0006  1.1199  0.4155
   7123SM   H4S 9257   3.499   0.692   6.640 -0.6656  0.1546  1.3379
   7123SM   C5S 9258   3.693   0.620   6.559 -0.7195 -0.3746  0.0873
   7123SM   H5S 9259   3.787   0.570   6.589 -0.4265  0.5066  0.6639
   7123SM   C6S 9260   3.688   0.667   6.415 -0.1290  0.4083  0.5741
   7123SM   H6S 9261   3.751   0.594   6.360  0.4371 -0.3756  2.2092
   7123SM   H6T 9262   3.732   0.770   6.415 -3.3450  1.9282 -0.8108
   7123SM   C7S 9263   3.540   0.678   6.358  0.6304 -0.5486 -0.1612
   7123SM   H7S 9264   3.499   0.763   6.415 -1.6984 -0.9532 -1.1217
   7123SM   H7T 9265   3.488   0.581   6.370  1.1044 -0.9015 -0.8675
   7123SM   C8S 9266   3.535   0.713   6.208 -0.1568  0.2373  0.1286
   7123SM   H8S 9267   3.612   0.793   6.201 -1.6351  1.6452 -0.5350
   7123SM   H8T 9268   3.437   0.751   6.172  0.1167  1.2876  0.4652
   7123SM   C9S 9269   3.566   0.589   6.127  1.1879  0.9465  0.2347
   7123SM   H9S 9270   3.489   0.515   6.157  0.8166  1.4780  0.6118
   7123SM   H9T 9271   3.663   0.544   6.160  0.7918  0.4715  0.7643
   7123SM  C10S 9272   3.553   0.606   5.976  0.2214  0.2156 -0.4588
   7123SM  H10S 9273   3.618   0.691   5.946  1.8784 -0.8090  0.1496
   7123SM  H10T 9274   3.449   0.628   5.944  1.0065  0.5952 -2.9216
   7123SM  C11S 9275   3.607   0.488   5.901  0.3806 -0.4582 -0.0721
   7123SM  H11S 9276   3.539   0.400   5.911  1.8438 -1.8898 -1.9875
   7123SM  H11T 9277   3.704   0.446   5.933 -0.8497 -1.7650  2.2296
   7123SM  C12S 9278   3.596   0.518   5.747 -0.1939 -0.1106  0.6351
   7123SM  H12S 9279   3.648   0.430   5.703  0.9273 -0.9434  3.4166
   7123SM  H12T 9280   3.653   0.610   5.722  2.1622 -1.3652  1.1241
   7123SM  C13S 9281   3.454   0.517   5.690 -0.7755 -0.2914  0.1274
   7123SM  H13S 9282   3.394   0.603   5.726 -1.6119 -0.8581  0.1313
   7123SM  H13T 9283   3.407   0.421   5.720  0.0454 -1.1860 -1.3105
   7123SM  C14S 9284   3.446   0.540   5.532 -0.1874  0.4742 -0.0332
   7123SM  H14S 9285   3.506   0.631   5.513 -0.7954  0.6468 -1.2409
   7123SM  H14T 9286   3.341   0.572   5.515  0.3358  1.9345 -0.5926
   7123SM  C15S 9287   3.477   0.406   5.463  1.3149 -0.0521  0.0883
   7123SM  H15S 9288   3.423   0.323   5.513  0.6589  0.2183 -0.1617
   7123SM  H15T 9289   3.582   0.371   5.459  0.9306 -1.2195 -3.2816
   7123SM  C16S 9290   3.419   0.407   5.319  0.0621  0.2790 -0.6721
   7123SM  H16S 9291   3.457   0.493   5.260  1.8129 -0.3186 -0.4815
   7123SM  H16T 9292   3.308   0.409   5.314  0.0910 -0.6346 -3.0104
   7123SM  C17S 9293   3.447   0.285   5.232 -0.3261  0.6045 -0.0612
   7123SM  H17S 9294   3.391   0.193   5.258  2.4792 -1.9063 -2.1037
   7123SM  H17T 9295   3.553   0.252   5.243 -0.9095 -0.4563  3.8054
   7123SM  C18S 9296   3.416   0.315   5.086 -0.0168  0.1375 -0.4127
   7123SM  H18S 9297   3.470   0.243   5.021  3.4082  1.0788  1.1471
   7123SM  H18T 9298   3.458   0.413   5.057  0.1522 -0.0668 -0.8699
   7123SM  H18U 9299   3.308   0.300   5.063 -0.0896  0.0275 -0.0041
   7123SM   C1F 9300   3.385   0.288   6.726  0.4348  0.3121 -0.1007
   7123SM    OF 9301   3.268   0.325   6.764 -0.3738 -0.4935  0.6753
   7123SM   C2F 9302   3.400   0.153   6.665 -0.5451  0.1574  0.0316
   7123SM   H2F 9303   3.340   0.073   6.712  1.4865 -0.2835  2.0406
   7123SM   H2G 9304   3.506   0.122   6.676 -0.5884 -0.7563 -1.7632
   7123SM   C3F 9305   3.379   0.154   6.506 -0.2127  0.1736  0.3170
   7123SM   H3F 9306   3.424   0.244   6.460  0.3111 -0.3935 -0.3173
   7123SM   H3G 9307   3.269   0.155   6.493 -0.2231 -0.9070  0.1677
   7123SM   C4F 9308   3.445   0.029   6.447  0.0179 -0.2040 -0.0559
   7123SM   H4F 9309   3.419  -0.056   6.513  2.4508 -2.0894 -1.3799
   7123SM   H4G 9310   3.555   0.031   6.461 -0.2482 -0.3914  2.7806
   7123SM   C5F 9311   3.394  -0.016   6.309  0.3927  0.2881 -0.1318
   7123SM   H5F 9312   3.283  -0.014   6.310  0.3127 -0.8479  2.8417
   7123SM   H5G 9313   3.428  -0.121   6.296  1.0172  0.5424 -0.6121
   7123SM   C6F 9314   3.445   0.060   6.193  0.1589 -0.2733 -0.6796
   7123SM   H6F 9315   3.555   0.047   6.198 -0.0414 -1.5967  0.9113
   7123SM   H6G 9316   3.416   0.165   6.213  0.5509 -0.2646 -0.1511
   7123SM   C7F 9317   3.403  -0.001   6.056  0.1793  0.3247 -1.0329
   7123SM   H7F 9318   3.297   0.019   6.034 -0.6707 -2.1504  0.3392
   7123SM   H7G 9319   3.417  -0.112   6.061 -1.6957 -0.0242 -2.6255
   7123SM   C8F 9320   3.480   0.048   5.939 -0.6189  0.0358 -0.7587
   7123SM   H8F 9321   3.585   0.013   5.952 -1.4402 -2.6114 -0.6688
   7123SM   H8G 9322   3.476   0.159   5.939 -0.0675  0.0603 -0.8433
   7123SM   C9F 9323   3.433  -0.021   5.813  0.3524 -0.1757 -0.1292
   7123SM   H9F 9324   3.324  -0.008   5.822  0.5140 -0.3335  3.7060
   7123SM   H9G 9325   3.461  -0.129   5.810  2.1723  0.2233  0.7907
   7123SM  C10F 9326   3.491   0.049   5.692  0.0299  0.4888  0.1336
   7123SM  H10F 9327   3.601   0.041   5.683  0.1391  0.6428  1.2210
   7123SM  H10G 9328   3.470   0.158   5.696 -0.9591  0.3856 -1.3593
   7123SM  C11F 9329   3.419  -0.001   5.568 -0.5420  0.1689 -0.4152
   7123SM  H11F 9330   3.439   0.080   5.495  2.9709  1.1700  1.4461
   7123SM  H11G 9331   3.308  -0.006   5.569 -0.4960 -1.6697 -0.8081
   7123SM  C12F 9332   3.477  -0.132   5.509  0.7122  0.5339  0.2912
   7123SM  H12F 9333   3.444  -0.217   5.573  0.2862  0.4464 -0.0436
   7123SM  H12G 9334   3.588  -0.123   5.511  0.7282  0.2016  1.1946
   7123SM  C13F 9335   3.427  -0.141   5.362 -0.7620  0.1263 -0.1052
   7123SM  H13F 9336   3.437  -0.044   5.310 -1.5905 -0.4128 -1.3011
   7123SM  H13G 9337   3.318  -0.157   5.375 -0.9003  0.2483 -1.0819
   7123SM  C14F 9338   3.477  -0.269   5.292 -0.4370  0.3119 -0.0537
   7123SM  H14F 9339   3.448  -0.353   5.359 -0.5025  0.2510 -0.1573
   7123SM  H14G 9340   3.587  -0.265   5.276 -0.5391  0.0094 -0.9265
   7123SM  C15F 9341   3.412  -0.299   5.157  0.5698  0.4700 -0.1757
   7123SM  H15F 9342   3.449  -0.223   5.085  0.7998 -0.4772 -1.0825
   7123SM  H15G 9343   3.301  -0.294   5.165  0.5957  1.6721 -0.3738
   7123SM  C16F 9344   3.447  -0.435   5.094  0.1493  0.5302  0.2007
   7123SM  H16F 9345   3.557  -0.427   5.078  0.2932  4.4472  2.1089
   7123SM  H16G 9346   3.398  -0.454   4.997 -1.5061 -2.1403  1.4181
   7123SM  C17F 9347   3.411  -0.558   5.179 -0.3130  0.4335  0.1416
   7123SM  H17F 9348   3.305  -0.548   5.210 -0.4050 -0.7276  0.2638
   7123SM  H17G 9349   3.455  -0.565   5.281 -1.0396 -0.2546  0.4157
   7123SM  C18F 9350   3.442  -0.698   5.116 -0.1897 -0.2913  0.0225
   7123SM  H18F 9351   3.415  -0.779   5.187 -0.0560  0.6534  1.1697
   7123SM  H18G 9352   3.548  -0.720   5.089 -0.0668 -1.1821  1.1498
   7123SM  C19F 9353   3.336  -0.734   4.996 -0.2888 -0.3344  0.0968
   7123SM  H19F 9354   3.359  -0.661   4.916 -0.6446  0.5245  0.7667
   7123SM  H19G 9355   3.227  -0.732   5.013  0.0846  0.8667  3.0193
   7123SM  C20F 9356   3.352  -0.875   4.951  0.1350 -0.3066  0.2836
   7123SM  H20F 9357   3.333  -0.928   5.046  1.1934  0.0340  0.6997
   7123SM  H20G 9358   3.451  -0.898   4.906 -0.4224  1.9352 -2.3865
   7123SM  C21F 9359   3.247  -0.923   4.845  0.0741 -0.0723  0.0931
   7123SM  H21F 9360   3.147  -0.887   4.877 -0.0392 -0.5692  0.3030
   7123SM  H21G 9361   3.246  -1.034   4.838  1.6876 -0.0824 -0.4568
   7123SM  C22F 9362   3.289  -0.860   4.709  0.5201  0.6439 -0.5457
   7123SM  H22F 9363   3.381  -0.915   4.681  0.3117  0.8551 -1.6703
   7123SM  H22G 9364   3.307  -0.751   4.725  3.0028  0.0240  1.8833
   7123SM  C23F 9365   3.180  -0.879   4.605  0.4497  0.2394  0.2326
   7123SM  H23F 9366   3.229  -0.873   4.505 -1.4948  1.1351 -0.7081
   7123SM  H23G 9367   3.099  -0.804   4.612  0.7318  0.5893 -0.1884
   7123SM  H23H 9368   3.134  -0.980   4.610 -2.3486  1.4270  0.0201
   7223SM     N 9369   6.195   2.385   7.144  0.3216  0.0663  0.5911
   7223SM   C15 9370   6.233   2.251   7.116  0.0446  0.3024  0.3921
   7223SM  H15A 9371   6.146   2.186   7.115  0.3976 -0.1940  1.0001
   7223SM  H15B 9372   6.298   2.224   7.198  1.6918  0.7375 -0.7365
   7223SM  H15C 9373   6.295   2.244   7.028 -0.4730 -0.5767  0.0772
   7223SM   C14 9374   6.150   2.455   7.017 -0.1597  0.0552 -0.4817
   7223SM  H14A 9375   6.130   2.561   7.023  0.1262  0.0163  2.3398
   7223SM  H14B 9376   6.060   2.409   6.977 -0.8265  0.0076  1.0047
   7223SM  H14C 9377   6.228   2.438   6.945  1.2460  1.2556  0.6945
   7223SM   C13 9378   6.094   2.407   7.244 -0.3240 -0.1286  0.1953
   7223SM  H13A 9379   6.128   2.390   7.345 -2.6143 -0.1537  1.0290
   7223SM  H13B 9380   6.012   2.338   7.227  0.7547 -0.8809 -2.4952
   7223SM  H13C 9381   6.059   2.509   7.242  1.7318  0.6141 -1.7825
   7223SM   C12 9382   6.330   2.460   7.190  0.1371 -0.2464  0.2837
   7223SM  H12A 9383   6.397   2.447   7.107 -0.2486  1.8794 -0.4255
   7223SM  H12B 9384   6.360   2.418   7.285 -0.7241 -1.9989 -0.1736
   7223SM   C11 9385   6.332   2.615   7.206  0.0469  0.2087 -0.2433
   7223SM  H11A 9386   6.423   2.639   7.264 -0.4452  0.2607  0.5307
   7223SM  H11B 9387   6.247   2.645   7.271 -0.7536 -1.2724 -0.5533
   7223SM     P 9388   6.278   2.818   7.058 -0.1285 -0.0220  0.2254
   7223SM   O13 9389   6.128   2.800   7.048  0.1977  0.0925 -0.7465
   7223SM   O14 9390   6.333   2.908   7.163  0.0859  0.0449 -0.1958
   7223SM   O11 9391   6.348   2.854   6.923  0.2123 -0.3411  0.6794
   7223SM   O12 9392   6.337   2.679   7.082 -0.5186  0.8193 -0.3797
   7223SM   C1S 9393   6.326   2.777   6.804  0.1485  0.2498  0.0775
   7223SM   H1S 9394   6.223   2.785   6.764  0.1816 -1.4395 -0.4057
   7223SM   H1T 9395   6.354   2.672   6.825  3.8908  0.8117 -1.2988
   7223SM    NF 9396   6.401   2.731   6.578 -0.3793  0.1837  0.0506
   7223SM   HNF 9397   6.479   2.680   6.543 -0.1566  1.5396 -1.4774
   7223SM   C2S 9398   6.418   2.822   6.686  0.0027 -0.0699 -0.0225
   7223SM   H2S 9399   6.389   2.927   6.663  1.9323  0.6035  0.3530
   7223SM   C3S 9400   6.568   2.832   6.717 -0.0292  0.3402 -0.5162
   7223SM   H3S 9401   6.615   2.735   6.744 -1.8220 -0.8386 -1.4416
   7223SM    O3 9402   6.586   2.906   6.837 -0.0323 -0.6185  0.0541
   7223SM   HO3 9403   6.499   2.916   6.877  0.8173 -0.9579  2.1366
   7223SM   C4S 9404   6.648   2.891   6.607 -0.0633 -0.1482 -0.2325
   7223SM   H4S 9405   6.701   2.815   6.547 -0.1628  0.0038 -0.5177
   7223SM   C5S 9406   6.687   3.016   6.588  0.1538 -0.3997 -0.1651
   7223SM   H5S 9407   6.659   3.099   6.654  0.5466  1.2172 -1.9394
   7223SM   C6S 9408   6.765   3.057   6.470  0.6310  0.6232 -0.2581
   7223SM   H6S 9409   6.873   3.046   6.494  0.5034  0.0791  0.1008
   7223SM   H6T 9410   6.757   3.166   6.450  0.6181  0.6513 -0.1003
   7223SM   C7S 9411   6.718   2.989   6.334 -0.1016 -0.7089 -1.2768
   7223SM   H7S 9412   6.608   2.972   6.330 -0.4048  1.2014 -1.7751
   7223SM   H7T 9413   6.764   2.888   6.328  1.6390 -0.0944  0.4902
   7223SM   C8S 9414   6.766   3.074   6.207 -0.2323 -0.4620 -0.0726
   7223SM   H8S 9415   6.874   3.049   6.194 -0.5427 -1.5999 -0.6340
   7223SM   H8T 9416   6.757   3.184   6.217  0.8123 -0.4249  0.7246
   7223SM   C9S 9417   6.701   3.013   6.078  0.1961 -0.2409 -0.9332
   7223SM   H9S 9418   6.590   3.026   6.086  0.4239  1.3974 -0.0789
   7223SM   H9T 9419   6.729   2.905   6.080 -1.5487 -0.7297 -0.1137
   7223SM  C10S 9420   6.761   3.075   5.948 -1.1377 -0.7777  0.6801
   7223SM  H10S 9421   6.733   3.182   5.956  0.9480 -0.1108 -0.2777
   7223SM  H10T 9422   6.712   3.035   5.857  0.3359 -0.8102 -0.1374
   7223SM  C11S 9423   6.920   3.059   5.941  1.0860 -0.0801 -0.0779
   7223SM  H11S 9424   6.956   2.955   5.935  1.3273 -0.0448  0.7259
   7223SM  H11T 9425   6.968   3.115   6.024  0.8993  0.9208 -0.6172
   7223SM  C12S 9426   6.963   3.129   5.812 -0.3720 -0.0498 -0.0048
   7223SM  H12S 9427   6.907   3.224   5.808 -1.6302 -0.6582  1.9095
   7223SM  H12T 9428   6.920   3.072   5.727 -0.7954  0.1822  0.0551
   7223SM  C13S 9429   7.116   3.141   5.785 -0.2100 -0.2174 -0.6640
   7223SM  H13S 9430   7.144   3.035   5.763  1.1520  0.0137 -0.1471
   7223SM  H13T 9431   7.179   3.183   5.866  0.5354 -1.5113 -0.5328
   7223SM  C14S 9432   7.136   3.221   5.654 -0.2368  0.0079 -0.5488
   7223SM  H14S 9433   7.138   3.329   5.678 -2.8391 -0.1357  0.6885
   7223SM  H14T 9434   7.061   3.195   5.575 -0.4628 -2.1836  0.3058
   7223SM  C15S 9435   7.258   3.198   5.571 -0.5775 -0.2380  0.1257
   7223SM  H15S 9436   7.347   3.197   5.638  0.7203 -0.0248 -1.5325
   7223SM  H15T 9437   7.275   3.293   5.517 -0.1657 -0.0370  0.6028
   7223SM  C16S 9438   7.247   3.078   5.469  0.7476  0.8754 -0.1128
   7223SM  H16S 9439   7.142   3.083   5.435  0.5875  4.7982  0.5599
   7223SM  H16T 9440   7.253   2.986   5.530  0.9741  1.4723  0.7786
   7223SM  C17S 9441   7.353   3.080   5.355  0.1164 -0.3754 -0.4367
   7223SM  H17S 9442   7.450   3.055   5.401  0.2232  1.5865  0.5239
   7223SM  H17T 9443   7.369   3.184   5.319  0.3954  0.7299  2.5361
   7223SM  C18S 9444   7.317   2.984   5.238  0.1205 -1.0134 -0.3705
   7223SM  H18S 9445   7.310   2.879   5.272  1.2742 -1.2567 -0.8459
   7223SM  H18T 9446   7.390   2.981   5.154  0.1267  0.6829 -0.4529
   7223SM  H18U 9447   7.216   3.007   5.197  0.1797 -2.3495 -1.3446
   7223SM   C1F 9448   6.289   2.705   6.500 -0.1764 -0.5646  0.0210
   7223SM    OF 9449   6.172   2.714   6.536 -0.8004  0.3730 -0.8271
   7223SM   C2F 9450   6.322   2.663   6.362  0.3582  0.1942  0.2794
   7223SM   H2F 9451   6.409   2.722   6.324 -0.3534  1.2179  0.1861
   7223SM   H2G 9452   6.233   2.699   6.306 -0.7708 -1.2894  1.0337
   7223SM   C3F 9453   6.335   2.510   6.344  0.8163  0.4586  0.1033
   7223SM   H3F 9454   6.234   2.464   6.347 -0.2278  2.4599 -1.4378
   7223SM   H3G 9455   6.394   2.470   6.429  1.2883  2.4508  0.7680
   7223SM   C4F 9456   6.397   2.468   6.214  0.3336  0.7600  0.6297
   7223SM   H4F 9457   6.506   2.455   6.235  0.5115 -0.3121 -0.8161
   7223SM   H4G 9458   6.394   2.549   6.139 -2.7701  0.3931  0.2445
   7223SM   C5F 9459   6.337   2.334   6.161 -0.7699  0.1087 -0.0907
   7223SM   H5F 9460   6.322   2.270   6.251  0.5819 -3.3352 -2.1512
   7223SM   H5G 9461   6.419   2.289   6.102  0.5531  2.0693  0.1342
   7223SM   C6F 9462   6.213   2.351   6.075  0.8276  0.1182  0.3991
   7223SM   H6F 9463   6.228   2.424   5.993  1.2465 -0.8282 -0.3951
   7223SM   H6G 9464   6.123   2.387   6.129  0.7110  0.5613 -0.0799
   7223SM   C7F 9465   6.161   2.216   6.023  0.3948  0.3119 -0.7391
   7223SM   H7F 9466   6.109   2.162   6.105 -0.6940  1.9875 -0.2707
   7223SM   H7G 9467   6.250   2.161   5.985  1.8387  1.7903  0.3780
   7223SM   C8F 9468   6.063   2.230   5.909 -0.0794 -0.8562  0.2355
   7223SM   H8F 9469   6.114   2.274   5.820  2.2032  0.6422  2.1615
   7223SM   H8G 9470   5.979   2.297   5.938 -1.5494 -1.9164 -1.3719
   7223SM   C9F 9471   6.017   2.095   5.865 -0.2909  0.8290 -0.1982
   7223SM   H9F 9472   5.983   2.035   5.952 -1.1068 -0.3690 -1.2864
   7223SM   H9G 9473   6.106   2.040   5.829 -1.4144 -0.3540 -1.2758
   7223SM  C10F 9474   5.898   2.087   5.768 -0.3893 -0.1622 -0.5367
   7223SM  H10F 9475   5.815   2.149   5.807 -0.6934 -1.0527  0.2633
   7223SM  H10G 9476   5.857   1.984   5.762  2.2332 -1.3388  0.2920
   7223SM  C11F 9477   5.940   2.142   5.628 -0.0265  0.3399 -0.5417
   7223SM  H11F 9478   6.012   2.073   5.579  0.2085  0.8385 -0.9183
   7223SM  H11G 9479   5.992   2.240   5.639  0.4949  0.1455 -1.1977
   7223SM  C12F 9480   5.816   2.153   5.533  0.4084  0.3051 -0.6022
   7223SM  H12F 9481   5.742   2.218   5.584  0.2643  0.2815 -0.7792
   7223SM  H12G 9482   5.765   2.054   5.524 -0.5074  0.5603  1.2797
   7223SM  C13F 9483   5.860   2.214   5.405 -0.1471 -0.2053 -0.0999
   7223SM  H13F 9484   5.944   2.160   5.357 -0.1414 -1.5332  1.3121
   7223SM  H13G 9485   5.902   2.314   5.428  0.1620 -0.7345  1.8066
   7223SM  C14F 9486   5.756   2.215   5.291 -0.3394 -0.5193 -0.8403
   7223SM  H14F 9487   5.668   2.265   5.337  1.1793  1.1721  0.3701
   7223SM  H14G 9488   5.728   2.111   5.264  1.0958 -1.0915 -0.2235
   7223SM  C15F 9489   5.798   2.274   5.159 -1.0435  0.2378  0.2891
   7223SM  H15F 9490   5.707   2.270   5.095 -0.0839  1.6494 -1.2350
   7223SM  H15G 9491   5.868   2.203   5.110 -1.1443  0.8671 -0.7982
   7223SM  C16F 9492   5.846   2.419   5.149 -0.0994 -0.3651  0.1600
   7223SM  H16F 9493   5.941   2.436   5.205 -0.9242 -0.3055  1.5895
   7223SM  H16G 9494   5.775   2.489   5.198  0.0083 -1.0488  1.3194
   7223SM  C17F 9495   5.882   2.468   5.008  0.2370  0.0385 -0.2940
   7223SM  H17F 9496   5.786   2.448   4.955  0.2277  2.7349 -1.4992
   7223SM  H17G 9497   5.960   2.403   4.963  0.0268 -0.3870 -0.0476
   7223SM  C18F 9498   5.921   2.610   4.996  0.1964  0.0567 -0.3201
   7223SM  H18F 9499   5.968   2.639   5.092 -0.9064  0.7456  0.0270
   7223SM  H18G 9500   5.833   2.676   4.984 -0.3703 -0.6503 -0.0966
   7223SM  C19F 9501   6.021   2.635   4.879  0.2410  0.3265 -0.5627
   7223SM  H19F 9502   5.964   2.595   4.792 -1.0811 -1.5551  1.0717
   7223SM  H19G 9503   6.104   2.564   4.894  0.1106  0.1875 -0.4966
   7223SM  C20F 9504   6.067   2.782   4.859  0.2969  0.2710  0.0077
   7223SM  H20F 9505   6.118   2.784   4.761  0.3796  0.8742  0.0564
   7223SM  H20G 9506   6.133   2.818   4.941 -0.0982  0.5634  0.2045
   7223SM  C21F 9507   5.951   2.883   4.848 -0.4737 -0.3946  0.1233
   7223SM  H21F 9508   5.909   2.871   4.950 -0.3158 -0.7705  0.1491
   7223SM  H21G 9509   5.871   2.845   4.781 -0.5222  0.0614 -0.0794
   7223SM  C22F 9510   5.989   3.036   4.812  0.2775  0.5597  0.2592
   7223SM  H22F 9511   5.901   3.097   4.839 -1.0301 -0.4157 -1.6321
   7223SM  H22G 9512   5.996   3.038   4.701  0.3314 -0.1115  0.2452
   7223SM  C23F 9513   6.120   3.082   4.878  0.0538 -0.8033  0.1735
   7223SM  H23F 9514   6.165   3.173   4.833  2.0599 -1.6470  0.3633
   7223SM  H23G 9515   6.206   3.012   4.882  0.5410 -0.1999  0.5745
   7223SM  H23H 9516   6.086   3.085   4.984 -0.2607 -1.6043  0.1004
   7323SM     N 9517   5.233   0.976   7.191 -0.3106  0.2890  0.2567
   7323SM   C15 9518   5.379   0.938   7.168  0.9337 -0.3438 -0.2314
   7323SM  H15A 9519   5.419   0.992   7.083  0.4476 -1.0630 -0.9291
   7323SM  H15B 9520   5.389   0.832   7.153  0.1356 -0.5983  0.9361
   7323SM  H15C 9521   5.434   0.964   7.257  0.4496 -1.7112  0.4908
   7323SM   C14 9522   5.183   0.898   7.306  0.8631  0.4498  0.0308
   7323SM  H14A 9523   5.076   0.908   7.314  0.8090 -0.1567  0.0927
   7323SM  H14B 9524   5.225   0.923   7.402  1.2964  1.8381 -0.5038
   7323SM  H14C 9525   5.212   0.796   7.286 -0.5572  0.0867 -0.2920
   7323SM   C13 9526   5.229   1.119   7.235 -0.2576 -0.0303  0.3070
   7323SM  H13A 9527   5.137   1.157   7.277  1.2406  1.8937  2.0597
   7323SM  H13B 9528   5.255   1.184   7.153  1.5915  0.6234  1.3407
   7323SM  H13C 9529   5.299   1.142   7.314 -0.4192 -1.2158  0.8124
   7323SM   C12 9530   5.145   0.957   7.069  0.3558  0.6871 -0.4159
   7323SM  H12A 9531   5.150   0.855   7.033 -0.8612  0.5074 -0.1325
   7323SM  H12B 9532   5.187   1.009   6.984  1.9350 -1.1719 -0.8421
   7323SM   C11 9533   4.988   0.994   7.081 -0.1194  0.7013 -0.1555
   7323SM  H11A 9534   4.944   1.034   6.987 -2.5863 -1.2581  0.0597
   7323SM  H11B 9535   4.972   1.081   7.149  0.4367 -0.1370  1.0865
   7323SM     P 9536   4.904   0.754   7.032  0.2368  0.1921 -0.1755
   7323SM   O13 9537   5.035   0.691   7.048 -0.1652  0.2850  0.4133
   7323SM   O14 9538   4.787   0.677   7.079 -0.0880 -0.0540  0.5846
   7323SM   O11 9539   4.880   0.802   6.888  0.2136  0.2148  0.4754
   7323SM   O12 9540   4.902   0.884   7.124 -0.0662  0.5427 -0.3382
   7323SM   C1S 9541   4.804   0.723   6.794 -0.0950  0.6656 -0.0584
   7323SM   H1S 9542   4.696   0.740   6.811 -0.4409  0.7680 -2.0617
   7323SM   H1T 9543   4.829   0.615   6.806  0.0342  0.9645  2.8424
   7323SM    NF 9544   4.747   0.684   6.558 -0.6535  0.1274 -0.1974
   7323SM   HNF 9545   4.786   0.613   6.500 -0.2060 -0.8005  1.1950
   7323SM   C2S 9546   4.839   0.759   6.646 -0.5626 -0.1286  0.0365
   7323SM   H2S 9547   4.825   0.866   6.622 -0.5469 -0.1155  0.0850
   7323SM   C3S 9548   4.985   0.721   6.611  0.0361 -0.2523 -0.6691
   7323SM   H3S 9549   4.983   0.610   6.609 -1.1046 -0.2603  0.1924
   7323SM    O3 9550   5.077   0.757   6.715 -0.7935  0.0864  0.3856
   7323SM   HO3 9551   5.027   0.805   6.782  0.7418  2.1340  0.1647
   7323SM   C4S 9552   5.021   0.779   6.474  0.1804  0.0524  0.1501
   7323SM   H4S 9553   5.010   0.703   6.394 -1.2875 -0.6508  0.9704
   7323SM   C5S 9554   5.060   0.905   6.450 -0.1372 -0.6275  0.4240
   7323SM   H5S 9555   5.072   0.966   6.541  1.1550  1.6216 -1.1557
   7323SM   C6S 9556   5.100   0.959   6.316 -0.4211 -0.4041  0.3232
   7323SM   H6S 9557   5.204   0.999   6.325 -1.0130  0.8364  2.1824
   7323SM   H6T 9558   5.032   1.045   6.299 -0.2998 -0.2167  0.7725
   7323SM   C7S 9559   5.092   0.869   6.187 -0.2717  0.1193  0.5994
   7323SM   H7S 9560   5.001   0.806   6.181 -0.1333  0.0353 -0.8165
   7323SM   H7T 9561   5.166   0.787   6.202 -0.4497 -0.2077 -0.2256
   7323SM   C8S 9562   5.099   0.937   6.051 -0.0679  0.2979  0.3089
   7323SM   H8S 9563   5.194   0.995   6.047 -0.5553  1.1129  0.1959
   7323SM   H8T 9564   5.014   1.009   6.049 -0.3640  0.0769  2.6581
   7323SM   C9S 9565   5.113   0.833   5.944 -0.2035 -0.3634 -0.6304
   7323SM   H9S 9566   5.036   0.754   5.936 -0.6522 -0.0699  0.4774
   7323SM   H9T 9567   5.213   0.786   5.959  0.0112 -0.0031 -0.8979
   7323SM  C10S 9568   5.116   0.905   5.815 -0.6423 -0.4322 -0.8950
   7323SM  H10S 9569   5.205   0.970   5.803 -0.6503 -0.3551 -0.5538
   7323SM  H10T 9570   5.023   0.965   5.800 -0.5563 -0.1323 -0.2384
   7323SM  C11S 9571   5.121   0.806   5.695  0.0123 -0.2950  0.6406
   7323SM  H11S 9572   5.030   0.742   5.698 -0.4630  0.4237  1.9823
   7323SM  H11T 9573   5.198   0.726   5.687 -0.0838 -0.4046  0.8272
   7323SM  C12S 9574   5.133   0.886   5.563  0.2177  0.6958  0.0347
   7323SM  H12S 9575   5.219   0.955   5.574  0.4917  0.2501  0.7533
   7323SM  H12T 9576   5.038   0.942   5.548 -1.3629 -1.1961  2.2798
   7323SM  C13S 9577   5.164   0.804   5.440  0.2494 -0.0555 -0.3560
   7323SM  H13S 9578   5.230   0.719   5.465  2.0696  1.8613  1.8754
   7323SM  H13T 9579   5.194   0.870   5.356  0.9147 -0.1384 -0.1829
   7323SM  C14S 9580   5.031   0.744   5.384 -0.2270  0.0537  0.0279
   7323SM  H14S 9581   4.945   0.813   5.371 -1.4288 -0.9995  1.9263
   7323SM  H14T 9582   4.984   0.678   5.459  0.6926 -1.4662 -0.6808
   7323SM  C15S 9583   5.065   0.666   5.249 -0.2031  0.0416  0.3930
   7323SM  H15S 9584   5.122   0.575   5.278 -2.2436 -1.5163 -0.2476
   7323SM  H15T 9585   5.133   0.729   5.188  0.3508 -0.1142  0.8364
   7323SM  C16S 9586   4.943   0.640   5.166  0.3875 -0.7042 -0.1038
   7323SM  H16S 9587   4.912   0.741   5.131 -0.3691 -1.1467 -0.7508
   7323SM  H16T 9588   4.853   0.599   5.217  0.9418 -0.5489  1.0206
   7323SM  C17S 9589   4.971   0.556   5.044 -0.4229  0.7316 -0.1543
   7323SM  H17S 9590   4.974   0.448   5.069 -0.7679  0.6848 -0.2948
   7323SM  H17T 9591   5.078   0.572   5.021  0.0163 -0.6496  0.8472
   7323SM  C18S 9592   4.874   0.562   4.927 -0.0648 -0.2504  0.6372
   7323SM  H18S 9593   4.780   0.520   4.969  0.2669 -1.7424 -0.0437
   7323SM  H18T 9594   4.917   0.495   4.849 -0.3104  0.0814  0.2130
   7323SM  H18U 9595   4.863   0.667   4.892 -0.8720  0.2456  2.2657
   7323SM   C1F 9596   4.618   0.707   6.546 -0.0441  0.7581  0.0531
   7323SM    OF 9597   4.564   0.803   6.585 -0.4438  0.0725  0.2832
   7323SM   C2F 9598   4.555   0.595   6.465  0.1724 -0.0908  0.3906
   7323SM   H2F 9599   4.565   0.500   6.521  1.8595 -1.3642 -1.8477
   7323SM   H2G 9600   4.606   0.589   6.366 -1.2796 -4.3416 -0.3227
   7323SM   C3F 9601   4.404   0.618   6.434  0.3463  0.0260  0.0763
   7323SM   H3F 9602   4.376   0.715   6.388  3.4740  0.9025 -0.2044
   7323SM   H3G 9603   4.352   0.617   6.533 -0.0027  0.0923 -0.1065
   7323SM   C4F 9604   4.361   0.492   6.355  0.4136 -0.1805  0.5409
   7323SM   H4F 9605   4.252   0.485   6.373  0.1546 -2.0341 -1.3086
   7323SM   H4G 9606   4.420   0.405   6.390  3.0117  1.1346 -0.2712
   7323SM   C5F 9607   4.397   0.513   6.207 -0.0393 -0.0909  0.1390
   7323SM   H5F 9608   4.505   0.536   6.197 -0.1105  0.0038 -0.4770
   7323SM   H5G 9609   4.336   0.595   6.163 -0.7295 -0.2757  0.7531
   7323SM   C6F 9610   4.374   0.392   6.113 -0.7515 -1.0704  0.8773
   7323SM   H6F 9611   4.270   0.357   6.132  0.3927 -3.4704  3.5343
   7323SM   H6G 9612   4.438   0.310   6.152 -1.6080 -1.4562  1.4999
   7323SM   C7F 9613   4.383   0.431   5.962  0.0917 -0.2553  0.1496
   7323SM   H7F 9614   4.491   0.451   5.942  0.4145  1.9851  3.5197
   7323SM   H7G 9615   4.330   0.526   5.942  0.0153 -0.5393 -1.1155
   7323SM   C8F 9616   4.345   0.315   5.880  0.2118  0.4756  0.6208
   7323SM   H8F 9617   4.239   0.288   5.902  0.2909 -0.1510  0.2619
   7323SM   H8G 9618   4.415   0.232   5.903  0.5622  0.3542 -0.7629
   7323SM   C9F 9619   4.356   0.356   5.734  0.3916  0.2136 -0.0728
   7323SM   H9F 9620   4.450   0.414   5.721  1.3869 -0.8720  1.8090
   7323SM   H9G 9621   4.264   0.416   5.717  0.0776 -0.2872 -0.1572
   7323SM  C10F 9622   4.361   0.241   5.633 -0.3334 -0.6186  0.1973
   7323SM  H10F 9623   4.288   0.164   5.665 -1.1106  0.3625  0.8664
   7323SM  H10G 9624   4.464   0.202   5.645 -1.1507 -2.2282  2.7513
   7323SM  C11F 9625   4.335   0.302   5.494  0.9246  0.3901 -0.5361
   7323SM  H11F 9626   4.421   0.369   5.473  1.7324 -0.0168  1.2785
   7323SM  H11G 9627   4.243   0.364   5.486  0.0165 -0.9105 -0.6635
   7323SM  C12F 9628   4.323   0.203   5.379 -0.2984 -0.2693 -0.1064
   7323SM  H12F 9629   4.241   0.132   5.403 -0.3636 -0.2161 -0.1728
   7323SM  H12G 9630   4.418   0.144   5.376 -0.7649 -0.9871 -1.0808
   7323SM  C13F 9631   4.301   0.268   5.241  0.1679 -0.7112 -0.3602
   7323SM  H13F 9632   4.379   0.344   5.220 -0.0260 -0.0969  0.9910
   7323SM  H13G 9633   4.200   0.315   5.248  0.7831  0.4744  1.1750
   7323SM  C14F 9634   4.303   0.157   5.132 -0.0963 -0.0453 -0.6228
   7323SM  H14F 9635   4.214   0.092   5.147  0.0910 -0.1241  0.1814
   7323SM  H14G 9636   4.393   0.094   5.148  0.1260  0.7114  1.2787
   7323SM  C15F 9637   4.299   0.194   4.986  0.5355  0.0507  0.0396
   7323SM  H15F 9638   4.371   0.276   4.963  1.6402 -0.0695  2.6481
   7323SM  H15G 9639   4.192   0.219   4.975 -0.2818 -2.4895  1.3639
   7323SM  C16F 9640   4.344   0.078   4.895 -0.5120  0.3532 -0.3881
   7323SM  H16F 9641   4.282  -0.011   4.920  0.1895  0.1876  0.8242
   7323SM  H16G 9642   4.452   0.052   4.903 -0.0269  2.3384 -0.0965
   7323SM  C17F 9643   4.311   0.108   4.750 -0.1202  0.4240 -0.8682
   7323SM  H17F 9644   4.333   0.214   4.724 -0.3982  1.2105  1.8088
   7323SM  H17G 9645   4.201   0.102   4.739 -0.2639 -2.6254  1.1895
   7323SM  C18F 9646   4.374   0.009   4.647 -0.1016 -0.1583 -0.1689
   7323SM  H18F 9647   4.374  -0.089   4.701 -0.2589  1.7849  3.7330
   7323SM  H18G 9648   4.474   0.054   4.636 -0.2169  0.5104  1.3240
   7323SM  C19F 9649   4.306   0.009   4.507 -0.5765  0.4289 -0.3874
   7323SM  H19F 9650   4.312   0.109   4.460  0.1042  0.1748 -0.8461
   7323SM  H19G 9651   4.199  -0.018   4.522  0.0698 -1.4969  1.0690
   7323SM  C20F 9652   4.382  -0.088   4.410  0.0788  0.2662 -0.1291
   7323SM  H20F 9653   4.321  -0.105   4.318 -1.1484 -1.6919  0.9919
   7323SM  H20G 9654   4.386  -0.190   4.453  1.4986 -0.2003 -1.2682
   7323SM  C21F 9655   4.526  -0.055   4.364  0.3212  0.6603  0.0244
   7323SM  H21F 9656   4.570  -0.149   4.323 -1.0079 -1.3193  2.7970
   7323SM  H21G 9657   4.569  -0.021   4.461  0.2415 -0.5915  0.5193
   7323SM  C22F 9658   4.536   0.063   4.270  0.3212  0.0770 -0.5257
   7323SM  H22F 9659   4.529   0.161   4.321 -1.0530 -0.1681 -0.2181
   7323SM  H22G 9660   4.460   0.058   4.189 -0.8682  0.1135  0.5603
   7323SM  C23F 9661   4.680   0.061   4.203  0.4736  0.0363 -0.0487
   7323SM  H23F 9662   4.693   0.142   4.128 -1.3238 -0.6581 -1.1901
   7323SM  H23G 9663   4.694  -0.035   4.151  2.2965  0.6463 -0.7575
   7323SM  H23H 9664   4.760   0.062   4.280 -0.1068 -1.8171  0.6346
   7423SM     N 9665   0.059   4.125   7.076  0.0433 -0.6726  0.4937
   7423SM   C15 9666  -0.072   4.048   7.035 -0.7022 -0.1920  0.1046
   7423SM  H15A 9667  -0.088   3.956   7.090 -2.2190  0.3404  0.5935
   7423SM  H15B 9668  -0.057   4.021   6.931  1.2089  1.8232 -0.2106
   7423SM  H15C 9669  -0.152   4.118   7.049 -0.2868  0.1548  0.7866
   7423SM   C14 9670   0.069   4.255   7.001 -0.5101 -0.2661 -0.1896
   7423SM  H14A 9671   0.140   4.328   7.037 -2.3505  0.6410  1.8668
   7423SM  H14B 9672  -0.015   4.324   6.997 -0.0079  0.3444 -3.9086
   7423SM  H14C 9673   0.109   4.232   6.904  1.3300 -1.2756  0.7684
   7423SM   C13 9674   0.038   4.160   7.217  0.5836 -0.5382 -0.1836
   7423SM  H13A 9675  -0.045   4.227   7.236  0.0332 -1.1243 -0.4862
   7423SM  H13B 9676   0.130   4.197   7.261  0.4943 -0.7857  0.2193
   7423SM  H13C 9677   0.001   4.074   7.271 -0.5886  0.7983  1.2432
   7423SM   C12 9678   0.180   4.035   7.051  0.3530 -0.7989  0.4761
   7423SM  H12A 9679   0.166   3.946   7.110 -0.9358 -0.5544  0.5715
   7423SM  H12B 9680   0.260   4.086   7.104  0.0491  0.1191  0.0796
   7423SM   C11 9681   0.215   4.003   6.907 -0.1107 -0.0074  0.1515
   7423SM  H11A 9682   0.236   4.096   6.851 -1.9584  0.1795 -0.2686
   7423SM  H11B 9683   0.127   3.952   6.863  1.3584 -1.8862 -0.7826
   7423SM     P 9684   0.466   3.941   6.930  0.1365  0.2003  0.0226
   7423SM   O13 9685   0.481   4.036   7.042 -0.4408 -0.2793 -0.0816
   7423SM   O14 9686   0.549   3.821   6.943  0.5044 -0.1117  0.0604
   7423SM   O11 9687   0.507   4.007   6.794  0.2890  0.5226  0.6327
   7423SM   O12 9688   0.321   3.909   6.906 -0.1378  0.1954 -0.0393
   7423SM   C1S 9689   0.470   3.932   6.678  0.1651  0.3964  0.0649
   7423SM   H1S 9690   0.381   3.977   6.628  0.1495  0.4864  0.1739
   7423SM   H1T 9691   0.440   3.827   6.695 -1.7463  0.6600 -1.3212
   7423SM    NF 9692   0.535   3.857   6.443  0.0680 -0.6924 -0.0548
   7423SM   HNF 9693   0.600   3.793   6.402  0.5112 -0.9882  1.0595
   7423SM   C2S 9694   0.584   3.935   6.561 -0.3321 -0.7857  0.4942
   7423SM   H2S 9695   0.586   4.043   6.536 -1.4845 -0.7491  0.4794
   7423SM   C3S 9696   0.722   3.894   6.611 -0.7421 -0.0068 -0.4758
   7423SM   H3S 9697   0.715   3.786   6.634  0.5454  0.1209  0.6463
   7423SM    O3 9698   0.767   3.956   6.736 -0.8787  0.7391 -0.6665
   7423SM   HO3 9699   0.686   3.988   6.776 -0.5629  0.1900  0.4482
   7423SM   C4S 9700   0.831   3.927   6.505 -0.0961  0.2665 -0.5524
   7423SM   H4S 9701   0.866   3.843   6.444 -0.7468 -0.4087 -0.0058
   7423SM   C5S 9702   0.886   4.055   6.492  0.3924  0.2738  0.2744
   7423SM   H5S 9703   0.830   4.130   6.549  1.0186  1.0102 -0.0493
   7423SM   C6S 9704   0.994   4.105   6.397  0.8090 -0.5673 -0.1045
   7423SM   H6S 9705   1.091   4.120   6.449 -0.1772  0.4147  1.5322
   7423SM   H6T 9706   0.960   4.204   6.359  1.4560 -0.3636 -0.1545
   7423SM   C7S 9707   1.013   4.006   6.280  0.0945 -0.2132 -0.2490
   7423SM   H7S 9708   0.916   3.980   6.233  0.2188 -1.3535  0.0954
   7423SM   H7T 9709   1.055   3.906   6.303 -0.8947 -0.5677  0.0871
   7423SM   C8S 9710   1.107   4.066   6.177 -0.2615  0.3149 -0.8310
   7423SM   H8S 9711   1.208   4.080   6.220  1.0224 -1.0787 -3.1155
   7423SM   H8T 9712   1.076   4.166   6.141 -1.4003  0.2583 -0.0303
   7423SM   C9S 9713   1.104   3.993   6.044 -0.2737 -0.0998 -0.3109
   7423SM   H9S 9714   1.002   3.991   5.999 -0.3474 -0.8483 -0.1351
   7423SM   H9T 9715   1.142   3.889   6.046  1.5279  0.5443  0.4083
   7423SM  C10S 9716   1.196   4.065   5.940 -0.0547  0.2266 -0.4345
   7423SM  H10S 9717   1.300   4.046   5.975  0.5726  0.3807 -2.1508
   7423SM  H10T 9718   1.185   4.175   5.949  0.4091  0.1644  1.3764
   7423SM  C11S 9719   1.191   4.008   5.802  0.2360  0.7227  0.6792
   7423SM  H11S 9720   1.085   3.997   5.769  1.2863 -1.4139 -2.4487
   7423SM  H11T 9721   1.227   3.903   5.799  0.0249  0.6626 -1.1506
   7423SM  C12S 9722   1.267   4.093   5.701 -0.0666 -0.1365  0.1592
   7423SM  H12S 9723   1.237   4.199   5.717 -0.4417  0.4000 -3.2577
   7423SM  H12T 9724   1.227   4.071   5.600 -0.0451  0.4631  0.0139
   7423SM  C13S 9725   1.422   4.089   5.717  0.5491 -0.3134 -0.3566
   7423SM  H13S 9726   1.466   3.992   5.687  1.9424  0.1084  0.2315
   7423SM  H13T 9727   1.446   4.095   5.826  2.3512  0.2232 -0.7486
   7423SM  C14S 9728   1.497   4.208   5.648  0.4728 -0.3784 -1.1054
   7423SM  H14S 9729   1.605   4.198   5.672  0.4243  0.4384 -0.5041
   7423SM  H14T 9730   1.464   4.300   5.701 -0.0805 -1.2987  0.2017
   7423SM  C15S 9731   1.498   4.215   5.497  0.1728 -0.3671  0.2401
   7423SM  H15S 9732   1.405   4.259   5.455  0.0173 -1.7055 -0.8928
   7423SM  H15T 9733   1.507   4.115   5.448  1.1598  0.5862 -1.5987
   7423SM  C16S 9734   1.616   4.302   5.435 -0.7718  0.2856 -0.4664
   7423SM  H16S 9735   1.679   4.230   5.379 -0.7820  0.3175 -0.5190
   7423SM  H16T 9736   1.681   4.329   5.521 -1.3698 -1.5055  0.5951
   7423SM  C17S 9737   1.581   4.421   5.346 -0.2660 -0.2671 -0.5646
   7423SM  H17S 9738   1.670   4.482   5.318  2.6809 -4.3452 -0.9286
   7423SM  H17T 9739   1.506   4.487   5.393  0.3404  0.9810 -1.2818
   7423SM  C18S 9740   1.517   4.379   5.213 -0.0532  0.0871  0.3862
   7423SM  H18S 9741   1.579   4.307   5.155  0.4235 -0.8623  2.0045
   7423SM  H18T 9742   1.506   4.471   5.152  0.3272  0.5967  1.0869
   7423SM  H18U 9743   1.419   4.328   5.228  1.0152 -2.1707  0.1390
   7423SM   C1F 9744   0.422   3.892   6.369 -0.2020 -0.2531 -0.1360
   7423SM    OF 9745   0.356   3.990   6.405 -0.0472 -0.1624  0.2827
   7423SM   C2F 9746   0.394   3.810   6.247  0.4546 -0.7752  0.5769
   7423SM   H2F 9747   0.362   3.713   6.290 -2.0769  0.0173  0.6637
   7423SM   H2G 9748   0.485   3.790   6.186  0.0291 -2.1132  0.3426
   7423SM   C3F 9749   0.280   3.861   6.157 -0.2751  0.0117  0.2388
   7423SM   H3F 9750   0.296   3.969   6.141  0.1799  0.2785  2.1756
   7423SM   H3G 9751   0.180   3.851   6.205 -0.0027 -0.1556  0.7830
   7423SM   C4F 9752   0.263   3.788   6.023  0.1595  0.5132  0.5861
   7423SM   H4F 9753   0.173   3.822   5.967  1.3215  2.9029  0.0486
   7423SM   H4G 9754   0.243   3.680   6.040 -0.8235  0.3734 -1.1656
   7423SM   C5F 9755   0.394   3.809   5.945 -0.1159 -0.0681  0.2617
   7423SM   H5F 9756   0.462   3.730   5.984 -1.5202 -0.5570  1.8464
   7423SM   H5G 9757   0.442   3.908   5.961 -0.0375  0.5879 -3.2864
   7423SM   C6F 9758   0.384   3.796   5.796 -0.9200  0.9092 -0.5182
   7423SM   H6F 9759   0.327   3.877   5.746 -1.2253 -0.5581 -2.7121
   7423SM   H6G 9760   0.329   3.701   5.775 -2.2003  1.0267  1.9493
   7423SM   C7F 9761   0.522   3.766   5.729  0.5844  0.1421 -0.3031
   7423SM   H7F 9762   0.575   3.681   5.778  0.3306  0.7179  1.0037
   7423SM   H7G 9763   0.585   3.857   5.730  0.2401  0.3810  0.9125
   7423SM   C8F 9764   0.509   3.739   5.582 -0.1741 -0.0504  0.1172
   7423SM   H8F 9765   0.610   3.707   5.550  0.3509  1.1493  0.4994
   7423SM   H8G 9766   0.469   3.818   5.515  1.0247  0.0342 -0.5321
   7423SM   C9F 9767   0.405   3.629   5.546  0.1049 -0.2708 -0.2387
   7423SM   H9F 9768   0.305   3.672   5.568 -0.0412 -1.0487  0.6685
   7423SM   H9G 9769   0.423   3.540   5.611 -0.6454 -1.6508 -1.8483
   7423SM  C10F 9770   0.420   3.588   5.397  0.8313  0.8585 -0.5098
   7423SM  H10F 9771   0.420   3.677   5.331 -0.3308  3.2153  2.4558
   7423SM  H10G 9772   0.329   3.528   5.372  0.7187  0.6918  0.2772
   7423SM  C11F 9773   0.542   3.495   5.383 -0.0278  0.1011  0.2614
   7423SM  H11F 9774   0.530   3.409   5.454  0.0718  0.3697  0.6066
   7423SM  H11G 9775   0.632   3.553   5.412  1.0641 -0.9493 -0.9037
   7423SM  C12F 9776   0.566   3.451   5.235  0.0026  0.0723 -0.2887
   7423SM  H12F 9777   0.673   3.420   5.226 -0.3398 -0.8751 -1.3040
   7423SM  H12G 9778   0.552   3.548   5.183 -0.5873  1.0256  1.5442
   7423SM  C13F 9779   0.489   3.333   5.178  0.8554  0.9497 -0.1271
   7423SM  H13F 9780   0.380   3.350   5.191  0.4398 -2.0430  1.2683
   7423SM  H13G 9781   0.519   3.245   5.239 -5.2479 -1.6088 -0.1237
   7423SM  C14F 9782   0.520   3.302   5.036  0.5663  0.8406  1.0197
   7423SM  H14F 9783   0.618   3.251   5.032  0.2532  0.2608  0.6349
   7423SM  H14G 9784   0.517   3.400   4.982 -0.2293  2.8054  4.3585
   7423SM  C15F 9785   0.418   3.217   4.963  0.3597  0.6211 -0.6906
   7423SM  H15F 9786   0.320   3.266   4.979  0.2551  0.5265 -1.0205
   7423SM  H15G 9787   0.416   3.123   5.022 -1.9721  1.2185  0.2970
   7423SM  C16F 9788   0.424   3.194   4.809 -0.0983  0.4256 -0.1615
   7423SM  H16F 9789   0.498   3.116   4.778 -0.9328  0.4671 -2.4469
   7423SM  H16G 9790   0.467   3.293   4.786 -0.1142  0.2867 -0.7981
   7423SM  C17F 9791   0.290   3.164   4.729 -1.1519  0.1395 -0.8704
   7423SM  H17F 9792   0.332   3.165   4.626  0.0749 -2.6033 -0.4915
   7423SM  H17G 9793   0.226   3.251   4.754 -2.3227 -1.3928  2.0312
   7423SM  C18F 9794   0.208   3.045   4.757  0.0790  0.7206 -0.7557
   7423SM  H18F 9795   0.177   3.038   4.863 -2.3769 -1.3823 -1.4823
   7423SM  H18G 9796   0.276   2.959   4.738  2.2828  1.7218  1.9578
   7423SM  C19F 9797   0.076   3.038   4.678 -0.1175  0.2493  1.0081
   7423SM  H19F 9798   0.096   3.011   4.572 -1.6375 -1.1904  1.0443
   7423SM  H19G 9799   0.024   3.136   4.687  0.4352  0.6917 -0.3602
   7423SM  C20F 9800  -0.020   2.925   4.725 -0.0985  0.1281  0.8762
   7423SM  H20F 9801   0.042   2.833   4.724  1.9248  1.4283  0.3825
   7423SM  H20G 9802  -0.102   2.925   4.649  1.6165  0.9131 -1.0791
   7423SM  C21F 9803  -0.071   2.938   4.873 -0.3067 -0.0824 -0.7939
   7423SM  H21F 9804  -0.074   3.047   4.892  1.5514  0.0036 -0.8392
   7423SM  H21G 9805   0.008   2.891   4.935  0.8003  2.4787 -0.1486
   7423SM  C22F 9806  -0.207   2.884   4.891 -0.2178  0.7063  0.2245
   7423SM  H22F 9807  -0.263   2.899   4.797  0.6059 -0.4273 -0.4734
   7423SM  H22G 9808  -0.263   2.927   4.977 -2.1315  0.9704 -1.1112
   7423SM  C23F 9809  -0.207   2.732   4.915  0.0752  0.0970  0.0437
   7423SM  H23F 9810  -0.306   2.683   4.932  0.3418 -0.4822 -0.0344
   7423SM  H23G 9811  -0.142   2.693   4.996 -0.5109 -0.1652  0.3953
   7423SM  H23H 9812  -0.168   2.690   4.819  0.8891  2.8847 -0.9348
   7523SM     N 9813   5.733   6.224   7.360 -0.2522 -1.0354 -0.6123
   7523SM   C15 9814   5.806   6.230   7.230 -0.6189 -0.0680  0.2914
   7523SM  H15A 9815   5.806   6.328   7.184 -0.1574 -0.7476 -1.2557
   7523SM  H15B 9816   5.755   6.156   7.169  1.5884 -2.6095  1.3346
   7523SM  H15C 9817   5.912   6.209   7.239 -0.2060  1.8523  0.2410
   7523SM   C14 9818   5.609   6.304   7.361  0.2087 -0.1499 -0.0034
   7523SM  H14A 9819   5.566   6.309   7.460  1.1272 -1.9718  0.5295
   7523SM  H14B 9820   5.544   6.262   7.286  0.8747 -1.1410 -0.0330
   7523SM  H14C 9821   5.637   6.402   7.326  2.5292 -1.0566 -0.8834
   7523SM   C13 9822   5.697   6.081   7.385 -0.0892  0.4619  0.4088
   7523SM  H13A 9823   5.791   6.030   7.367  0.0363 -0.3198  2.8889
   7523SM  H13B 9824   5.634   6.032   7.312  0.8362  1.3858 -1.0655
   7523SM  H13C 9825   5.669   6.076   7.489 -1.8046 -0.7022 -0.0712
   7523SM   C12 9826   5.832   6.282   7.463  0.5592  0.0722 -0.1963
   7523SM  H12A 9827   5.781   6.272   7.558  0.4604  1.7716 -0.0334
   7523SM  H12B 9828   5.841   6.390   7.455  1.4421  0.3122  2.8186
   7523SM   C11 9829   5.967   6.212   7.502  0.9538  0.7457 -0.0292
   7523SM  H11A 9830   5.932   6.109   7.525 -0.3645  1.2779  0.4208
   7523SM  H11B 9831   6.006   6.258   7.595 -2.3267  1.7482  0.9749
   7523SM     P 9832   6.142   6.315   7.335 -0.2350  0.3716  0.3520
   7523SM   O13 9833   6.093   6.443   7.389  0.1982  1.0359  0.1139
   7523SM   O14 9834   6.287   6.290   7.364 -0.4913 -0.5171  0.4238
   7523SM   O11 9835   6.114   6.308   7.179  0.2690 -0.6971 -0.0154
   7523SM   O12 9836   6.054   6.195   7.395  0.0013 -0.8170  0.0373
   7523SM   C1S 9837   6.135   6.190   7.100 -0.7470  0.3097  0.0288
   7523SM   H1S 9838   6.053   6.118   7.122 -0.6893  0.2108 -0.0792
   7523SM   H1T 9839   6.234   6.144   7.120  0.0179  2.4422  1.5774
   7523SM    NF 9840   6.178   6.091   6.882  0.2581 -0.3448  0.4177
   7523SM   HNF 9841   6.273   6.061   6.874  0.2668 -0.1523 -0.3132
   7523SM   C2S 9842   6.145   6.218   6.947  0.4614 -0.1683  0.0962
   7523SM   H2S 9843   6.056   6.264   6.900  0.4667 -0.6834 -0.4199
   7523SM   C3S 9844   6.254   6.326   6.931  0.1709  0.3270  0.7107
   7523SM   H3S 9845   6.343   6.286   6.983 -1.5686 -1.9926  2.0790
   7523SM    O3 9846   6.231   6.454   6.989  0.1523 -0.4338  0.1976
   7523SM   HO3 9847   6.158   6.436   7.048 -0.3680 -1.5334 -0.7307
   7523SM   C4S 9848   6.275   6.343   6.785  0.7780 -0.0170  0.8542
   7523SM   H4S 9849   6.183   6.352   6.725  0.7860  0.9790  0.9777
   7523SM   C5S 9850   6.395   6.346   6.719  0.5502  0.5545 -0.6295
   7523SM   H5S 9851   6.482   6.328   6.784  0.2835 -0.4395 -0.5384
   7523SM   C6S 9852   6.422   6.353   6.571 -0.2201 -0.1987  0.5275
   7523SM   H6S 9853   6.353   6.285   6.516  0.9580 -1.1597  0.1808
   7523SM   H6T 9854   6.522   6.317   6.540 -0.2051  0.6187 -0.4306
   7523SM   C7S 9855   6.400   6.497   6.514  0.3267  0.1455  0.1169
   7523SM   H7S 9856   6.471   6.564   6.568  0.2674  0.0207  0.3488
   7523SM   H7T 9857   6.293   6.524   6.523  0.7147  3.0424 -2.2937
   7523SM   C8S 9858   6.433   6.524   6.366 -0.1740  0.1965  0.0656
   7523SM   H8S 9859   6.534   6.477   6.357 -1.3451 -2.7253  0.9253
   7523SM   H8T 9860   6.448   6.633   6.353  0.1759  0.0549 -0.8244
   7523SM   C9S 9861   6.345   6.472   6.262  0.8215 -0.1596 -0.1810
   7523SM   H9S 9862   6.239   6.496   6.283  0.9307  1.4648 -1.2502
   7523SM   H9T 9863   6.362   6.363   6.251 -4.8140 -1.3441  0.0777
   7523SM  C10S 9864   6.378   6.529   6.120  0.2383  0.5291  0.3064
   7523SM  H10S 9865   6.488   6.521   6.104 -0.0188 -2.8497 -0.6103
   7523SM  H10T 9866   6.355   6.636   6.136 -0.2459  0.1012  3.0956
   7523SM  C11S 9867   6.298   6.465   6.009  0.1824 -1.0614  0.2360
   7523SM  H11S 9868   6.192   6.496   6.023  0.4724  0.3595 -0.5022
   7523SM  H11T 9869   6.301   6.354   6.011  1.4504 -1.0440  0.2751
   7523SM  C12S 9870   6.350   6.506   5.872 -1.3179 -0.8245  0.4224
   7523SM  H12S 9871   6.458   6.480   5.866 -0.7361  1.6821 -2.1431
   7523SM  H12T 9872   6.347   6.617   5.881 -2.6560 -0.7821 -0.3303
   7523SM  C13S 9873   6.269   6.445   5.759 -0.7653 -0.1133  0.8805
   7523SM  H13S 9874   6.166   6.484   5.772 -0.6297  0.7701 -0.4805
   7523SM  H13T 9875   6.265   6.337   5.783  1.1166 -0.8216 -1.5836
   7523SM  C14S 9876   6.313   6.472   5.616 -0.6346 -0.5813 -0.1537
   7523SM  H14S 9877   6.424   6.471   5.618 -0.6297 -0.8971 -0.6095
   7523SM  H14T 9878   6.286   6.574   5.581  0.4604  0.1620  1.0640
   7523SM  C15S 9879   6.262   6.371   5.519 -0.6709 -0.2378  0.0905
   7523SM  H15S 9880   6.154   6.346   5.530 -0.7136 -1.5955 -2.4983
   7523SM  H15T 9881   6.312   6.272   5.532  0.0476 -0.0998 -1.3425
   7523SM  C16S 9882   6.281   6.422   5.370  0.1266 -0.2904  1.1750
   7523SM  H16S 9883   6.380   6.470   5.360 -1.2456  2.2694 -1.6686
   7523SM  H16T 9884   6.206   6.503   5.353  1.0580  0.3102 -0.2862
   7523SM  C17S 9885   6.275   6.312   5.261 -0.0663 -0.3473 -0.6808
   7523SM  H17S 9886   6.191   6.245   5.288 -0.8343 -0.3977 -2.9338
   7523SM  H17T 9887   6.367   6.252   5.274  1.2520  1.7393  0.0890
   7523SM  C18S 9888   6.244   6.360   5.120  0.2339 -0.2213 -0.1509
   7523SM  H18S 9889   6.139   6.396   5.114  0.4302  0.1992 -1.3182
   7523SM  H18T 9890   6.248   6.276   5.047  2.5474 -2.2172  2.0814
   7523SM  H18U 9891   6.308   6.449   5.099 -1.7624  1.9311  2.2215
   7523SM   C1F 9892   6.079   5.996   6.872 -0.4175 -0.6372 -0.1896
   7523SM    OF 9893   5.961   6.028   6.892  0.5533 -0.6021  0.5215
   7523SM   C2F 9894   6.125   5.859   6.862 -0.6260 -0.6370 -0.1826
   7523SM   H2F 9895   6.142   5.796   6.953  0.6166 -0.1352 -0.0455
   7523SM   H2G 9896   6.228   5.862   6.819 -1.4538 -0.3581 -2.2235
   7523SM   C3F 9897   6.035   5.772   6.775 -0.3513 -0.2721  0.1066
   7523SM   H3F 9898   5.936   5.770   6.826  0.0761  0.3469  0.9995
   7523SM   H3G 9899   6.074   5.668   6.772  2.7951  0.8201 -0.9976
   7523SM   C4F 9900   6.008   5.827   6.636 -0.1853  0.1332  0.0270
   7523SM   H4F 9901   6.101   5.858   6.583  1.8531 -2.0745  2.0666
   7523SM   H4G 9902   5.945   5.917   6.654 -1.0143 -0.0740 -1.6582
   7523SM   C5F 9903   5.922   5.737   6.547  0.5607 -0.4043  0.3819
   7523SM   H5F 9904   5.833   5.718   6.611  1.2805 -0.4891  1.3803
   7523SM   H5G 9905   5.982   5.644   6.533 -1.3691 -2.0081  2.0652
   7523SM   C6F 9906   5.889   5.793   6.409  0.7178 -0.5481 -0.2876
   7523SM   H6F 9907   5.960   5.759   6.330 -1.0608 -3.2500 -0.8328
   7523SM   H6G 9908   5.895   5.904   6.402 -0.2379 -0.5679 -2.1694
   7523SM   C7F 9909   5.737   5.775   6.374  0.3181  1.4814 -0.2059
   7523SM   H7F 9910   5.673   5.814   6.456 -1.2220 -0.5053 -0.3773
   7523SM   H7G 9911   5.717   5.666   6.388  0.5510  1.5361  0.5523
   7523SM   C8F 9912   5.689   5.841   6.244  0.2367 -0.6387 -0.2100
   7523SM   H8F 9913   5.718   5.948   6.244  0.4846 -0.6867 -1.7214
   7523SM   H8G 9914   5.580   5.818   6.249 -0.3184  1.7428 -0.0155
   7523SM   C9F 9915   5.757   5.771   6.121 -0.3855 -0.1646 -0.7276
   7523SM   H9F 9916   5.725   5.665   6.132  1.0630 -0.5938 -0.3839
   7523SM   H9G 9917   5.866   5.784   6.139 -0.2861 -1.7537 -0.0211
   7523SM  C10F 9918   5.726   5.838   5.987  0.2339  0.6657 -0.6114
   7523SM  H10F 9919   5.813   5.820   5.920  0.0296  3.2915 -1.6749
   7523SM  H10G 9920   5.723   5.948   5.995  0.3332  0.5849  0.8973
   7523SM  C11F 9921   5.590   5.786   5.930 -0.4346  0.1125  0.7319
   7523SM  H11F 9922   5.503   5.794   5.999 -3.5163 -4.0719 -2.1664
   7523SM  H11G 9923   5.609   5.680   5.906 -0.1631  0.3132  0.0395
   7523SM  C12F 9924   5.545   5.857   5.798  0.8108 -0.5487  0.4595
   7523SM  H12F 9925   5.525   5.965   5.818  0.3665 -0.6866  0.7739
   7523SM  H12G 9926   5.449   5.816   5.760  0.1438  2.1936 -1.1208
   7523SM  C13F 9927   5.640   5.851   5.676  0.2175  0.0239 -0.2274
   7523SM  H13F 9928   5.747   5.866   5.701  0.0171  1.8677 -0.3624
   7523SM  H13G 9929   5.602   5.931   5.608  2.0568 -0.1048 -1.4896
   7523SM  C14F 9930   5.628   5.715   5.599  0.0684  0.7083 -0.0169
   7523SM  H14F 9931   5.526   5.672   5.594  0.1388  0.5982 -0.6297
   7523SM  H14G 9932   5.697   5.647   5.654  0.1673  0.7051 -0.1426
   7523SM  C15F 9933   5.667   5.729   5.453 -0.7720  0.0640 -0.2078
   7523SM  H15F 9934   5.772   5.765   5.461 -0.9586  0.4819  0.4615
   7523SM  H15G 9935   5.599   5.810   5.418 -1.3797  1.0875  2.9517
   7523SM  C16F 9936   5.659   5.595   5.380  0.5508  0.2308 -0.0199
   7523SM  H16F 9937   5.555   5.561   5.360  0.8853 -0.8142 -0.0314
   7523SM  H16G 9938   5.706   5.526   5.454 -1.0413  1.3693  2.1549
   7523SM  C17F 9939   5.725   5.603   5.241  0.3377  0.5673  0.2205
   7523SM  H17F 9940   5.833   5.613   5.262  1.2810 -1.7885 -2.8024
   7523SM  H17G 9941   5.688   5.696   5.191 -2.2895 -0.6606 -0.3265
   7523SM  C18F 9942   5.701   5.471   5.165  0.0730 -0.5865  0.2188
   7523SM  H18F 9943   5.592   5.450   5.175  0.1973 -1.5087 -0.2472
   7523SM  H18G 9944   5.760   5.391   5.215  1.2837  1.0499  1.4981
   7523SM  C19F 9945   5.758   5.472   5.023  0.0338 -0.1809 -0.0003
   7523SM  H19F 9946   5.865   5.498   5.037  0.1033  0.1226 -0.9902
   7523SM  H19G 9947   5.713   5.553   4.961 -0.8684 -0.2571  0.5298
   7523SM  C20F 9948   5.743   5.335   4.958 -0.0426 -0.7691 -0.8446
   7523SM  H20F 9949   5.802   5.261   5.016 -0.5579  1.8229  3.4106
   7523SM  H20G 9950   5.801   5.353   4.865  2.6797  0.0530  0.8978
   7523SM  C21F 9951   5.606   5.279   4.929  0.2521 -0.5864 -0.4918
   7523SM  H21F 9952   5.557   5.270   5.028  0.5708  0.7998 -0.1865
   7523SM  H21G 9953   5.604   5.172   4.900 -2.0100 -1.0436  1.1086
   7523SM  C22F 9954   5.522   5.354   4.828  0.1390 -0.5578 -0.5293
   7523SM  H22F 9955   5.583   5.421   4.764  0.5557 -0.7188 -0.2994
   7523SM  H22G 9956   5.470   5.434   4.885 -1.5766 -1.0351 -1.3324
   7523SM  C23F 9957   5.419   5.271   4.746  0.5283  0.4013  0.7682
   7523SM  H23F 9958   5.349   5.330   4.683  1.0915 -2.3856 -2.8028
   7523SM  H23G 9959   5.362   5.210   4.819 -0.8408 -0.5397 -1.0253
   7523SM  H23H 9960   5.478   5.200   4.684 -1.3120 -0.7448  0.2702
   7623SM     N 9961   0.322   4.914   7.099  0.5641 -0.8534  0.3884
   7623SM   C15 9962   0.317   5.013   7.205 -0.1525 -0.1554 -0.3587
   7623SM  H15A 9963   0.414   5.058   7.219  0.2902 -1.2354  0.1746
   7623SM  H15B 9964   0.277   4.978   7.299 -1.8481  1.8615 -0.2474
   7623SM  H15C 9965   0.236   5.083   7.189  0.4872  0.8942  0.8276
   7623SM   C14 9966   0.207   4.824   7.132 -0.0460 -0.2328  0.0216
   7623SM  H14A 9967   0.208   4.734   7.071 -0.2456 -0.1050 -0.1715
   7623SM  H14B 9968   0.115   4.878   7.118  0.5175  0.2916 -1.9268
   7623SM  H14C 9969   0.195   4.794   7.235 -3.9268 -0.1996 -0.2774
   7623SM   C13 9970   0.291   4.979   6.968 -0.5352 -0.2968 -0.8364
   7623SM  H13A 9971   0.390   5.015   6.943 -0.3077 -0.0747  0.3069
   7623SM  H13B 9972   0.217   5.057   6.974 -1.1821 -0.8836 -1.1516
   7623SM  H13C 9973   0.255   4.902   6.901 -0.0899  0.2666 -1.7418
   7623SM   C12 9974   0.458   4.845   7.089 -0.3287 -0.0494  0.6700
   7623SM  H12A 9975   0.478   4.798   7.185  0.3249 -2.8727 -0.7314
   7623SM  H12B 9976   0.538   4.917   7.076  2.5350 -3.2889 -1.5665
   7623SM   C11 9977   0.468   4.742   6.971 -0.1297  0.1384  0.4394
   7623SM  H11A 9978   0.572   4.706   6.959  0.3522  2.1062 -2.2296
   7623SM  H11B 9979   0.454   4.800   6.877  0.7320  1.6322  1.2006
   7623SM     P 9980   0.391   4.514   7.078 -0.5253 -0.2042  0.2603
   7623SM   O13 9981   0.472   4.557   7.196  0.0540  0.2973 -0.5085
   7623SM   O14 9982   0.256   4.461   7.113  0.1386 -0.0181  0.4028
   7623SM   O11 9983   0.483   4.416   6.991  0.8215  0.0405 -0.0630
   7623SM   O12 9984   0.366   4.642   6.983 -0.6766 -0.2168 -0.1557
   7623SM   C1S 9985   0.420   4.346   6.878  0.1171  0.1352  0.0068
   7623SM   H1S 9986   0.315   4.312   6.894  0.1936 -1.0811 -1.8123
   7623SM   H1T 9987   0.475   4.250   6.872  0.9448  0.5018  1.3086
   7623SM    NF 9988   0.348   4.347   6.639 -0.7098  0.3751  0.5018
   7623SM   HNF 9989   0.401   4.315   6.561 -0.7388  0.4015  0.4710
   7623SM   C2S 9990   0.427   4.422   6.738  0.4460  0.1652  0.3569
   7623SM   H2S 9991   0.375   4.516   6.765  0.7832 -0.1771  2.3614
   7623SM   C3S 9992   0.575   4.441   6.688  0.3167 -0.3156  0.1175
   7623SM   H3S 9993   0.604   4.342   6.647  0.5389  0.4491 -1.6957
   7623SM    O3 9994   0.657   4.475   6.800 -0.0642 -0.1935  0.0770
   7623SM   HO3 9995   0.599   4.477   6.876 -0.3855 -2.2503 -0.0406
   7623SM   C4S 9996   0.587   4.536   6.568 -0.1874  0.2443  0.4426
   7623SM   H4S 9997   0.570   4.483   6.473 -0.7163 -2.4397  1.9154
   7623SM   C5S 9998   0.616   4.666   6.583  0.1572  0.2862  0.3580
   7623SM   H5S 9999   0.627   4.704   6.686 -0.7994 -0.5170  0.7806
   7623SM   C6S10000   0.618   4.755   6.459 -0.0716  0.4027 -0.1310
   7623SM   H6S10001   0.719   4.801   6.467  0.0954  0.0001  0.1164
   7623SM   H6T10002   0.544   4.837   6.466 -0.1158  0.2857  1.0386
   7623SM   C7S10003   0.603   4.696   6.319  0.2305  0.2958 -0.3122
   7623SM   H7S10004   0.504   4.645   6.319  0.3052  0.1529 -0.4606
   7623SM   H7T10005   0.682   4.618   6.311 -1.1153 -1.1386 -0.0321
   7623SM   C8S10006   0.603   4.806   6.205  0.3597 -0.4735 -0.4968
   7623SM   H8S10007   0.682   4.877   6.235 -0.5097  0.0106  0.7198
   7623SM   H8T10008   0.507   4.862   6.196  1.7220  2.3561  1.2397
   7623SM   C9S10009   0.633   4.748   6.072  0.6187 -0.4954  0.2120
   7623SM   H9S10010   0.554   4.673   6.053 -1.1317  1.2056  0.5328
   7623SM   H9T10011   0.732   4.696   6.070  0.9894  0.1542  1.1703
   7623SM  C10S10012   0.634   4.846   5.953  0.8089  0.1724  0.5250
   7623SM  H10S10013   0.722   4.912   5.960  0.8767  0.5417 -2.4620
   7623SM  H10T10014   0.539   4.902   5.937 -1.6403 -3.6972 -0.0021
   7623SM  C11S10015   0.641   4.767   5.820 -0.0846  0.5345 -0.2990
   7623SM  H11S10016   0.550   4.704   5.810  0.1310  0.2307 -0.3537
   7623SM  H11T10017   0.726   4.697   5.834  0.4646  1.4132  0.9263
   7623SM  C12S10018   0.663   4.860   5.707 -0.4668  0.0219 -0.6825
   7623SM  H12S10019   0.743   4.932   5.734  0.7378  0.0816 -3.9731
   7623SM  H12T10020   0.570   4.919   5.698 -0.3636  0.2560 -0.2525
   7623SM  C13S10021   0.676   4.792   5.574  0.5539 -0.3356  0.3779
   7623SM  H13S10022   0.604   4.712   5.547 -0.5402  0.1934  1.6400
   7623SM  H13T10023   0.780   4.753   5.571  0.9566  0.7378 -0.6302
   7623SM  C14S10024   0.686   4.892   5.455 -0.2297 -0.0315 -0.4677
   7623SM  H14S10025   0.744   4.849   5.370 -0.6704 -0.7750 -0.4061
   7623SM  H14T10026   0.736   4.986   5.487 -1.7483  0.4800  0.5035
   7623SM  C15S10027   0.554   4.934   5.395 -0.6435 -0.1327  0.6850
   7623SM  H15S10028   0.483   4.984   5.466 -0.9363 -0.9423  0.9674
   7623SM  H15T10029   0.502   4.846   5.352 -1.5839  0.4063  0.6760
   7623SM  C16S10030   0.575   5.041   5.278 -0.0175  0.3547  0.2684
   7623SM  H16S10031   0.637   4.993   5.199 -0.9126  0.6045 -0.5963
   7623SM  H16T10032   0.635   5.124   5.322  0.7453  0.5854 -1.1535
   7623SM  C17S10033   0.448   5.099   5.228  0.4995 -0.5890  0.1116
   7623SM  H17S10034   0.372   5.080   5.307  1.0711  1.5196  1.2545
   7623SM  H17T10035   0.426   5.031   5.143  1.1133 -2.0905  1.1002
   7623SM  C18S10036   0.439   5.252   5.183 -0.4626  0.2691 -0.3238
   7623SM  H18S10037   0.349   5.280   5.125 -1.0912  1.5128  1.1633
   7623SM  H18T10038   0.516   5.269   5.105 -0.7161 -1.4500 -1.0071
   7623SM  H18U10039   0.456   5.316   5.273 -0.7321 -0.1652  0.0408
   7623SM   C1F10040   0.215   4.335   6.650 -0.1771  0.8096 -0.4006
   7623SM    OF10041   0.147   4.392   6.735  0.3997 -0.0714  0.1448
   7623SM   C2F10042   0.149   4.240   6.547  0.1759 -0.1835  1.1633
   7623SM   H2F10043   0.045   4.225   6.583 -1.4361  2.6622 -1.7333
   7623SM   H2G10044   0.219   4.154   6.548 -1.7275 -1.7916  1.8381
   7623SM   C3F10045   0.133   4.318   6.414  0.5220  0.0733 -0.7275
   7623SM   H3F10046   0.228   4.367   6.383  0.7252  0.1252 -0.0473
   7623SM   H3G10047   0.055   4.395   6.433  0.4118 -0.1842 -0.1047
   7623SM   C4F10048   0.093   4.208   6.305  0.2641 -0.3496  0.3334
   7623SM   H4F10049   0.012   4.141   6.339 -1.1381  0.5995 -1.0015
   7623SM   H4G10050   0.184   4.146   6.289  0.5027  0.4541 -1.7633
   7623SM   C5F10051   0.047   4.260   6.167  0.4705  0.9763  0.5194
   7623SM   H5F10052   0.124   4.324   6.118  0.2605  0.5877 -0.3376
   7623SM   H5G10053  -0.050   4.315   6.169 -0.1942  0.0325 -1.9809
   7623SM   C6F10054   0.029   4.133   6.080 -0.6851  0.7675  0.1071
   7623SM   H6F10055  -0.029   4.058   6.138 -0.3877 -0.2852 -0.9103
   7623SM   H6G10056   0.126   4.081   6.065 -1.1350  0.5995 -2.6090
   7623SM   C7F10057  -0.031   4.162   5.946 -0.7554  0.2633 -0.4325
   7623SM   H7F10058   0.035   4.243   5.907 -1.6469  0.0485 -2.4888
   7623SM   H7G10059  -0.130   4.212   5.960 -0.8741 -0.1310  0.1631
   7623SM   C8F10060  -0.034   4.035   5.867  0.4629 -0.5183 -0.8120
   7623SM   H8F10061  -0.086   3.956   5.925 -0.9203  0.8486 -0.1151
   7623SM   H8G10062   0.070   3.995   5.871  1.2097  1.2065 -1.9533
   7623SM   C9F10063  -0.086   4.052   5.724 -0.3228  0.5360 -0.7563
   7623SM   H9F10064  -0.195   4.071   5.728 -0.1205  1.6046  0.3478
   7623SM   H9G10065  -0.066   3.953   5.678  1.0170  0.0618  0.7567
   7623SM  C10F10066  -0.025   4.167   5.657 -0.7203  0.1629  0.0477
   7623SM  H10F10067   0.085   4.156   5.651 -0.7040  0.4559 -0.1811
   7623SM  H10G10068  -0.043   4.261   5.714 -0.0025  0.1295  0.3377
   7623SM  C11F10069  -0.088   4.177   5.519  0.7797  0.4353 -0.3398
   7623SM  H11F10070  -0.196   4.201   5.529  1.1148  1.9973 -0.1165
   7623SM  H11G10071  -0.064   4.079   5.472 -0.9115 -0.7788  1.1995
   7623SM  C12F10072  -0.047   4.299   5.433  0.1529  0.2807 -0.1233
   7623SM  H12F10073   0.063   4.287   5.420  0.3131  0.4459  1.0001
   7623SM  H12G10074  -0.075   4.396   5.479 -1.3948 -0.4483  0.5216
   7623SM  C13F10075  -0.100   4.292   5.290  0.0729 -0.1155 -0.4552
   7623SM  H13F10076  -0.205   4.260   5.305  0.3922 -0.5259  1.1024
   7623SM  H13G10077  -0.050   4.209   5.237 -0.9486 -1.3859  0.5068
   7623SM  C14F10078  -0.090   4.420   5.200 -0.0356 -0.6288 -0.3909
   7623SM  H14F10079   0.014   4.459   5.209  0.1491 -1.2063  0.0364
   7623SM  H14G10080  -0.148   4.507   5.237  1.1092  0.6876 -1.5492
   7623SM  C15F10081  -0.139   4.398   5.062  0.6189 -0.0065  0.3247
   7623SM  H15F10082  -0.244   4.363   5.061  0.9546 -1.1542 -1.9352
   7623SM  H15G10083  -0.078   4.312   5.027 -0.9300 -2.1116  2.5088
   7623SM  C16F10084  -0.122   4.513   4.975  0.5444 -0.1017 -0.1679
   7623SM  H16F10085  -0.148   4.474   4.874  1.3607 -0.3974 -0.2649
   7623SM  H16G10086  -0.021   4.554   4.957 -0.1576  1.6129 -0.4216
   7623SM  C17F10087  -0.223   4.628   5.002 -0.2177 -0.0282 -0.0089
   7623SM  H17F10088  -0.198   4.708   4.929  0.2901 -1.5671 -1.5681
   7623SM  H17G10089  -0.204   4.668   5.104 -2.1715 -2.7419  1.5421
   7623SM  C18F10090  -0.370   4.590   5.007  0.3009 -0.7399 -0.2595
   7623SM  H18F10091  -0.422   4.683   5.037  2.7130 -0.1357  2.4497
   7623SM  H18G10092  -0.396   4.505   5.074  1.1089  0.1940  1.2637
   7623SM  C19F10093  -0.419   4.548   4.873  0.5555 -0.2960  0.3104
   7623SM  H19F10094  -0.419   4.438   4.855  0.6168 -0.2391 -0.0337
   7623SM  H19G10095  -0.365   4.588   4.785  0.2185  0.3639  0.3997
   7623SM  C20F10096  -0.568   4.593   4.851 -0.0173 -0.2258 -0.3985
   7623SM  H20F10097  -0.610   4.558   4.948  1.5766 -0.1027  0.3687
   7623SM  H20G10098  -0.605   4.550   4.755  0.1938  3.3694 -2.2405
   7623SM  C21F10099  -0.582   4.737   4.842 -0.3141 -0.6279  0.1467
   7623SM  H21F10100  -0.500   4.775   4.777  0.7467  0.0739  1.8458
   7623SM  H21G10101  -0.574   4.790   4.939  2.5920  2.0162 -1.3719
   7623SM  C22F10102  -0.718   4.773   4.783  0.0451 -0.3549  0.3987
   7623SM  H22F10103  -0.808   4.733   4.834 -0.1640  0.6094  0.8205
   7623SM  H22G10104  -0.719   4.739   4.677 -2.1065  1.3015 -0.1883
   7623SM  C23F10105  -0.747   4.926   4.781 -0.6191 -0.5427  0.2212
   7623SM  H23F10106  -0.844   4.962   4.741  0.9840  0.9762 -2.6395
   7623SM  H23G10107  -0.670   4.976   4.718  0.5176 -1.9446  0.4322
   7623SM  H23H10108  -0.735   4.971   4.882 -2.8785  3.0726 -0.9336
   7723SM     N10109   7.530   1.475   7.118  0.1547  0.6574 -0.5001
   7723SM   C1510110   7.500   1.377   7.224  0.4781 -0.2093  0.0959
   7723SM  H15A10111   7.534   1.418   7.318  0.1331 -1.8006  0.9538
   7723SM  H15B10112   7.539   1.280   7.195  0.2795  0.1878 -1.5699
   7723SM  H15C10113   7.394   1.361   7.240  0.3760 -0.1067 -0.4429
   7723SM   C1410114   7.489   1.402   6.994  0.4204  0.0889  0.1038
   7723SM  H14A10115   7.545   1.311   6.985  1.0220  0.2538  1.7951
   7723SM  H14B10116   7.517   1.454   6.903 -0.0495 -0.0650 -0.1324
   7723SM  H14C10117   7.381   1.396   6.999  0.4501  0.4820  1.7086
   7723SM   C1310118   7.449   1.597   7.136  0.2553 -0.0555  1.2071
   7723SM  H13A10119   7.347   1.562   7.141  0.6568 -1.5538 -0.0898
   7723SM  H13B10120   7.467   1.661   7.051  0.7468 -0.8461  0.7067
   7723SM  H13C10121   7.482   1.649   7.224 -2.0257  3.4094  0.2258
   7723SM   C1210122   7.675   1.516   7.113 -0.2177  0.6666  0.2271
   7723SM  H12A10123   7.699   1.557   7.210 -1.7174 -1.7440  1.7101
   7723SM  H12B10124   7.683   1.594   7.039 -1.6349  2.2723  1.6705
   7723SM   C1110125   7.789   1.409   7.072  0.4298  0.1396  0.1564
   7723SM  H11A10126   7.776   1.313   7.127 -0.7210 -1.3332 -2.5256
   7723SM  H11B10127   7.891   1.435   7.108  0.4085  0.5926 -0.1078
   7723SM     P10128   7.847   1.491   6.838 -0.3396  0.2575  0.1320
   7723SM   O1310129   7.764   1.616   6.847  0.3141 -0.0058  0.0042
   7723SM   O1410130   7.983   1.507   6.890  0.7169  0.5970  0.6269
   7723SM   O1110131   7.842   1.440   6.693 -0.5175  0.9053 -0.1172
   7723SM   O1210132   7.777   1.380   6.929 -0.0824 -0.2013  0.1036
   7723SM   C1S10133   7.722   1.399   6.617  0.6539  0.3706  0.4660
   7723SM   H1S10134   7.636   1.462   6.649 -0.6295 -1.7296  1.3677
   7723SM   H1T10135   7.689   1.302   6.661 -0.0644  1.5951  2.7797
   7723SM    NF10136   7.618   1.389   6.405  0.7471 -0.2182 -0.5093
   7723SM   HNF10137   7.567   1.303   6.398 -1.5126  0.8986  0.9454
   7723SM   C2S10138   7.750   1.394   6.469 -0.0793  0.3325  0.3879
   7723SM   H2S10139   7.814   1.480   6.441  0.6954 -0.0518  0.9225
   7723SM   C3S10140   7.842   1.265   6.448  0.2426 -0.1675  0.5972
   7723SM   H3S10141   7.785   1.172   6.466  1.0683 -0.4324  2.0137
   7723SM    O310142   7.956   1.257   6.540  0.5492 -0.7905  0.3787
   7723SM   HO310143   7.923   1.304   6.617 -2.3654 -1.0797 -0.5730
   7723SM   C4S10144   7.883   1.258   6.299 -0.0294 -0.3385  0.5068
   7723SM   H4S10145   7.798   1.218   6.241  0.4481 -0.3386 -0.2024
   7723SM   C5S10146   8.004   1.293   6.239 -0.1428  0.7529 -0.1084
   7723SM   H5S10147   8.086   1.328   6.304 -0.6641  0.9614  0.4519
   7723SM   C6S10148   8.032   1.284   6.091 -0.2339 -0.1792 -0.8984
   7723SM   H6S10149   8.120   1.218   6.076 -1.6781 -2.1012 -1.4979
   7723SM   H6T10150   8.059   1.384   6.051 -0.1812  0.4586  0.6714
   7723SM   C7S10151   7.925   1.230   5.992 -0.2185  0.1368 -1.0297
   7723SM   H7S10152   7.826   1.273   6.013 -1.3861 -2.7760 -0.0356
   7723SM   H7T10153   7.926   1.120   6.012  2.8566  0.2726  0.0222
   7723SM   C8S10154   7.963   1.249   5.846  0.0246 -0.2066  0.3069
   7723SM   H8S10155   8.055   1.194   5.815  0.6152  0.5088  0.7653
   7723SM   H8T10156   7.975   1.357   5.824 -2.0776 -0.0642 -0.3549
   7723SM   C9S10157   7.849   1.204   5.750 -1.0843  0.3393  0.3269
   7723SM   H9S10158   7.879   1.230   5.646 -1.6003 -1.2221 -0.2482
   7723SM   H9T10159   7.754   1.253   5.779 -1.4695 -0.1276 -0.1246
   7723SM  C10S10160   7.813   1.055   5.756  0.0157  0.0535 -0.0510
   7723SM  H10S10161   7.771   1.028   5.855 -0.8345 -0.9984 -0.6865
   7723SM  H10T10162   7.901   0.990   5.741 -0.9767 -1.1974 -0.6536
   7723SM  C11S10163   7.687   1.022   5.677 -0.8710  0.1884  0.3996
   7723SM  H11S10164   7.689   1.089   5.589 -2.3230 -0.3621 -0.0773
   7723SM  H11T10165   7.601   1.060   5.735  0.9233  2.3406  1.8040
   7723SM  C12S10166   7.680   0.874   5.622  0.0059  0.1188 -0.1879
   7723SM  H12S10167   7.652   0.806   5.705 -3.1526 -0.4706 -1.5957
   7723SM  H12T10168   7.779   0.851   5.577  0.3108 -0.7356  0.8790
   7723SM  C13S10169   7.556   0.840   5.535  0.4721 -0.3322 -0.4217
   7723SM  H13S10170   7.533   0.925   5.467  1.0566 -0.1660 -0.4187
   7723SM  H13T10171   7.469   0.828   5.603 -0.4054  0.8274 -1.3097
   7723SM  C14S10172   7.570   0.715   5.459 -0.2484  0.1753 -0.3011
   7723SM  H14S10173   7.472   0.677   5.423 -0.7677  0.7977  0.4161
   7723SM  H14T10174   7.608   0.634   5.525 -1.5772  0.6078  1.0509
   7723SM  C15S10175   7.677   0.736   5.346  0.2239 -0.3968 -0.3669
   7723SM  H15S10176   7.772   0.761   5.398  0.1090  1.0396 -0.7903
   7723SM  H15T10177   7.643   0.821   5.283  1.1357 -0.3457 -0.8050
   7723SM  C16S10178   7.706   0.616   5.263 -0.3456 -0.0502  0.0427
   7723SM  H16S10179   7.624   0.605   5.189 -0.2018  0.9752 -0.2801
   7723SM  H16T10180   7.701   0.532   5.336 -1.4952  0.3491  0.4384
   7723SM  C17S10181   7.846   0.612   5.188 -0.5121 -0.3322  0.3139
   7723SM  H17S10182   7.844   0.517   5.132 -1.5371 -0.0425 -0.1605
   7723SM  H17T10183   7.930   0.617   5.261  0.4745 -0.5198 -0.7767
   7723SM  C18S10184   7.865   0.729   5.087 -0.0204  0.0944 -0.0925
   7723SM  H18S10185   7.851   0.821   5.148  1.8913  0.1715  0.2972
   7723SM  H18T10186   7.785   0.722   5.010 -1.0032  0.0654  0.8932
   7723SM  H18U10187   7.969   0.719   5.052 -0.2389 -1.0604 -0.4491
   7723SM   C1F10188   7.553   1.506   6.384  0.3680 -0.3578 -0.1153
   7723SM    OF10189   7.592   1.613   6.427  0.3979 -0.7359 -0.6115
   7723SM   C2F10190   7.432   1.496   6.293 -0.2380  0.3958  0.5087
   7723SM   H2F10191   7.351   1.468   6.364  0.9430 -3.6738  0.4585
   7723SM   H2G10192   7.450   1.402   6.236 -0.7833  1.2356 -1.1317
   7723SM   C3F10193   7.394   1.610   6.194  0.3699  0.1691  0.2485
   7723SM   H3F10194   7.476   1.631   6.121 -0.3652  0.0853 -0.6288
   7723SM   H3G10195   7.382   1.710   6.239 -0.5655  1.0617 -1.8606
   7723SM   C4F10196   7.263   1.579   6.115  0.0149 -0.0654 -0.5750
   7723SM   H4F10197   7.215   1.666   6.065 -1.0219  0.4228  1.1774
   7723SM   H4G10198   7.197   1.536   6.193 -0.3522 -0.9668 -1.3574
   7723SM   C5F10199   7.285   1.474   6.006  0.1725 -0.5190 -0.0601
   7723SM   H5F10200   7.184   1.441   5.973 -0.8566  1.9463  0.3739
   7723SM   H5G10201   7.329   1.384   6.054  1.0730 -0.7667 -1.2983
   7723SM   C6F10202   7.365   1.522   5.886  0.9615  0.3401 -0.7928
   7723SM   H6F10203   7.469   1.523   5.924  0.6050 -0.8509  0.2612
   7723SM   H6G10204   7.337   1.615   5.832  2.6418  0.5723 -1.2936
   7723SM   C7F10205   7.379   1.417   5.776  0.2811 -0.3418  0.2359
   7723SM   H7F10206   7.418   1.324   5.823  0.3452  0.4896  1.9179
   7723SM   H7G10207   7.458   1.453   5.707  2.8596 -1.7988  2.2501
   7723SM   C8F10208   7.254   1.389   5.702 -0.0497 -0.5171  0.4207
   7723SM   H8F10209   7.218   1.494   5.691 -0.1884 -0.3009  2.4956
   7723SM   H8G10210   7.188   1.336   5.774  1.1218 -2.0892  0.3892
   7723SM   C9F10211   7.274   1.304   5.585  0.3325 -0.5360  0.3807
   7723SM   H9F10212   7.340   1.219   5.613 -1.3245 -2.1104 -0.3247
   7723SM   H9G10213   7.333   1.359   5.508 -0.1064  0.3647  0.6712
   7723SM  C10F10214   7.144   1.255   5.522 -0.0543 -0.1563 -0.0685
   7723SM  H10F10215   7.090   1.352   5.508  0.7919 -0.0183 -2.8929
   7723SM  H10G10216   7.092   1.195   5.600  1.9137 -2.5013 -0.4486
   7723SM  C11F10217   7.156   1.184   5.385 -0.3974 -0.3566 -1.0627
   7723SM  H11F10218   7.202   1.243   5.304  0.0178  1.2386  0.2701
   7723SM  H11G10219   7.051   1.166   5.355 -0.3776 -0.7590 -0.8972
   7723SM  C12F10220   7.239   1.059   5.392 -0.3211 -0.7207  0.3848
   7723SM  H12F10221   7.227   0.999   5.484  0.3642 -0.3122  0.7523
   7723SM  H12G10222   7.348   1.081   5.388 -0.2992 -0.9606 -0.6416
   7723SM  C13F10223   7.198   0.968   5.281 -0.4412 -0.7568 -0.1380
   7723SM  H13F10224   7.201   1.025   5.186  0.5093 -0.4554  0.0590
   7723SM  H13G10225   7.093   0.941   5.304 -0.3991  0.1574  1.2229
   7723SM  C14F10226   7.289   0.845   5.267 -0.1552  0.0070  0.1576
   7723SM  H14F10227   7.283   0.785   5.360  0.0886 -0.6681 -0.2538
   7723SM  H14G10228   7.396   0.875   5.271  0.1732 -1.1305  0.2270
   7723SM  C15F10229   7.261   0.750   5.156  0.5841  0.3672 -0.4283
   7723SM  H15F10230   7.344   0.676   5.152 -0.3784 -0.7122 -1.0675
   7723SM  H15G10231   7.270   0.817   5.067 -0.2160  1.4396  0.2692
   7723SM  C16F10232   7.125   0.682   5.147 -0.4526  0.5929  0.2562
   7723SM  H16F10233   7.055   0.767   5.164 -0.2299  0.7640  0.3247
   7723SM  H16G10234   7.104   0.612   5.231  0.1295 -0.3502 -0.3696
   7723SM  C17F10235   7.107   0.619   5.007 -0.2363  0.4657 -0.3295
   7723SM  H17F10236   7.136   0.512   5.000  0.4292  0.6141  0.0823
   7723SM  H17G10237   7.176   0.673   4.940  1.7116 -0.6644  0.6785
   7723SM  C18F10238   6.967   0.635   4.952 -0.4089 -0.4507 -0.8286
   7723SM  H18F10239   6.968   0.572   4.860  0.1874 -0.8120 -0.5771
   7723SM  H18G10240   6.957   0.746   4.950  0.9512 -0.2863  0.1733
   7723SM  C19F10241   6.865   0.578   5.045 -0.7846 -0.0337 -0.7672
   7723SM  H19F10242   6.767   0.593   4.995 -0.8011 -0.7809 -0.9683
   7723SM  H19G10243   6.850   0.641   5.135  1.8343  0.4573 -0.5973
   7723SM  C20F10244   6.872   0.431   5.085  0.0895 -0.5554  0.5785
   7723SM  H20F10245   6.974   0.398   5.117  0.5070 -0.7672 -0.9191
   7723SM  H20G10246   6.858   0.373   4.991  0.3946  1.2300 -0.6105
   7723SM  C21F10247   6.774   0.381   5.196 -0.5092  0.5387  0.3256
   7723SM  H21F10248   6.799   0.274   5.210 -1.7947 -0.1392 -2.0538
   7723SM  H21G10249   6.673   0.384   5.149 -0.7616 -0.6976  0.7409
   7723SM  C22F10250   6.772   0.453   5.327  0.0767  0.3139 -0.1463
   7723SM  H22F10251   6.683   0.421   5.385 -1.1167  1.8873 -1.0286
   7723SM  H22G10252   6.764   0.562   5.304  2.2037  0.9564  1.7629
   7723SM  C23F10253   6.905   0.436   5.410 -0.5963  0.6243  0.6629
   7723SM  H23F10254   6.913   0.328   5.433 -0.6167 -0.1303 -2.4573
   7723SM  H23G10255   6.892   0.492   5.505 -0.0270 -0.7946  1.6048
   7723SM  H23H10256   6.991   0.468   5.348  0.1556 -1.9557  0.2540
   7823SM     N10257   1.239   7.409   7.148  0.0997  0.1567  0.5186
   7823SM   C1510258   1.368   7.407   7.060 -0.7524  0.7931 -0.0960
   7823SM  H15A10259   1.404   7.506   7.035  1.5306 -0.3322 -1.5552
   7823SM  H15B10260   1.360   7.346   6.972  2.8836 -0.9101  0.5716
   7823SM  H15C10261   1.457   7.372   7.109 -0.2874 -1.3748 -2.3137
   7823SM   C1410262   1.250   7.511   7.263  0.0534 -0.5624  0.0718
   7823SM  H14A10263   1.286   7.604   7.221 -2.6366  1.0017  0.9627
   7823SM  H14B10264   1.322   7.489   7.340  2.6590  1.0048 -1.7879
   7823SM  H14C10265   1.159   7.535   7.315  1.7972 -1.0381  3.6011
   7823SM   C1310266   1.134   7.441   7.046 -0.7115 -0.6591  0.1292
   7823SM  H13A10267   1.034   7.429   7.084 -1.2235 -0.0865 -0.9758
   7823SM  H13B10268   1.137   7.376   6.960  1.4807  1.6690 -1.7389
   7823SM  H13C10269   1.150   7.541   7.007 -1.8556 -0.0250  1.2010
   7823SM   C1210270   1.223   7.274   7.203 -0.8514  0.4095  0.3063
   7823SM  H12A10271   1.139   7.265   7.270 -0.9719 -0.7290  0.0304
   7823SM  H12B10272   1.312   7.252   7.261  0.0020 -0.2867 -1.2068
   7823SM   C1110273   1.221   7.165   7.099  1.0356  0.4936  0.5932
   7823SM  H11A10274   1.291   7.165   7.012  0.9485  0.2196  0.5215
   7823SM  H11B10275   1.122   7.175   7.050  1.7444  1.8758 -0.6764
   7823SM     P10276   1.362   6.952   7.184 -0.4110  0.0492 -0.2597
   7823SM   O1310277   1.461   7.034   7.259 -0.0940 -0.1637  0.2878
   7823SM   O1410278   1.337   6.818   7.242  0.1868 -0.0705  0.2943
   7823SM   O1110279   1.418   6.935   7.035 -0.0895  0.1092  0.7603
   7823SM   O1210280   1.232   7.034   7.157 -0.0972  0.3172 -0.3647
   7823SM   C1S10281   1.337   6.876   6.934  0.0356 -0.3276 -0.4949
   7823SM   H1S10282   1.227   6.888   6.947 -0.6082 -2.6342 -2.8308
   7823SM   H1T10283   1.364   6.768   6.924  2.3740  0.2482 -0.9309
   7823SM    NF10284   1.297   6.871   6.691 -0.4470  0.2905 -0.3543
   7823SM   HNF10285   1.354   6.805   6.642  1.4411  0.4338  1.5443
   7823SM   C2S10286   1.368   6.943   6.794  0.1482 -0.2357 -1.0167
   7823SM   H2S10287   1.334   7.048   6.784  0.4278 -0.3231 -3.2681
   7823SM   C3S10288   1.525   6.945   6.763 -0.1915 -0.1101  0.1285
   7823SM   H3S10289   1.565   6.842   6.755 -0.3925 -0.1439 -0.5551
   7823SM    O310290   1.598   7.017   6.865 -0.2435  0.0425  0.0321
   7823SM   HO310291   1.564   6.979   6.946  0.4357 -2.8776 -0.9434
   7823SM   C4S10292   1.543   7.014   6.633 -0.9658 -0.6883 -0.5539
   7823SM   H4S10293   1.527   7.123   6.643  1.6439 -0.0626 -2.2268
   7823SM   C5S10294   1.584   6.960   6.513  0.4009 -0.2167  0.5091
   7823SM   H5S10295   1.600   6.852   6.504  1.7993 -0.2014  2.2970
   7823SM   C6S10296   1.604   7.038   6.386  1.0102  0.5650 -0.2270
   7823SM   H6S10297   1.696   7.017   6.327  1.5356  1.3879  0.2656
   7823SM   H6T10298   1.600   7.148   6.400  3.1921  0.8680 -1.4377
   7823SM   C7S10299   1.487   7.004   6.289 -0.4503 -0.1505 -0.6860
   7823SM   H7S10300   1.387   7.021   6.335  0.3466  0.9896  0.7012
   7823SM   H7T10301   1.486   6.894   6.273 -1.6940 -0.3054  0.3083
   7823SM   C8S10302   1.495   7.075   6.157  0.1014  0.0276 -0.2982
   7823SM   H8S10303   1.600   7.052   6.129 -0.9003 -1.9302 -2.8906
   7823SM   H8T10304   1.483   7.184   6.174  0.3393  0.1022 -0.6033
   7823SM   C9S10305   1.391   7.030   6.059  0.7516  0.2042 -0.2677
   7823SM   H9S10306   1.289   7.060   6.091 -0.7342 -1.9565 -2.5745
   7823SM   H9T10307   1.393   6.922   6.034 -1.7027  0.3971 -1.5436
   7823SM  C10S10308   1.414   7.102   5.921 -0.2052  0.6404 -0.0995
   7823SM  H10S10309   1.504   7.055   5.876  0.6472  0.1196  2.0369
   7823SM  H10T10310   1.425   7.212   5.929 -0.2749  0.5460  1.4451
   7823SM  C11S10311   1.291   7.069   5.832  0.0821  0.1729 -0.4636
   7823SM  H11S10312   1.188   7.084   5.871 -0.2140 -0.5356 -0.9580
   7823SM  H11T10313   1.290   6.960   5.809  0.7927  0.3265 -1.2906
   7823SM  C12S10314   1.288   7.145   5.698  0.3078  0.3448 -0.1673
   7823SM  H12S10315   1.394   7.148   5.665  0.4247 -2.6868 -0.2864
   7823SM  H12T10316   1.257   7.251   5.710 -1.2055 -0.0785 -0.1506
   7823SM  C13S10317   1.210   7.069   5.592  0.1046 -0.3761 -0.4452
   7823SM  H13S10318   1.121   7.021   5.639  1.0021  0.5711  2.3935
   7823SM  H13T10319   1.275   6.988   5.555 -0.7410 -1.0197 -0.5499
   7823SM  C14S10320   1.174   7.147   5.462 -0.4524 -0.1485 -0.7481
   7823SM  H14S10321   1.109   7.232   5.494 -1.5860 -1.1944 -0.2000
   7823SM  H14T10322   1.116   7.085   5.390  1.2195 -0.7508 -1.6266
   7823SM  C15S10323   1.301   7.198   5.387  1.0290  0.4972 -1.0666
   7823SM  H15S10324   1.353   7.102   5.365 -0.2220 -0.7900  1.1636
   7823SM  H15T10325   1.362   7.258   5.458 -2.2196 -0.2190  2.7083
   7823SM  C16S10326   1.267   7.268   5.257  0.2806  0.0542  0.5787
   7823SM  H16S10327   1.203   7.349   5.297  0.2604 -0.4452  1.6033
   7823SM  H16T10328   1.197   7.200   5.204  1.7718  0.7095 -2.4025
   7823SM  C17S10329   1.384   7.303   5.167 -0.3437  0.2344 -0.5872
   7823SM  H17S10330   1.427   7.211   5.122  1.9420  0.9677 -0.0231
   7823SM  H17T10331   1.461   7.339   5.239 -0.3297 -0.8910 -0.0116
   7823SM  C18S10332   1.374   7.402   5.068  0.0135 -0.3868  0.4543
   7823SM  H18S10333   1.303   7.371   4.989  2.2199 -0.5361 -1.5756
   7823SM  H18T10334   1.470   7.447   5.033 -1.2714  2.7683  0.6540
   7823SM  H18U10335   1.327   7.495   5.107  0.1015  1.4671 -3.3940
   7823SM   C1F10336   1.165   6.890   6.682  0.5265 -0.5206 -0.2456
   7823SM    OF10337   1.108   6.970   6.755  0.1165 -0.0411  0.0588
   7823SM   C2F10338   1.092   6.802   6.587 -0.0344  0.4040 -0.0377
   7823SM   H2F10339   1.034   6.726   6.645 -0.6766  2.2959  1.9127
   7823SM   H2G10340   1.154   6.754   6.508 -2.0340  0.6009 -1.8129
   7823SM   C3F10341   0.977   6.874   6.511 -0.0968  0.2978  0.4372
   7823SM   H3F10342   0.908   6.921   6.585 -0.7510 -1.7449  1.1927
   7823SM   H3G10343   0.921   6.791   6.463  0.5952 -1.3267  2.3450
   7823SM   C4F10344   1.031   6.957   6.388  0.4589  0.5298  0.0355
   7823SM   H4F10345   1.074   6.894   6.307  0.1874  1.1149 -0.5725
   7823SM   H4G10346   1.112   7.020   6.431 -0.1244  0.9756  0.5004
   7823SM   C5F10347   0.926   7.046   6.328  0.1347  0.1534  0.6691
   7823SM   H5F10348   0.905   7.138   6.387 -1.5972 -0.2398  0.7367
   7823SM   H5G10349   0.835   6.982   6.329  0.1888  0.0254  3.3047
   7823SM   C6F10350   0.958   7.069   6.176 -0.3762 -0.7828  0.0081
   7823SM   H6F10351   0.939   6.969   6.131 -1.7164 -0.4321 -0.2546
   7823SM   H6G10352   1.061   7.107   6.160 -1.0921  2.2159  1.7749
   7823SM   C7F10353   0.859   7.166   6.109  0.1505  0.3687  0.5005
   7823SM   H7F10354   0.883   7.265   6.152  1.1487  0.8157 -1.0134
   7823SM   H7G10355   0.753   7.144   6.132  0.9336 -1.7875  2.4471
   7823SM   C8F10356   0.889   7.167   5.958 -0.2068  0.8352  0.2818
   7823SM   H8F10357   0.865   7.064   5.924  2.9166 -0.5881  1.8653
   7823SM   H8G10358   0.997   7.191   5.942 -0.0312 -1.4952 -3.0372
   7823SM   C9F10359   0.808   7.261   5.876 -0.3869 -0.7324 -0.3259
   7823SM   H9F10360   0.834   7.360   5.919  0.0844 -0.8208 -0.3952
   7823SM   H9G10361   0.702   7.237   5.897  0.2728 -3.1868  0.5175
   7823SM  C10F10362   0.852   7.250   5.726 -0.2073  0.7830 -0.3763
   7823SM  H10F10363   0.827   7.143   5.709  0.7677  0.4547  0.1420
   7823SM  H10G10364   0.963   7.255   5.724  0.0937 -3.1642 -1.8502
   7823SM  C11F10365   0.774   7.346   5.636  0.2062 -0.6714 -0.0294
   7823SM  H11F10366   0.789   7.453   5.662  1.6878 -0.2520 -2.2947
   7823SM  H11G10367   0.666   7.333   5.657  0.2693  0.7641  1.3268
   7823SM  C12F10368   0.799   7.326   5.482  0.0092 -0.9592 -0.0681
   7823SM  H12F10369   0.777   7.222   5.450  0.4663 -0.7618 -1.0506
   7823SM  H12G10370   0.909   7.336   5.471 -0.1460  4.2004  0.2306
   7823SM  C13F10371   0.725   7.429   5.393 -0.2968 -0.0077  0.2950
   7823SM  H13F10372   0.770   7.528   5.417  2.2648 -1.1385  0.4716
   7823SM  H13G10373   0.619   7.425   5.427 -0.6255  2.2822 -0.2966
   7823SM  C14F10374   0.728   7.411   5.239  0.1086  0.7462 -0.4404
   7823SM  H14F10375   0.648   7.472   5.192 -1.3926 -0.9218 -0.1437
   7823SM  H14G10376   0.708   7.307   5.205  0.4513  0.4024  0.3938
   7823SM  C15F10377   0.863   7.462   5.186 -0.0877 -0.9980 -0.2217
   7823SM  H15F10378   0.953   7.426   5.240 -0.8444  0.9770  2.5445
   7823SM  H15G10379   0.857   7.571   5.203 -0.6394 -0.8383 -1.3111
   7823SM  C16F10380   0.888   7.462   5.033  0.3659  0.6416 -0.5866
   7823SM  H16F10381   0.814   7.532   4.988  0.3659  0.4343 -0.9129
   7823SM  H16G10382   0.869   7.357   5.005  0.3002  0.0536  1.5545
   7823SM  C17F10383   1.026   7.516   4.993  0.1391 -0.3304  0.5074
   7823SM  H17F10384   1.105   7.490   5.067 -0.8775 -4.9678  0.2097
   7823SM  H17G10385   1.007   7.625   4.980  0.9983 -0.0660  1.3114
   7823SM  C18F10386   1.068   7.440   4.863 -0.1952  0.1798 -0.6105
   7823SM  H18F10387   1.071   7.331   4.884 -0.3001  0.5519  1.5191
   7823SM  H18G10388   1.172   7.470   4.839 -0.1479  0.9512  0.5289
   7823SM  C19F10389   0.973   7.474   4.749  0.7440 -0.3662  0.5841
   7823SM  H19F10390   0.994   7.580   4.725 -0.0292 -0.7299 -2.0027
   7823SM  H19G10391   0.866   7.459   4.774 -0.0629  0.2039 -2.1798
   7823SM  C20F10392   0.999   7.398   4.622  0.3831 -0.5191  0.1789
   7823SM  H20F10393   0.996   7.291   4.650  2.5630 -0.5568  0.4079
   7823SM  H20G10394   1.096   7.429   4.578 -0.6244  0.6117 -1.3960
   7823SM  C21F10395   0.892   7.429   4.511 -0.2370 -0.4160  0.1386
   7823SM  H21F10396   0.883   7.538   4.494 -0.4502 -0.3433  0.7059
   7823SM  H21G10397   0.792   7.397   4.545 -0.2051  1.0089  1.7036
   7823SM  C22F10398   0.926   7.358   4.381 -0.1231  0.4724 -0.2453
   7823SM  H22F10399   0.851   7.398   4.309  0.8850  0.7844 -1.1530
   7823SM  H22G10400   0.914   7.249   4.396  3.9228 -0.3243 -1.6758
   7823SM  C23F10401   1.068   7.380   4.326 -0.2734 -0.4543  0.3859
   7823SM  H23F10402   1.136   7.342   4.405 -1.0795  1.5160  2.1376
   7823SM  H23G10403   1.095   7.487   4.313 -1.0072 -0.1419  1.3552
   7823SM  H23H10404   1.093   7.321   4.235  3.3929 -0.1141  1.0271
   7923SM     N10405   5.403   0.397   7.422 -0.3780 -0.7924  0.0832
   7923SM   C1510406   5.389   0.541   7.465  0.1413 -0.2962  0.0118
   7923SM  H15A10407   5.319   0.544   7.546  0.7951 -2.4763  0.7288
   7923SM  H15B10408   5.367   0.601   7.378  2.2922 -0.5182 -0.7611
   7923SM  H15C10409   5.482   0.580   7.503 -0.1983  0.2899  0.2620
   7923SM   C1410410   5.440   0.313   7.538  0.4285  0.0907  0.3565
   7923SM  H14A10411   5.351   0.309   7.599 -0.5255  1.7648 -0.8356
   7923SM  H14B10412   5.521   0.355   7.597  0.8649 -0.1718 -0.0533
   7923SM  H14C10413   5.470   0.211   7.519  0.0097 -0.1866  1.1302
   7923SM   C1310414   5.266   0.360   7.376 -0.2829  0.2587 -0.3881
   7923SM  H13A10415   5.266   0.255   7.351 -4.5495 -0.1606  0.5357
   7923SM  H13B10416   5.241   0.410   7.283  0.7506  2.9060  0.6572
   7923SM  H13C10417   5.194   0.370   7.456 -2.6063 -1.6911 -2.0683
   7923SM   C1210418   5.498   0.397   7.304 -0.1402  0.1555  0.6315
   7923SM  H12A10419   5.590   0.450   7.325  0.9280 -0.9914 -0.9731
   7923SM  H12B10420   5.450   0.455   7.227 -0.8932 -0.8994  0.2906
   7923SM   C1110421   5.525   0.258   7.244 -0.1874  0.7059  0.2366
   7923SM  H11A10422   5.557   0.194   7.329  0.6432  0.7107 -0.0557
   7923SM  H11B10423   5.619   0.262   7.183  0.3768 -0.4812  0.9754
   7923SM     P10424   5.374   0.255   7.032 -0.1213  0.2431 -0.6638
   7923SM   O1310425   5.324   0.139   6.956  0.1828  0.6475 -0.8598
   7923SM   O1410426   5.277   0.362   7.069  0.3942  0.0247  0.3057
   7923SM   O1110427   5.510   0.308   6.971  0.2131  0.5311 -0.1530
   7923SM   O1210428   5.412   0.195   7.172 -0.2005  0.4634 -0.3052
   7923SM   C1S10429   5.533   0.296   6.827  0.3508 -0.6814  0.3112
   7923SM   H1S10430   5.484   0.381   6.774  2.0168  1.7834  2.4564
   7923SM   H1T10431   5.490   0.205   6.779  4.1318 -1.0695 -2.8565
   7923SM    NF10432   5.709   0.316   6.645 -0.1376  0.3814  0.2994
   7923SM   HNF10433   5.707   0.249   6.571 -1.2412  1.4232 -0.6674
   7923SM   C2S10434   5.685   0.288   6.790  0.0931 -0.5810  0.1776
   7923SM   H2S10435   5.739   0.365   6.849  0.7064 -0.5900 -0.3602
   7923SM   C3S10436   5.739   0.150   6.828  0.3646  0.0631 -0.1342
   7923SM   H3S10437   5.701   0.073   6.758 -1.6797 -0.7461  1.7346
   7923SM    O310438   5.706   0.107   6.957  0.8418  0.1823  0.3653
   7923SM   HO310439   5.653   0.180   6.988  0.5879  0.5467 -0.8591
   7923SM   C4S10440   5.887   0.149   6.819  0.4074  0.1960 -0.7307
   7923SM   H4S10441   5.936   0.226   6.880 -2.1500  1.6016 -0.3071
   7923SM   C5S10442   5.961   0.057   6.743  0.2956 -0.5676 -0.1069
   7923SM   H5S10443   5.909  -0.023   6.689  0.3476 -0.6565 -0.0250
   7923SM   C6S10444   6.114   0.054   6.736  0.1151 -0.5405 -0.2539
   7923SM   H6S10445   6.156  -0.031   6.793  2.6396 -0.6516 -2.1041
   7923SM   H6T10446   6.160   0.145   6.780  0.6255 -0.8088 -0.2239
   7923SM   C7S10447   6.166   0.032   6.595 -0.0493 -0.3385  0.0482
   7923SM   H7S10448   6.277   0.025   6.599 -0.1335 -2.1712 -0.0059
   7923SM   H7T10449   6.150   0.126   6.537  0.0307  0.0529  0.6464
   7923SM   C8S10450   6.111  -0.095   6.523  0.6202 -0.1056  0.4946
   7923SM   H8S10451   6.004  -0.081   6.497  0.9821 -0.8305 -1.5640
   7923SM   H8T10452   6.116  -0.184   6.589 -1.6851 -2.1400 -1.8515
   7923SM   C9S10453   6.178  -0.126   6.388 -0.2027 -0.8015 -0.1121
   7923SM   H9S10454   6.120  -0.213   6.350 -0.6575  0.7390 -3.2954
   7923SM   H9T10455   6.286  -0.148   6.397 -0.4183 -1.7737  0.1921
   7923SM  C10S10456   6.146  -0.012   6.284 -0.1105  0.2917 -0.0841
   7923SM  H10S10457   6.227   0.062   6.304 -0.5977 -0.0819  4.0610
   7923SM  H10T10458   6.043   0.028   6.288 -0.2378 -0.1271  1.2324
   7923SM  C11S10459   6.161  -0.069   6.142 -0.6629  0.3379 -0.7335
   7923SM  H11S10460   6.074  -0.134   6.120  0.0426 -1.2181  0.8007
   7923SM  H11T10461   6.247  -0.137   6.151 -1.4284 -0.5349  0.2157
   7923SM  C12S10462   6.174   0.040   6.035  0.7109  0.1028  1.1173
   7923SM  H12S10463   6.279   0.076   6.027  0.3715  0.8826 -0.1934
   7923SM  H12T10464   6.094   0.116   6.045 -1.3455 -1.6846 -0.6598
   7923SM  C13S10465   6.146  -0.047   5.905  0.7906 -0.9656 -0.4033
   7923SM  H13S10466   6.048  -0.097   5.912  1.2475 -1.9302 -0.7712
   7923SM  H13T10467   6.227  -0.123   5.898 -0.4193 -2.1582 -2.4614
   7923SM  C14S10468   6.134   0.036   5.776  0.8436 -0.3755  0.0419
   7923SM  H14S10469   6.240   0.066   5.765  0.8710  0.0324  1.3101
   7923SM  H14T10470   6.071   0.127   5.789 -0.1454 -0.8651 -1.0839
   7923SM  C15S10471   6.081  -0.043   5.653  0.2115 -0.3225 -0.0631
   7923SM  H15S10472   5.981  -0.080   5.683 -0.0904  0.0061 -0.6522
   7923SM  H15T10473   6.146  -0.128   5.627 -0.8153 -0.7851 -1.1795
   7923SM  C16S10474   6.041   0.049   5.540  0.4795  0.3686  0.6822
   7923SM  H16S10475   6.126   0.107   5.497 -0.9960  0.8993 -1.7214
   7923SM  H16T10476   5.964   0.123   5.569 -1.8024 -0.7026 -2.1242
   7923SM  C17S10477   5.993  -0.043   5.427 -0.3037 -0.4711  0.3530
   7923SM  H17S10478   5.911  -0.106   5.466 -1.3220 -0.1930 -1.2455
   7923SM  H17T10479   6.070  -0.114   5.390 -0.0725  1.1111 -2.4497
   7923SM  C18S10480   5.959   0.037   5.302  0.4695 -0.1021 -0.9071
   7923SM  H18S10481   5.951  -0.024   5.209 -0.9871 -0.8760 -0.2977
   7923SM  H18T10482   6.030   0.120   5.283  1.1734 -0.6640 -0.7909
   7923SM  H18U10483   5.863   0.086   5.329  0.6364 -1.3510  2.3371
   7923SM   C1F10484   5.693   0.440   6.600 -0.4689 -0.1313 -0.4407
   7923SM    OF10485   5.695   0.533   6.678 -0.0560  0.0250  0.1316
   7923SM   C2F10486   5.681   0.456   6.455  0.3597  0.2691 -0.2145
   7923SM   H2F10487   5.607   0.534   6.426  1.7942  1.1003 -1.8274
   7923SM   H2G10488   5.644   0.364   6.404  0.1104  1.5262 -2.3914
   7923SM   C3F10489   5.818   0.499   6.383  0.0139 -0.2001 -0.1364
   7923SM   H3F10490   5.873   0.577   6.439  1.3041 -0.2822 -1.2553
   7923SM   H3G10491   5.797   0.532   6.279 -2.9839  2.4674  1.1451
   7923SM   C4F10492   5.920   0.374   6.378  0.1552  0.3889 -0.5309
   7923SM   H4F10493   5.873   0.288   6.325 -0.3307  0.1794  0.2142
   7923SM   H4G10494   5.926   0.343   6.485 -2.9265  2.7917  0.4954
   7923SM   C5F10495   6.053   0.406   6.315  0.0338 -0.1678 -0.1515
   7923SM   H5F10496   6.110   0.316   6.346 -0.2790  1.3637  6.0517
   7923SM   H5G10497   6.090   0.500   6.360 -1.4398 -0.7693  2.5003
   7923SM   C6F10498   6.050   0.411   6.158 -1.0999 -0.1187 -0.3085
   7923SM   H6F10499   6.004   0.506   6.124  1.6505  1.2846 -0.4248
   7923SM   H6G10500   6.005   0.313   6.131 -0.0762 -1.1080  1.4327
   7923SM   C7F10501   6.195   0.420   6.104  0.2990 -0.2633  0.1521
   7923SM   H7F10502   6.253   0.326   6.116  2.4125  1.0755  1.0904
   7923SM   H7G10503   6.242   0.507   6.156  0.3519  0.7317 -1.4714
   7923SM   C8F10504   6.208   0.476   5.956  0.3683  0.4788 -0.5363
   7923SM   H8F10505   6.298   0.422   5.920  0.9733  1.5359 -0.6290
   7923SM   H8G10506   6.235   0.583   5.969 -1.6308  1.1031 -1.1354
   7923SM   C9F10507   6.094   0.449   5.859  0.7725  0.6863 -0.6683
   7923SM   H9F10508   5.996   0.487   5.895 -0.1663 -2.3850  0.3326
   7923SM   H9G10509   6.076   0.340   5.847  2.6903  0.2684 -0.0290
   7923SM  C10F10510   6.119   0.502   5.723  0.3242  0.4275  0.1516
   7923SM  H10F10511   6.229   0.510   5.705  0.3782 -0.1055  0.2150
   7923SM  H10G10512   6.076   0.604   5.723 -0.4614  0.1092 -0.9019
   7923SM  C11F10513   6.052   0.410   5.620 -0.3772 -0.6709 -0.2834
   7923SM  H11F10514   5.981   0.346   5.677  1.0707 -1.2855  0.8988
   7923SM  H11G10515   6.135   0.343   5.589  0.0194 -0.4828  0.3503
   7923SM  C12F10516   5.984   0.481   5.506 -0.3120  0.1595 -0.4903
   7923SM  H12F10517   6.054   0.550   5.455  0.3256  0.5990  0.9334
   7923SM  H12G10518   5.896   0.539   5.541 -1.0296 -0.6767 -0.8639
   7923SM  C13F10519   5.927   0.380   5.403  0.1460  0.5571  0.1442
   7923SM  H13F10520   5.841   0.326   5.448  0.2439 -0.4611 -0.8445
   7923SM  H13G10521   6.005   0.303   5.385  1.8619  2.2862 -0.1190
   7923SM  C14F10522   5.910   0.453   5.267  0.7188 -0.0949  0.1418
   7923SM  H14F10523   6.002   0.505   5.231  0.5533  0.8104  0.9540
   7923SM  H14G10524   5.839   0.537   5.284  1.1615  0.8615 -2.3287
   7923SM  C15F10525   5.852   0.369   5.155 -0.5949 -0.1848 -0.7300
   7923SM  H15F10526   5.746   0.350   5.183  0.2143 -2.8937  0.8984
   7923SM  H15G10527   5.894   0.267   5.151  0.9402  0.3706  0.5077
   7923SM  C16F10528   5.861   0.427   5.012 -0.5007 -0.4729  0.2869
   7923SM  H16F10529   5.966   0.456   4.991 -0.3021 -1.1966  0.2647
   7923SM  H16G10530   5.816   0.529   5.012  1.6897  0.6393 -2.2914
   7923SM  C17F10531   5.829   0.335   4.897 -0.2004 -0.8381  0.0847
   7923SM  H17F10532   5.724   0.301   4.908 -0.2370 -1.1954 -1.1713
   7923SM  H17G10533   5.891   0.243   4.898  0.4932 -0.4478 -1.7083
   7923SM  C18F10534   5.829   0.394   4.755 -0.1391 -0.3881  0.2869
   7923SM  H18F10535   5.798   0.319   4.679  1.5468 -1.2429  0.3968
   7923SM  H18G10536   5.935   0.425   4.744 -0.5294  0.4005 -1.5033
   7923SM  C19F10537   5.733   0.505   4.726  0.8228 -0.5920 -0.1529
   7923SM  H19F10538   5.758   0.588   4.797  2.1486  0.3752 -1.6828
   7923SM  H19G10539   5.629   0.473   4.749  0.6273 -1.0226 -1.5809
   7923SM  C20F10540   5.735   0.566   4.592  0.4984  0.3637  0.2564
   7923SM  H20F10541   5.734   0.503   4.500 -0.9149  0.3148  0.2896
   7923SM  H20G10542   5.828   0.626   4.579  0.7081  0.1175  0.6088
   7923SM  C21F10543   5.609   0.654   4.583  0.3980  0.0049  0.2973
   7923SM  H21F10544   5.637   0.732   4.509  0.2968  0.5716  0.8484
   7923SM  H21G10545   5.587   0.693   4.685 -0.9392  0.8358 -0.2856
   7923SM  C22F10546   5.473   0.585   4.535 -0.1838 -0.0411 -0.1424
   7923SM  H22F10547   5.454   0.496   4.598  0.4228 -0.8740 -1.1136
   7923SM  H22G10548   5.500   0.552   4.433  1.1011  0.4470  0.0156
   7923SM  C23F10549   5.361   0.687   4.521  0.8089 -0.2489  0.2008
   7923SM  H23F10550   5.376   0.736   4.423  0.9938 -3.5824 -1.5711
   7923SM  H23G10551   5.364   0.760   4.605 -1.0531  2.1882 -1.6902
   7923SM  H23H10552   5.259   0.644   4.518  1.4598 -1.8384 -0.1706
   8023SM     N10553   0.837   7.330   7.774 -0.3440  0.2905  0.0355
   8023SM   C1510554   0.804   7.282   7.909  0.2768  0.4409  0.1031
   8023SM  H15A10555   0.881   7.229   7.965 -0.3507  0.9398  1.4984
   8023SM  H15B10556   0.730   7.209   7.881 -0.3140  2.2981 -3.6957
   8023SM  H15C10557   0.763   7.363   7.969 -1.4979 -0.9518  0.8592
   8023SM   C1410558   0.944   7.431   7.803 -0.2837 -0.5265 -0.5662
   8023SM  H14A10559   0.908   7.507   7.871  1.6289  0.2642 -0.3615
   8023SM  H14B10560   0.975   7.481   7.712 -1.3832  1.4179  0.0518
   8023SM  H14C10561   1.033   7.386   7.843  0.1542  1.1579  0.4447
   8023SM   C1310562   0.894   7.210   7.703  0.5302 -0.0414  0.5263
   8023SM  H13A10563   0.839   7.119   7.721 -2.5003  1.4575 -0.2867
   8023SM  H13B10564   0.994   7.194   7.738  0.8289  2.3936  0.9897
   8023SM  H13C10565   0.893   7.232   7.597  0.3841 -0.0728  0.5210
   8023SM   C1210566   0.726   7.388   7.702 -0.0005  0.3690 -0.8377
   8023SM  H12A10567   0.668   7.445   7.773 -0.8059 -0.5056 -0.7660
   8023SM  H12B10568   0.658   7.307   7.679 -1.6943  1.5880 -0.3102
   8023SM   C1110569   0.748   7.469   7.576 -0.0037 -0.3832 -0.4487
   8023SM  H11A10570   0.818   7.555   7.587  0.0448 -0.4814  0.0315
   8023SM  H11B10571   0.654   7.523   7.550  1.0812  2.8737  1.7228
   8023SM     P10572   0.907   7.403   7.373 -0.2591 -0.1188 -0.1716
   8023SM   O1310573   0.979   7.528   7.391  0.2044 -0.6523 -0.4698
   8023SM   O1410574   0.992   7.280   7.387  0.4257 -0.1708  0.5502
   8023SM   O1110575   0.855   7.412   7.221 -0.2197  0.6830 -0.0710
   8023SM   O1210576   0.782   7.387   7.464  0.5762 -0.0040  0.3961
   8023SM   C1S10577   0.718   7.450   7.200  0.1119  0.0314 -0.0000
   8023SM   H1S10578   0.716   7.561   7.190  1.1712 -0.0135 -0.7623
   8023SM   H1T10579   0.645   7.415   7.277 -2.5215  0.3604 -2.1934
   8023SM    NF10580   0.537   7.421   7.032  0.2439 -0.1884 -0.3044
   8023SM   HNF10581   0.458   7.389   7.083 -0.7604  2.0795 -0.2952
   8023SM   C2S10582   0.670   7.385   7.065 -0.1656 -0.3101 -1.3642
   8023SM   H2S10583   0.756   7.416   7.002  0.3997  1.0750  0.0009
   8023SM   C3S10584   0.674   7.228   7.086  0.9980  0.3936  0.4147
   8023SM   H3S10585   0.583   7.189   7.137  1.2403 -0.0675  0.4945
   8023SM    O310586   0.781   7.166   7.153 -0.0946  0.0650 -0.8255
   8023SM   HO310587   0.817   7.235   7.210 -2.2379 -1.5170  2.8273
   8023SM   C4S10588   0.652   7.169   6.950 -0.3492 -0.3743 -0.0590
   8023SM   H4S10589   0.553   7.180   6.902 -1.4824 -1.4493  1.8931
   8023SM   C5S10590   0.738   7.099   6.877 -0.8502  0.5048  0.8263
   8023SM   H5S10591   0.836   7.072   6.922 -1.6069  0.5421  2.5766
   8023SM   C6S10592   0.715   7.041   6.738  0.0571 -0.1518  0.5685
   8023SM   H6S10593   0.748   6.935   6.734  2.7603  0.6473 -0.4923
   8023SM   H6T10594   0.785   7.088   6.666 -1.6911  1.2643 -0.2708
   8023SM   C7S10595   0.573   7.065   6.673  0.5568  0.3182 -0.2059
   8023SM   H7S10596   0.558   7.175   6.676  2.4154  0.6010  0.1372
   8023SM   H7T10597   0.491   7.018   6.731  0.6803 -1.8733 -1.7082
   8023SM   C8S10598   0.566   7.000   6.533  0.2145  0.7925  0.9354
   8023SM   H8S10599   0.550   6.892   6.549  1.2568  0.5065  0.1484
   8023SM   H8T10600   0.664   7.019   6.483 -0.0443 -1.7972 -0.7562
   8023SM   C9S10601   0.453   7.066   6.446 -0.4990  0.0329 -0.2940
   8023SM   H9S10602   0.455   7.177   6.448  0.4538  0.0162  2.0366
   8023SM   H9T10603   0.354   7.042   6.491 -1.9680  0.0863 -3.2004
   8023SM  C10S10604   0.460   7.015   6.308 -0.3371 -0.1905  0.1486
   8023SM  H10S10605   0.457   6.904   6.317 -0.8313 -0.1759  0.2029
   8023SM  H10T10606   0.561   7.040   6.270 -0.2954 -1.7811 -0.8721
   8023SM  C11S10607   0.354   7.068   6.214 -0.2450  0.1393 -0.3067
   8023SM  H11S10608   0.390   7.046   6.112  0.3020  2.2824 -0.6302
   8023SM  H11T10609   0.339   7.179   6.216  0.4986  0.2763  2.8908
   8023SM  C12S10610   0.218   6.997   6.234 -0.0443  0.4236 -0.2060
   8023SM  H12S10611   0.185   7.005   6.339 -3.6312  0.6309 -1.1939
   8023SM  H12T10612   0.217   6.888   6.212 -1.0936 -0.1347  2.2882
   8023SM  C13S10613   0.103   7.050   6.144  0.7066 -0.0237 -0.1726
   8023SM  H13S10614   0.101   7.161   6.149  0.5271  0.0615 -1.6189
   8023SM  H13T10615   0.008   7.013   6.187  1.0451  0.5512  1.1396
   8023SM  C14S10616   0.112   7.009   5.994  0.1277 -0.3263  0.2864
   8023SM  H14S10617   0.122   6.898   5.996  0.3779 -0.3070  2.5217
   8023SM  H14T10618   0.207   7.059   5.967  0.3560 -0.0815  1.4588
   8023SM  C15S10619   0.001   7.064   5.906  0.3577  0.7463  0.9338
   8023SM  H15S10620  -0.023   7.171   5.927 -1.1256  0.2876  1.7529
   8023SM  H15T10621  -0.094   7.013   5.933 -0.4381  2.1242  0.9005
   8023SM  C16S10622   0.040   7.040   5.760  0.3031 -0.0475  0.8302
   8023SM  H16S10623   0.115   7.114   5.727 -2.0009  1.1008 -2.3472
   8023SM  H16T10624  -0.051   7.062   5.700  2.3093  0.9974 -2.0379
   8023SM  C17S10625   0.096   6.904   5.715  0.2515 -0.2066  0.0434
   8023SM  H17S10626   0.024   6.825   5.745 -0.1657 -0.6205 -1.9447
   8023SM  H17T10627   0.194   6.870   5.756  1.4837 -0.1101 -2.6240
   8023SM  C18S10628   0.105   6.897   5.560 -0.6953  0.4906  0.2186
   8023SM  H18S10629   0.004   6.897   5.512 -0.6062  0.0106  0.0179
   8023SM  H18T10630   0.159   6.801   5.541  1.3817  1.5620  0.4665
   8023SM  H18U10631   0.171   6.981   5.531  2.2380 -1.0728  1.9432
   8023SM   C1F10632   0.525   7.543   6.973 -0.1417 -0.0121  0.0299
   8023SM    OF10633   0.626   7.601   6.934  0.3061  0.1970  0.1580
   8023SM   C2F10634   0.388   7.607   6.982  0.0244 -0.1259 -0.2145
   8023SM   H2F10635   0.380   7.684   7.062  1.4879 -0.4673  0.2806
   8023SM   H2G10636   0.332   7.514   7.006 -0.9281  0.6689  0.7681
   8023SM   C3F10637   0.346   7.685   6.856  0.3572 -0.1426  0.1891
   8023SM   H3F10638   0.429   7.752   6.825  0.8237  0.5553  2.6922
   8023SM   H3G10639   0.256   7.744   6.884 -1.5715 -2.4383 -0.7983
   8023SM   C4F10640   0.294   7.592   6.743 -0.5668 -0.0009  0.0443
   8023SM   H4F10641   0.372   7.526   6.701 -2.0721 -1.7607 -0.1053
   8023SM   H4G10642   0.271   7.663   6.660  0.9138  0.2990 -0.1380
   8023SM   C5F10643   0.183   7.497   6.777  1.1982 -0.3926 -0.6796
   8023SM   H5F10644   0.104   7.537   6.843 -0.0933 -4.7604  0.7602
   8023SM   H5G10645   0.216   7.404   6.828  0.1416  0.5289  1.8334
   8023SM   C6F10646   0.106   7.445   6.655 -0.8586  0.2290  0.1484
   8023SM   H6F10647   0.055   7.526   6.599 -2.3729 -0.0482  1.0688
   8023SM   H6G10648   0.025   7.376   6.688 -0.3288  0.2802  1.5877
   8023SM   C7F10649   0.186   7.355   6.555 -0.0986 -0.3055 -0.1662
   8023SM   H7F10650   0.219   7.271   6.620 -1.9570 -0.2024  0.9856
   8023SM   H7G10651   0.275   7.413   6.524  0.6524 -2.5760 -2.5535
   8023SM   C8F10652   0.104   7.302   6.435  0.5482  0.1787  0.4047
   8023SM   H8F10653   0.022   7.241   6.479  0.3695  0.9302  1.1364
   8023SM   H8G10654   0.167   7.232   6.376 -1.6604 -1.0083 -0.6850
   8023SM   C9F10655   0.029   7.410   6.352  0.0922 -0.0771  0.3345
   8023SM   H9F10656  -0.044   7.451   6.425 -0.4135  0.3209 -0.3735
   8023SM   H9G10657  -0.036   7.353   6.282 -1.6233  1.0536  0.9201
   8023SM  C10F10658   0.123   7.510   6.283  0.1188  0.8287 -0.3427
   8023SM  H10F10659   0.214   7.452   6.255 -0.4239 -0.4614  0.4775
   8023SM  H10G10660   0.159   7.582   6.360 -0.7760 -0.8063  1.7137
   8023SM  C11F10661   0.062   7.597   6.166  0.3805  1.0171 -0.2591
   8023SM  H11F10662   0.122   7.686   6.139  1.5436  0.0857 -0.8206
   8023SM  H11G10663  -0.040   7.632   6.193  0.0574  0.7702 -1.1357
   8023SM  C12F10664   0.047   7.511   6.040  0.5219 -0.6197 -0.3855
   8023SM  H12F10665  -0.032   7.436   6.061 -0.7835  1.5960  3.7226
   8023SM  H12G10666   0.144   7.458   6.029  0.3452 -1.3030  1.1891
   8023SM  C13F10667   0.004   7.587   5.917 -0.6920 -0.8049  0.4445
   8023SM  H13F10668   0.082   7.658   5.884 -1.3686 -0.4261 -0.4027
   8023SM  H13G10669  -0.089   7.644   5.938  0.5343  1.5279 -0.1857
   8023SM  C14F10670  -0.032   7.492   5.797  0.2085  0.2697  0.0483
   8023SM  H14F10671   0.035   7.403   5.800  1.1023  0.9166 -0.2683
   8023SM  H14G10672  -0.015   7.537   5.697 -2.2270 -1.1610 -1.0900
   8023SM  C15F10673  -0.191   7.452   5.805 -0.1176  0.3136  0.2310
   8023SM  H15F10674  -0.256   7.538   5.779 -1.4081 -0.3452  1.1906
   8023SM  H15G10675  -0.206   7.422   5.910  3.4185  0.0426  0.7977
   8023SM  C16F10676  -0.224   7.327   5.720  0.3795 -0.1276 -1.0299
   8023SM  H16F10677  -0.333   7.309   5.733 -0.0007  2.3890 -0.2250
   8023SM  H16G10678  -0.164   7.239   5.752 -3.2913 -2.0017  1.3235
   8023SM  C17F10679  -0.187   7.350   5.572  0.1801  0.2709 -0.4262
   8023SM  H17F10680  -0.082   7.383   5.551  0.2323 -0.3393 -1.1616
   8023SM  H17G10681  -0.255   7.430   5.537 -1.5063  0.1488  2.2762
   8023SM  C18F10682  -0.208   7.217   5.492  0.4320  0.0052  0.0250
   8023SM  H18F10683  -0.318   7.206   5.480  0.5006 -0.4415 -0.2138
   8023SM  H18G10684  -0.181   7.128   5.553  0.7798  0.3826  0.4277
   8023SM  C19F10685  -0.128   7.211   5.359  0.2952  0.5014 -0.0787
   8023SM  H19F10686  -0.104   7.106   5.332 -0.6654  0.6342 -1.5906
   8023SM  H19G10687  -0.030   7.263   5.368  1.4180 -0.4111 -4.5209
   8023SM  C20F10688  -0.199   7.277   5.237  0.2204  0.6735  0.5166
   8023SM  H20F10689  -0.212   7.385   5.259 -0.2221  0.5319  0.9617
   8023SM  H20G10690  -0.298   7.232   5.217  0.1275  0.9350  0.3951
   8023SM  C21F10691  -0.100   7.274   5.120 -0.2077 -0.1639 -0.4529
   8023SM  H21F10692  -0.061   7.173   5.098 -0.2069  0.1088 -1.7769
   8023SM  H21G10693  -0.012   7.326   5.163 -0.0885  0.5303 -1.5053
   8023SM  C22F10694  -0.167   7.338   5.003 -0.2987  0.0790  0.1453
   8023SM  H22F10695  -0.204   7.436   5.039  1.3698  0.6813  0.3298
   8023SM  H22G10696  -0.255   7.276   4.975 -0.0582 -0.0402 -0.3538
   8023SM  C23F10697  -0.075   7.369   4.890  0.0304 -0.1351 -0.0428
   8023SM  H23F10698  -0.133   7.392   4.798  0.3113 -1.7693 -0.6587
   8023SM  H23G10699  -0.020   7.277   4.861 -0.2804 -0.4785  0.4589
   8023SM  H23H10700   0.001   7.450   4.901  1.7718 -1.6249 -0.5532
   8123SM     N10701   4.640   4.357   2.868 -0.2506  0.2633 -0.2448
   8123SM   C1510702   4.790   4.394   2.885  0.2826 -0.0740  0.2694
   8123SM  H15A10703   4.796   4.457   2.973 -0.5967 -0.8298  0.8878
   8123SM  H15B10704   4.824   4.450   2.799 -0.3081 -0.2559 -0.0889
   8123SM  H15C10705   4.862   4.314   2.885 -0.6017 -0.8905  1.1215
   8123SM   C1410706   4.556   4.474   2.875 -0.1860  0.6660  0.0250
   8123SM  H14A10707   4.555   4.537   2.788 -1.2629 -0.1818 -0.5952
   8123SM  H14B10708   4.581   4.543   2.954 -0.8448  1.3638 -0.3682
   8123SM  H14C10709   4.453   4.451   2.896  0.0793  1.8923  3.4020
   8123SM   C1310710   4.625   4.282   2.744  0.3832 -0.0126 -0.1611
   8123SM  H13A10711   4.693   4.198   2.740  0.9110  0.0964  3.1904
   8123SM  H13B10712   4.660   4.338   2.658 -1.0130  3.2055  1.2103
   8123SM  H13C10713   4.519   4.266   2.729  0.4475  1.0697 -2.1543
   8123SM   C1210714   4.603   4.266   2.986  0.0754  0.1516 -0.5319
   8123SM  H12A10715   4.630   4.314   3.078  1.0544 -0.0065 -0.7199
   8123SM  H12B10716   4.672   4.184   2.972  0.6623  0.7485 -1.2146
   8123SM   C1110717   4.460   4.212   2.997  0.1758  0.5850 -0.0582
   8123SM  H11A10718   4.457   4.143   3.083 -1.7915 -0.3015 -0.7903
   8123SM  H11B10719   4.435   4.146   2.911  3.1157 -0.7299 -0.0239
   8123SM     P10720   4.214   4.299   3.028 -0.1775  0.2291 -0.1464
   8123SM   O1310721   4.152   4.410   2.954 -0.7667  0.4563 -0.5756
   8123SM   O1410722   4.173   4.161   3.004  0.2089  0.0118  0.6436
   8123SM   O1110723   4.200   4.318   3.181  0.8689 -0.1686 -0.1969
   8123SM   O1210724   4.366   4.314   3.013  0.3546  0.2224 -0.3220
   8123SM   C1S10725   4.106   4.225   3.250  0.5317  0.3924  0.7519
   8123SM   H1S10726   4.151   4.123   3.251 -0.7172 -0.1889  0.6082
   8123SM   H1T10727   4.007   4.215   3.200  1.4104 -2.2676 -0.6706
   8123SM    NF10728   4.008   4.154   3.461 -0.0183 -0.3602 -0.4414
   8123SM   HNF10729   3.918   4.183   3.492  1.5048  2.9381  1.3887
   8123SM   C2S10730   4.085   4.267   3.391  0.1317  1.1132 -0.6064
   8123SM   H2S10731   4.186   4.272   3.437  0.5299  2.1054 -1.5608
   8123SM   C3S10732   4.017   4.409   3.394 -0.7231  0.4222  0.4720
   8123SM   H3S10733   3.921   4.400   3.339 -1.0350  1.6808  0.7870
   8123SM    O310734   4.088   4.510   3.317  0.4655  0.1746  0.0304
   8123SM   HO310735   4.140   4.457   3.256  0.0812 -1.3021  0.9414
   8123SM   C4S10736   3.992   4.448   3.543  0.6290  0.5195  0.4306
   8123SM   H4S10737   3.930   4.377   3.599 -0.1525  0.3682 -0.6045
   8123SM   C5S10738   4.048   4.548   3.613  0.1537 -0.4404 -0.4147
   8123SM   H5S10739   4.116   4.621   3.565  1.0855 -1.6581 -1.0098
   8123SM   C6S10740   4.019   4.586   3.761  0.0431 -0.1884  0.2198
   8123SM   H6S10741   3.919   4.549   3.793 -0.0448 -0.2046 -0.0746
   8123SM   H6T10742   4.013   4.697   3.768  0.2148 -0.2711  2.7190
   8123SM   C7S10743   4.130   4.520   3.856  0.5888  0.3966  0.2556
   8123SM   H7S10744   4.232   4.538   3.816  0.7296  0.4068  0.6181
   8123SM   H7T10745   4.114   4.410   3.863 -1.7490  0.7675  1.8615
   8123SM   C8S10746   4.130   4.567   4.001 -0.2026 -0.1030 -0.4052
   8123SM   H8S10747   4.030   4.551   4.049  1.1957 -1.4503  2.2775
   8123SM   H8T10748   4.137   4.678   4.001 -1.2997  0.0369  1.8888
   8123SM   C9S10749   4.235   4.509   4.089 -0.1872 -0.4233 -0.3106
   8123SM   H9S10750   4.332   4.550   4.053 -0.3829  1.0396  0.7433
   8123SM   H9T10751   4.233   4.398   4.080  4.2781 -0.6072 -1.7608
   8123SM  C10S10752   4.227   4.546   4.237 -0.5253 -0.4580 -1.2738
   8123SM  H10S10753   4.147   4.486   4.284 -0.2866  0.3220  0.1630
   8123SM  H10T10754   4.213   4.654   4.256 -2.2391 -0.9476  0.5140
   8123SM  C11S10755   4.360   4.520   4.320  0.0183  0.0564 -1.1222
   8123SM  H11S10756   4.441   4.568   4.260  0.7434 -1.1347 -1.1390
   8123SM  H11T10757   4.381   4.411   4.311  0.6740  0.0916 -0.1591
   8123SM  C12S10758   4.338   4.577   4.460 -0.5718  0.4943  0.0290
   8123SM  H12S10759   4.240   4.537   4.494  0.0561  0.8535  2.4427
   8123SM  H12T10760   4.330   4.686   4.475 -0.5063  0.3514  1.2146
   8123SM  C13S10761   4.443   4.520   4.564  0.0327 -0.2436 -0.6334
   8123SM  H13S10762   4.534   4.584   4.556 -1.1272  1.5568  0.1754
   8123SM  H13T10763   4.465   4.415   4.535  0.1157 -0.9451  1.7775
   8123SM  C14S10764   4.379   4.512   4.707  0.0578 -0.1362 -0.5667
   8123SM  H14S10765   4.281   4.461   4.717 -0.2591  0.7481  1.1067
   8123SM  H14T10766   4.364   4.615   4.746 -0.8322 -1.1406  1.9730
   8123SM  C15S10767   4.474   4.443   4.816  0.0401 -0.0863  0.1628
   8123SM  H15S10768   4.576   4.487   4.822  0.1928 -0.1411 -1.5466
   8123SM  H15T10769   4.482   4.336   4.788  1.4772  0.1893 -0.5824
   8123SM  C16S10770   4.416   4.456   4.961 -0.5415 -0.0141  0.3259
   8123SM  H16S10771   4.321   4.399   4.960 -0.3687 -0.3089 -0.7780
   8123SM  H16T10772   4.402   4.565   4.973  2.6554  0.6279 -0.7603
   8123SM  C17S10773   4.508   4.404   5.075  0.3442  0.0845  0.3507
   8123SM  H17S10774   4.605   4.458   5.082  0.7913 -0.6023 -0.3471
   8123SM  H17T10775   4.540   4.299   5.055 -0.5865 -0.2919  0.7788
   8123SM  C18S10776   4.456   4.410   5.215 -0.4090  0.1085 -0.1962
   8123SM  H18S10777   4.434   4.517   5.233  0.6693  0.4722 -0.9743
   8123SM  H18T10778   4.537   4.376   5.283  1.9435  1.2616 -2.2626
   8123SM  H18U10779   4.366   4.346   5.226  1.3136 -2.5765 -0.5878
   8123SM   C1F10780   4.045   4.023   3.466 -0.3918  0.3675  0.1806
   8123SM    OF10781   4.155   3.994   3.431  0.1983  0.7281  0.0490
   8123SM   C2F10782   3.951   3.920   3.522  0.0312 -0.2776 -0.2309
   8123SM   H2F10783   3.934   3.853   3.435 -0.5661  0.0066 -0.3402
   8123SM   H2G10784   3.858   3.977   3.545  0.9017  1.6122 -1.1477
   8123SM   C3F10785   4.022   3.834   3.634  0.3325  0.3122 -0.3402
   8123SM   H3F10786   4.052   3.901   3.718 -2.8787  0.6935  0.6475
   8123SM   H3G10787   4.112   3.785   3.590 -0.3976 -1.6586  0.2336
   8123SM   C4F10788   3.928   3.733   3.695  0.3687  0.4261 -1.0128
   8123SM   H4F10789   3.929   3.644   3.629  0.9102 -2.4953  2.6037
   8123SM   H4G10790   3.824   3.771   3.690 -0.3853 -1.5564 -1.4412
   8123SM   C5F10791   3.960   3.677   3.835 -0.6453  0.6282  0.3633
   8123SM   H5F10792   3.910   3.578   3.843 -0.7581  0.5738 -0.8785
   8123SM   H5G10793   3.925   3.754   3.907 -2.1365 -0.4181  0.8237
   8123SM   C6F10794   4.109   3.654   3.868 -0.2663 -0.3605 -0.2458
   8123SM   H6F10795   4.149   3.757   3.867 -1.1117 -0.0286 -1.1876
   8123SM   H6G10796   4.150   3.602   3.779 -1.2890  0.3451 -1.1493
   8123SM   C7F10797   4.137   3.581   3.997 -0.1183 -0.1189 -0.3982
   8123SM   H7F10798   4.245   3.583   4.023 -0.0060 -1.3930 -0.6958
   8123SM   H7G10799   4.131   3.473   3.972  3.8826 -0.5116 -0.3864
   8123SM   C8F10800   4.050   3.623   4.119  0.2570 -0.7864 -0.1767
   8123SM   H8F10801   3.951   3.576   4.100  0.3782 -1.0216 -0.2320
   8123SM   H8G10802   4.044   3.734   4.125 -2.8902 -0.9443  3.9336
   8123SM   C9F10803   4.099   3.563   4.250  0.0763 -0.3056  0.9558
   8123SM   H9F10804   4.157   3.471   4.230 -0.1469 -0.4693  1.0507
   8123SM   H9G10805   4.012   3.531   4.311 -0.2044 -2.3975 -0.4460
   8123SM  C10F10806   4.179   3.660   4.337 -0.2851  0.2464  0.0457
   8123SM  H10F10807   4.118   3.752   4.352 -1.1768 -0.6540  2.5401
   8123SM  H10G10808   4.274   3.685   4.286 -0.9985 -1.6631 -2.3763
   8123SM  C11F10809   4.220   3.601   4.473  0.7710 -0.0226  0.0490
   8123SM  H11F10810   4.254   3.497   4.454 -0.3814 -0.0462 -2.3688
   8123SM  H11G10811   4.122   3.589   4.525  1.3388  0.2070  1.1786
   8123SM  C12F10812   4.331   3.679   4.547 -0.1046 -0.8231  0.0644
   8123SM  H12F10813   4.315   3.789   4.542  0.7646 -0.6242  1.3477
   8123SM  H12G10814   4.428   3.649   4.502  0.4021  1.8109 -0.7660
   8123SM  C13F10815   4.350   3.633   4.691 -0.2483 -0.7163  0.3785
   8123SM  H13F10816   4.344   3.522   4.689 -2.6349 -0.6773  1.4151
   8123SM  H13G10817   4.265   3.674   4.750  0.4612  0.5109  0.5778
   8123SM  C14F10818   4.486   3.671   4.755 -0.3917  0.1016  0.3153
   8123SM  H14F10819   4.489   3.782   4.767 -0.4314  0.3819 -1.8953
   8123SM  H14G10820   4.569   3.658   4.683 -0.4240  0.7143  0.1591
   8123SM  C15F10821   4.520   3.603   4.885  0.1382 -0.1582 -0.6998
   8123SM  H15F10822   4.438   3.616   4.959 -0.9935 -0.9258 -1.7666
   8123SM  H15G10823   4.607   3.658   4.926 -0.7184  0.3654  0.4544
   8123SM  C16F10824   4.579   3.464   4.871 -0.0492  0.6861  0.6365
   8123SM  H16F10825   4.675   3.468   4.815 -0.5324  2.3061 -0.1249
   8123SM  H16G10826   4.506   3.402   4.814 -2.4714  1.8542  2.3010
   8123SM  C17F10827   4.608   3.402   5.003 -0.3130  0.0992 -0.5912
   8123SM  H17F10828   4.528   3.403   5.079  0.6137 -0.2582  0.4234
   8123SM  H17G10829   4.679   3.471   5.055 -0.4878 -0.2566  0.1330
   8123SM  C18F10830   4.655   3.257   4.993  0.4156 -0.1740 -0.1098
   8123SM  H18F10831   4.756   3.261   4.947  0.8330  0.7470  0.8356
   8123SM  H18G10832   4.585   3.208   4.923 -1.0018  0.3105  0.9346
   8123SM  C19F10833   4.653   3.167   5.121  0.3688  0.4914  0.0518
   8123SM  H19F10834   4.694   3.225   5.206  0.2796 -1.8355  1.7889
   8123SM  H19G10835   4.718   3.079   5.099 -1.2887 -0.8268  0.2355
   8123SM  C20F10836   4.518   3.105   5.156  0.2568  0.2851  0.0214
   8123SM  H20F10837   4.455   3.078   5.068  0.1766  2.5918 -0.7008
   8123SM  H20G10838   4.458   3.182   5.211  0.3839  1.0561 -0.8805
   8123SM  C21F10839   4.530   2.995   5.256  0.3104  0.1531 -0.3586
   8123SM  H21F10840   4.579   3.032   5.348  0.3629  2.4004 -1.2454
   8123SM  H21G10841   4.584   2.907   5.215 -0.8929 -1.6759  1.7622
   8123SM  C22F10842   4.393   2.937   5.284  0.2505 -0.2728  0.3964
   8123SM  H22F10843   4.334   2.943   5.189  1.1870  2.9775 -0.1088
   8123SM  H22G10844   4.343   3.010   5.351 -1.0271 -1.3384  0.6440
   8123SM  C23F10845   4.385   2.793   5.341 -0.5018  0.2610  0.8961
   8123SM  H23F10846   4.430   2.731   5.260  1.1472 -0.8348  2.5629
   8123SM  H23G10847   4.277   2.770   5.347 -0.4718 -0.6722 -1.1446
   8123SM  H23H10848   4.434   2.781   5.440 -1.3704 -0.6087  1.2372
   8223SM     N10849   5.155   4.636   2.597 -0.4078 -0.1832  0.8389
   8223SM   C1510850   5.143   4.783   2.645  0.3549  0.7710 -0.5277
   8223SM  H15A10851   5.218   4.853   2.613 -0.2935  0.9574 -1.6901
   8223SM  H15B10852   5.128   4.785   2.752 -1.0635 -0.1255 -0.6806
   8223SM  H15C10853   5.057   4.827   2.597 -0.8418 -1.6905 -0.8085
   8223SM   C1410854   5.148   4.646   2.442  0.3550 -0.3472  0.1993
   8223SM  H14A10855   5.221   4.711   2.396  2.5625 -1.7569  1.5169
   8223SM  H14B10856   5.053   4.677   2.403  0.3610 -2.1879 -1.4878
   8223SM  H14C10857   5.172   4.551   2.395 -1.9119 -0.4381 -0.9091
   8223SM   C1310858   5.296   4.593   2.623 -0.4066 -0.1900 -0.2723
   8223SM  H13A10859   5.321   4.500   2.574  3.7334  0.2806  0.5549
   8223SM  H13B10860   5.330   4.587   2.725  1.7956 -1.2024 -1.0001
   8223SM  H13C10861   5.369   4.663   2.586  2.4216 -1.2093  2.8671
   8223SM   C1210862   5.052   4.552   2.664  0.5302 -0.1421  0.6891
   8223SM  H12A10863   4.963   4.613   2.655  1.1825  1.0428  1.8864
   8223SM  H12B10864   5.067   4.544   2.771 -0.2140  0.7325  0.8740
   8223SM   C1110865   5.034   4.410   2.618 -0.7141  0.0626  0.0806
   8223SM  H11A10866   5.009   4.410   2.509 -0.9086  1.4200  0.0956
   8223SM  H11B10867   4.940   4.371   2.661 -1.1436 -0.2576 -1.1043
   8223SM     P10868   5.178   4.250   2.771 -0.4242 -0.0296  0.2544
   8223SM   O1310869   5.149   4.116   2.724  0.7008 -0.1471  0.1818
   8223SM   O1410870   5.308   4.265   2.833  0.5892  0.0220 -0.1392
   8223SM   O1110871   5.067   4.293   2.875  0.3009 -0.5440  0.2433
   8223SM   O1210872   5.158   4.339   2.643 -0.0218 -0.3231 -0.5959
   8223SM   C1S10873   5.050   4.232   3.005  0.7849  0.0537 -0.1436
   8223SM   H1S10874   5.086   4.127   3.010  0.5092 -0.0165  0.4602
   8223SM   H1T10875   4.941   4.218   3.022  0.0791 -0.4607 -4.0161
   8223SM    NF10876   5.084   4.217   3.251  0.0243 -0.3354  0.4965
   8223SM   HNF10877   5.003   4.248   3.301  0.5230  0.5089  0.8056
   8223SM   C2S10878   5.099   4.302   3.134  0.0814  0.1005 -0.0350
   8223SM   H2S10879   5.206   4.311   3.108 -0.0245  0.2266 -0.4290
   8223SM   C3S10880   5.029   4.434   3.155 -0.1702 -0.3164 -0.1943
   8223SM   H3S10881   4.929   4.409   3.197 -0.0675 -0.5251 -0.0719
   8223SM    O310882   5.018   4.510   3.037  0.3150 -0.1303  0.3578
   8223SM   HO310883   5.060   4.454   2.971  0.0768 -0.5452  0.5558
   8223SM   C4S10884   5.102   4.512   3.262 -0.2807  0.1766 -0.3395
   8223SM   H4S10885   5.051   4.511   3.359 -1.7600  2.1486 -1.0307
   8223SM   C5S10886   5.205   4.597   3.257  0.0010 -0.0927 -0.2073
   8223SM   H5S10887   5.253   4.608   3.159  0.7911 -1.1717  0.0284
   8223SM   C6S10888   5.266   4.674   3.374  0.1535 -0.3243  0.0965
   8223SM   H6S10889   5.288   4.777   3.340  0.7588 -0.2991  0.5470
   8223SM   H6T10890   5.368   4.630   3.386 -0.1012 -1.5391 -1.6599
   8223SM   C7S10891   5.195   4.659   3.506  0.6016 -0.3606  0.6501
   8223SM   H7S10892   5.185   4.555   3.543  1.3047 -1.0210 -0.9271
   8223SM   H7T10893   5.092   4.701   3.504  1.2033  1.2146  0.5922
   8223SM   C8S10894   5.254   4.745   3.618 -0.1740 -0.3431 -1.1667
   8223SM   H8S10895   5.292   4.838   3.571  2.3376 -0.4624  0.4507
   8223SM   H8T10896   5.350   4.713   3.663 -1.2783 -0.2451  1.3954
   8223SM   C9S10897   5.165   4.772   3.734  0.3428  0.4787 -0.5028
   8223SM   H9S10898   5.146   4.674   3.784  1.7839  0.1565 -0.5233
   8223SM   H9T10899   5.066   4.803   3.694  0.1537 -0.6929 -0.9786
   8223SM  C10S10900   5.212   4.878   3.822 -0.0970 -0.4203 -0.5310
   8223SM  H10S10901   5.135   4.919   3.891  1.2084 -0.9548  1.3114
   8223SM  H10T10902   5.234   4.965   3.756 -0.9603 -0.0615 -0.3559
   8223SM  C11S10903   5.336   4.835   3.913 -0.1156 -0.1003  0.4171
   8223SM  H11S10904   5.417   4.797   3.848  0.0421 -0.7606  0.9916
   8223SM  H11T10905   5.304   4.753   3.981 -0.2963  0.2086  0.7122
   8223SM  C12S10906   5.389   4.961   3.988  0.5179 -1.1727  0.1770
   8223SM  H12S10907   5.337   4.970   4.086  3.4287  0.3390  1.6873
   8223SM  H12T10908   5.352   5.044   3.923  0.3272 -2.3209 -1.2236
   8223SM  C13S10909   5.541   4.977   3.999  0.0162  0.4454 -0.7281
   8223SM  H13S10910   5.588   5.006   3.903 -0.4007 -2.4011 -1.8888
   8223SM  H13T10911   5.573   4.874   4.028 -0.1506  1.2925  2.9810
   8223SM  C14S10912   5.587   5.051   4.121 -0.3141 -0.0597 -0.4151
   8223SM  H14S10913   5.698   5.058   4.116 -0.0242 -0.0685  3.2930
   8223SM  H14T10914   5.549   4.997   4.210 -2.5961  0.3443 -1.0813
   8223SM  C15S10915   5.541   5.198   4.131 -0.4402  0.2842 -0.3855
   8223SM  H15S10916   5.431   5.205   4.135 -0.4762  1.0428 -1.8437
   8223SM  H15T10917   5.567   5.250   4.036 -1.2225  0.6939 -0.3802
   8223SM  C16S10918   5.614   5.271   4.246 -0.2266  0.0443 -0.5897
   8223SM  H16S10919   5.570   5.373   4.238 -1.4937 -0.4845 -0.7263
   8223SM  H16T10920   5.723   5.276   4.228 -0.4967  2.0391 -1.9479
   8223SM  C17S10921   5.591   5.213   4.390 -0.4350 -0.0055 -0.3783
   8223SM  H17S10922   5.610   5.103   4.388  1.1845  0.2065  0.6615
   8223SM  H17T10923   5.482   5.226   4.408 -0.5332  1.1499 -1.6654
   8223SM  C18S10924   5.677   5.291   4.490 -0.3727  1.3048 -0.6007
   8223SM  H18S10925   5.783   5.293   4.457  0.1302  1.4197  0.9437
   8223SM  H18T10926   5.674   5.239   4.588 -3.2639 -0.6224 -1.6048
   8223SM  H18U10927   5.640   5.396   4.492  1.9699  2.1939 -0.5298
   8223SM   C1F10928   5.153   4.108   3.264 -0.3679  0.5874 -0.2766
   8223SM    OF10929   5.238   4.072   3.183  0.3003 -0.2088  0.7332
   8223SM   C2F10930   5.125   4.020   3.382  0.7120 -0.0731 -0.0106
   8223SM   H2F10931   5.015   4.004   3.377  0.8190 -1.0613  0.5801
   8223SM   H2G10932   5.135   4.074   3.479 -1.0683  0.1324  0.1007
   8223SM   C3F10933   5.216   3.897   3.395 -0.1568 -0.2539  0.0707
   8223SM   H3F10934   5.315   3.946   3.387  0.2925 -0.9740  0.9973
   8223SM   H3G10935   5.202   3.840   3.300  0.1580 -1.0127  0.4736
   8223SM   C4F10936   5.197   3.824   3.531 -0.1524  0.1760 -0.2436
   8223SM   H4F10937   5.258   3.731   3.534  1.4733  1.2106  1.4644
   8223SM   H4G10938   5.087   3.815   3.540 -0.1133 -0.4424 -0.3080
   8223SM   C5F10939   5.253   3.907   3.650 -1.0017  0.7192  0.6730
   8223SM   H5F10940   5.200   4.004   3.663  1.7905  2.2919  0.9919
   8223SM   H5G10941   5.358   3.940   3.636 -0.2638 -1.5422  0.3773
   8223SM   C6F10942   5.244   3.831   3.782 -0.0786  0.6783 -0.3189
   8223SM   H6F10943   5.271   3.723   3.784  0.8367  0.9037  0.1158
   8223SM   H6G10944   5.138   3.824   3.813 -0.2451 -2.0001 -1.2916
   8223SM   C7F10945   5.313   3.896   3.905  0.0689 -0.6200  0.2008
   8223SM   H7F10946   5.281   4.003   3.912 -0.5474 -0.7907  0.0659
   8223SM   H7G10947   5.423   3.892   3.890  0.0973 -2.1817  0.6989
   8223SM   C8F10948   5.286   3.816   4.031 -0.0687 -0.0547  0.6010
   8223SM   H8F10949   5.305   3.710   4.005  1.0554  0.3206 -0.1569
   8223SM   H8G10950   5.176   3.825   4.045  0.1439  1.0093  1.7805
   8223SM   C9F10951   5.365   3.864   4.145  0.2909  0.2651 -1.1937
   8223SM   H9F10952   5.333   3.965   4.178  1.5628  0.2742  0.1197
   8223SM   H9G10953   5.472   3.866   4.117 -0.1616  1.2725 -2.9966
   8223SM  C10F10954   5.350   3.763   4.263  0.6781 -0.2172  0.0045
   8223SM  H10F10955   5.386   3.662   4.233  0.3773 -0.3867  0.2053
   8223SM  H10G10956   5.244   3.758   4.296  0.7612  2.2306  0.8271
   8223SM  C11F10957   5.432   3.802   4.394  0.2074  0.2093  0.2987
   8223SM  H11F10958   5.402   3.905   4.423 -0.2031 -0.1013  1.0081
   8223SM  H11G10959   5.539   3.809   4.366  0.2551  1.4650  0.7248
   8223SM  C12F10960   5.408   3.717   4.519  0.4074  0.9221  0.1713
   8223SM  H12F10961   5.460   3.619   4.508 -0.8296 -0.0800  2.5206
   8223SM  H12G10962   5.303   3.683   4.518  0.7915 -0.6652  3.3347
   8223SM  C13F10963   5.426   3.795   4.651  0.1963 -0.0695 -0.5730
   8223SM  H13F10964   5.358   3.882   4.646  1.1971  0.6567 -2.8562
   8223SM  H13G10965   5.531   3.830   4.660 -0.4778  1.6376  1.4596
   8223SM  C14F10966   5.393   3.712   4.780 -0.7453  0.7843 -0.0565
   8223SM  H14F10967   5.288   3.692   4.808  0.1985 -0.3866  3.0853
   8223SM  H14G10968   5.430   3.770   4.868 -0.1356  1.2680 -0.6228
   8223SM  C15F10969   5.469   3.575   4.783 -0.3083 -0.2348 -1.4102
   8223SM  H15F10970   5.579   3.581   4.774 -0.2174 -1.3843 -1.1618
   8223SM  H15G10971   5.429   3.523   4.694 -1.1939  0.7411 -1.6168
   8223SM  C16F10972   5.432   3.503   4.915 -0.4347  0.1380 -0.1289
   8223SM  H16F10973   5.429   3.583   4.992 -0.0332 -0.5164  0.5807
   8223SM  H16G10974   5.512   3.428   4.934 -1.0434 -0.2594  0.8679
   8223SM  C17F10975   5.290   3.448   4.921  1.1960  0.0733  0.4194
   8223SM  H17F10976   5.267   3.403   4.822  1.1844 -2.6807  1.5981
   8223SM  H17G10977   5.219   3.532   4.937  0.4200 -0.2224 -1.2490
   8223SM  C18F10978   5.267   3.351   5.041 -0.2275  0.3665  0.5338
   8223SM  H18F10979   5.362   3.309   5.082 -1.2205 -1.6035  0.9718
   8223SM  H18G10980   5.214   3.260   5.007 -0.1606 -0.5521  2.6692
   8223SM  C19F10981   5.182   3.404   5.153 -0.2326 -0.3289  0.0450
   8223SM  H19F10982   5.079   3.432   5.120  1.3625  3.6831 -2.3474
   8223SM  H19G10983   5.234   3.484   5.210  3.6582 -2.3263 -0.3807
   8223SM  C20F10984   5.171   3.290   5.256  0.3534  1.0139  0.0466
   8223SM  H20F10985   5.270   3.265   5.299  0.4573 -0.9015 -1.1741
   8223SM  H20G10986   5.140   3.205   5.191 -0.2957  1.4012 -0.1611
   8223SM  C21F10987   5.073   3.314   5.365  0.3471  0.1649  0.1024
   8223SM  H21F10988   5.101   3.412   5.409 -0.5733  0.5912 -0.2450
   8223SM  H21G10989   5.094   3.237   5.443  0.3321  1.0148  0.9579
   8223SM  C22F10990   4.927   3.302   5.340 -0.5494 -0.2024 -0.2455
   8223SM  H22F10991   4.893   3.226   5.266  0.6608 -2.1666  1.1398
   8223SM  H22G10992   4.894   3.397   5.293 -0.7452 -1.1588 -2.1418
   8223SM  C23F10993   4.844   3.275   5.467  0.2676  0.1791  0.4847
   8223SM  H23F10994   4.831   3.370   5.523 -1.2803 -0.4492  1.2703
   8223SM  H23G10995   4.896   3.200   5.530  1.2420 -0.2600 -0.8179
   8223SM  H23H10996   4.738   3.250   5.446 -0.5386  3.4416  0.0870
   8323SM     N10997   4.960   3.625   2.958 -1.1390  0.3681 -0.3424
   8323SM   C1510998   5.055   3.506   2.941  0.2594  0.1812 -0.0977
   8323SM  H15A10999   5.150   3.534   2.983  0.1412 -1.7014  1.5432
   8323SM  H15B11000   5.073   3.502   2.834 -0.4844 -1.7105 -0.1824
   8323SM  H15C11001   5.018   3.413   2.982  3.0596 -1.3979 -0.8703
   8323SM   C1411002   4.842   3.590   2.878  0.7567 -0.4335  0.6213
   8323SM  H14A11003   4.782   3.509   2.915  0.5606 -0.4408  0.2937
   8323SM  H14B11004   4.864   3.574   2.774 -0.0313 -1.2624  0.5646
   8323SM  H14C11005   4.764   3.666   2.886 -0.9269 -2.1182  0.9665
   8323SM   C1311006   4.910   3.635   3.098 -0.1758 -0.4226  0.2792
   8323SM  H13A11007   4.985   3.653   3.174 -1.1690  1.2138  0.9260
   8323SM  H13B11008   4.853   3.549   3.130 -1.8948  0.6305  0.1326
   8323SM  H13C11009   4.835   3.709   3.117 -0.4988 -1.1411  2.0119
   8323SM   C1211010   5.028   3.751   2.918 -0.5953 -0.2590 -0.3213
   8323SM  H12A11011   4.947   3.822   2.910 -0.4777 -0.1557 -0.5993
   8323SM  H12B11012   5.057   3.747   2.814 -2.4400 -2.7045 -0.8451
   8323SM   C1111013   5.151   3.793   2.997  0.2294  0.1374  0.8089
   8323SM  H11A11014   5.137   3.793   3.107  0.5058 -0.3859  0.8468
   8323SM  H11B11015   5.183   3.894   2.963  1.4522 -0.1505  1.0547
   8323SM     P11016   5.362   3.704   2.864  0.4587  0.3222  0.2099
   8323SM   O1311017   5.301   3.628   2.752  0.2812 -0.2999  0.5369
   8323SM   O1411018   5.400   3.838   2.832 -0.0687  0.0305 -0.1180
   8323SM   O1111019   5.485   3.621   2.915 -0.2468  0.0449 -0.0346
   8323SM   O1211020   5.261   3.713   2.981 -0.5314  0.1688 -0.8244
   8323SM   C1S11021   5.562   3.648   3.031 -0.0967  0.1174  0.1232
   8323SM   H1S11022   5.570   3.759   3.028  0.5092  0.0524 -1.8086
   8323SM   H1T11023   5.662   3.601   3.019  0.6386  1.2137  1.4843
   8323SM    NF11024   5.585   3.658   3.279  0.2783 -0.0431 -0.3231
   8323SM   HNF11025   5.660   3.612   3.327  0.6158  0.8500  0.0298
   8323SM   C2S11026   5.509   3.597   3.170  0.0690  0.2028 -0.4553
   8323SM   H2S11027   5.406   3.637   3.182  0.3345  1.5150 -2.1598
   8323SM   C3S11028   5.515   3.444   3.172  0.6085  0.3685 -0.5112
   8323SM   H3S11029   5.623   3.420   3.189  0.6192  0.9396  0.2880
   8323SM    O311030   5.464   3.379   3.056 -0.6106 -0.2479  0.0688
   8323SM   HO311031   5.471   3.448   2.990 -0.5261 -0.5586 -0.2533
   8323SM   C4S11032   5.442   3.393   3.290  0.1241  0.3452 -0.3144
   8323SM   H4S11033   5.332   3.391   3.281  0.1167 -1.2819 -0.2112
   8323SM   C5S11034   5.493   3.349   3.410 -1.0299  0.6661  0.3312
   8323SM   H5S11035   5.601   3.361   3.429 -0.9090 -0.0866  0.1558
   8323SM   C6S11036   5.422   3.297   3.533 -0.2087  0.3729 -0.6457
   8323SM   H6S11037   5.506   3.266   3.597 -0.1077 -1.8643 -1.7509
   8323SM   H6T11038   5.364   3.203   3.517 -0.4418  0.0731  1.7033
   8323SM   C7S11039   5.332   3.390   3.605  0.4267 -0.0160  0.3261
   8323SM   H7S11040   5.248   3.436   3.548 -0.2694  2.5321  3.1866
   8323SM   H7T11041   5.384   3.485   3.631  0.4808 -0.6234  2.6772
   8323SM   C8S11042   5.267   3.334   3.727 -0.3904  0.8265 -0.0863
   8323SM   H8S11043   5.308   3.231   3.739  0.3279  1.0013 -0.9112
   8323SM   H8T11044   5.158   3.317   3.713 -0.4430  0.0348  1.1113
   8323SM   C9S11045   5.294   3.411   3.857 -0.1391  0.2711  0.6375
   8323SM   H9S11046   5.247   3.510   3.843 -0.9653 -0.1348  0.4622
   8323SM   H9T11047   5.397   3.446   3.877 -0.3339  1.3643 -0.1924
   8323SM  C10S11048   5.243   3.333   3.980 -0.4305  0.1110 -0.3501
   8323SM  H10S11049   5.290   3.232   3.986 -0.2568  0.2416  0.6045
   8323SM  H10T11050   5.136   3.301   3.980 -0.1498 -0.9194 -1.3370
   8323SM  C11S11051   5.275   3.417   4.102 -0.1472  0.4843 -0.4572
   8323SM  H11S11052   5.247   3.524   4.092  1.7229  0.9504 -1.1001
   8323SM  H11T11053   5.383   3.414   4.128 -0.2525  1.1121  0.0770
   8323SM  C12S11054   5.192   3.371   4.229  0.4491  0.0894 -0.2759
   8323SM  H12S11055   5.226   3.268   4.249 -0.6065  0.0207  1.3307
   8323SM  H12T11056   5.086   3.361   4.199  0.9296 -0.0025 -2.0753
   8323SM  C13S11057   5.222   3.442   4.359  0.8546 -0.5891 -0.1403
   8323SM  H13S11058   5.201   3.550   4.344  1.0722 -0.4510  0.5224
   8323SM  H13T11059   5.329   3.428   4.386  0.3889 -1.0715  1.5843
   8323SM  C14S11060   5.137   3.398   4.475  0.2665  0.3766  0.2325
   8323SM  H14S11061   5.199   3.431   4.560  1.0301  1.0112 -0.5520
   8323SM  H14T11062   5.137   3.287   4.488  0.1031  0.6156  2.5831
   8323SM  C15S11063   4.995   3.467   4.479 -0.7074  0.2455 -0.5506
   8323SM  H15S11064   4.921   3.404   4.425  1.4530 -1.0697 -2.1528
   8323SM  H15T11065   5.004   3.562   4.422 -1.6906  0.2689 -0.6875
   8323SM  C16S11066   4.937   3.499   4.620 -0.8032  0.0426 -1.2442
   8323SM  H16S11067   4.940   3.413   4.690  0.6077  1.5221  0.6187
   8323SM  H16T11068   4.830   3.529   4.619 -1.0903 -0.7820  0.3856
   8323SM  C17S11069   5.020   3.620   4.686  0.5256 -1.4687 -1.1738
   8323SM  H17S11070   4.979   3.707   4.630 -1.7366 -0.7762  1.3716
   8323SM  H17T11071   5.127   3.608   4.658  1.0846  1.5769 -0.6829
   8323SM  C18S11072   4.984   3.631   4.839 -0.0645 -1.0460 -0.3334
   8323SM  H18S11073   5.013   3.540   4.895 -0.8356 -0.0412  1.8020
   8323SM  H18T11074   4.877   3.657   4.844  0.4201  1.1604 -0.3284
   8323SM  H18U11075   5.041   3.719   4.876 -1.6940  0.3153 -0.9633
   8323SM   C1F11076   5.581   3.781   3.315  0.5109  0.1026  0.9950
   8323SM    OF11077   5.500   3.856   3.262 -0.6458  0.1155  0.1964
   8323SM   C2F11078   5.683   3.833   3.414 -0.4591  0.5124 -0.4296
   8323SM   H2F11079   5.787   3.844   3.376 -0.4396  1.4855 -0.0992
   8323SM   H2G11080   5.685   3.756   3.494  2.0945  1.2149  0.2840
   8323SM   C3F11081   5.643   3.972   3.471 -0.5435  0.4415  0.1526
   8323SM   H3F11082   5.546   3.959   3.522 -1.0923  1.0127 -0.7196
   8323SM   H3G11083   5.628   4.035   3.380  2.1010  2.6503  1.0876
   8323SM   C4F11084   5.754   4.034   3.550  0.3908 -0.2775 -0.2765
   8323SM   H4F11085   5.715   4.129   3.592 -1.9854 -1.3516  0.0638
   8323SM   H4G11086   5.851   4.050   3.498  0.9979 -0.1835  0.8503
   8323SM   C5F11087   5.789   3.968   3.682 -0.0320 -0.3209  1.0928
   8323SM   H5F11088   5.829   3.865   3.674  0.5524  0.0163 -0.6926
   8323SM   H5G11089   5.693   3.942   3.731  0.0578 -1.7735  0.5423
   8323SM   C6F11090   5.865   4.062   3.772  0.1383 -0.0831 -0.4688
   8323SM   H6F11091   5.824   4.165   3.784 -1.3774 -0.8049  0.8908
   8323SM   H6G11092   5.964   4.079   3.724 -0.0976 -1.5135 -1.4943
   8323SM   C7F11093   5.894   3.993   3.908  0.2763  1.5420  0.2001
   8323SM   H7F11094   5.994   4.031   3.939  1.1503  0.7948 -1.5204
   8323SM   H7G11095   5.920   3.887   3.886  0.6066  1.7731 -0.5779
   8323SM   C8F11096   5.797   4.013   4.022  0.2807 -0.3593 -0.3107
   8323SM   H8F11097   5.832   3.952   4.109 -1.1427  0.3950  0.8457
   8323SM   H8G11098   5.696   3.973   4.000 -0.0281  0.4427 -0.3917
   8323SM   C9F11099   5.793   4.159   4.065 -0.3402 -0.1035 -0.1925
   8323SM   H9F11100   5.756   4.213   3.976 -2.1325  0.1840  0.6813
   8323SM   H9G11101   5.900   4.185   4.086 -0.3420 -0.0355 -0.2661
   8323SM  C10F11102   5.713   4.192   4.188  0.3465 -0.1487  0.0258
   8323SM  H10F11103   5.607   4.190   4.155  0.0117 -0.3005  1.0677
   8323SM  H10G11104   5.742   4.295   4.220  1.0144  0.6666 -2.9029
   8323SM  C11F11105   5.741   4.089   4.298 -0.4534  0.3089  0.1003
   8323SM  H11F11106   5.851   4.075   4.306  0.0220 -0.4979 -4.8356
   8323SM  H11G11107   5.692   3.992   4.275  2.2448 -0.8189 -1.2818
   8323SM  C12F11108   5.696   4.136   4.434  0.2623 -0.3219  0.4497
   8323SM  H12F11109   5.586   4.148   4.440  0.5574  2.6527  1.5631
   8323SM  H12G11110   5.734   4.237   4.461 -0.3922  0.1164 -0.2447
   8323SM  C13F11111   5.744   4.038   4.546  0.3292 -0.3359  0.1552
   8323SM  H13F11112   5.852   4.027   4.521  0.5845  2.5594 -0.3705
   8323SM  H13G11113   5.686   3.945   4.532 -0.8115  0.4475 -0.4301
   8323SM  C14F11114   5.728   4.098   4.691 -0.1178  0.0811  0.1778
   8323SM  H14F11115   5.632   4.151   4.705  1.0350  1.6612  2.8598
   8323SM  H14G11116   5.806   4.175   4.708  0.7467 -0.5125 -0.9739
   8323SM  C15F11117   5.752   3.986   4.794 -0.2929  0.3823 -0.8378
   8323SM  H15F11118   5.845   3.935   4.759  0.5321 -0.6803  2.4946
   8323SM  H15G11119   5.672   3.909   4.796 -0.0994  0.1765  0.9395
   8323SM  C16F11120   5.775   4.040   4.944 -0.6753 -0.1011 -0.0272
   8323SM  H16F11121   5.698   4.111   4.982  1.3106  2.1693  0.0122
   8323SM  H16G11122   5.868   4.101   4.936  0.0340 -1.2529 -0.9054
   8323SM  C17F11123   5.795   3.925   5.049 -0.2962 -0.4734 -0.4741
   8323SM  H17F11124   5.811   3.966   5.151  1.8555  0.6375 -1.1858
   8323SM  H17G11125   5.892   3.878   5.022  0.7874  1.0830  0.5052
   8323SM  C18F11126   5.689   3.813   5.048  0.6935  0.9052 -0.9546
   8323SM  H18F11127   5.679   3.767   4.948 -0.2377 -1.9880  0.3595
   8323SM  H18G11128   5.596   3.866   5.076 -0.4371 -1.6731  0.5194
   8323SM  C19F11129   5.721   3.701   5.147  0.3938  0.1633 -0.3670
   8323SM  H19F11130   5.640   3.625   5.150  1.5273 -1.0619  0.6178
   8323SM  H19G11131   5.738   3.756   5.242  1.3875 -0.9883  0.1485
   8323SM  C20F11132   5.851   3.616   5.105  0.3515 -0.2511 -1.2293
   8323SM  H20F11133   5.863   3.542   5.187 -1.6006 -0.6415 -1.2548
   8323SM  H20G11134   5.938   3.686   5.106  0.7024 -0.6545  0.6113
   8323SM  C21F11135   5.853   3.557   4.965  0.3715  0.4048 -0.5408
   8323SM  H21F11136   5.814   3.631   4.891 -0.5778  0.2135 -0.2491
   8323SM  H21G11137   5.784   3.471   4.953 -1.9654  1.8946  1.2820
   8323SM  C22F11138   5.993   3.505   4.926  0.8243  0.2059 -0.5463
   8323SM  H22F11139   6.035   3.428   4.993  1.3878 -0.4208 -1.5996
   8323SM  H22G11140   6.061   3.593   4.920  0.7750  0.2175 -0.9446
   8323SM  C23F11141   5.984   3.453   4.789  0.0725 -0.2893  0.2266
   8323SM  H23F11142   5.916   3.365   4.778  1.1704 -1.0536 -0.6369
   8323SM  H23G11143   6.087   3.428   4.758 -0.8614 -2.2613 -1.5193
   8323SM  H23H11144   5.945   3.533   4.723  2.9454  2.5988  1.7582
   8423SM     N11145   4.851   2.745   2.311  0.8797 -0.1959 -0.4441
   8423SM   C1511146   4.745   2.643   2.276  0.7098  0.2011 -0.2444
   8423SM  H15A11147   4.731   2.638   2.169  1.0625 -0.4538 -0.2646
   8423SM  H15B11148   4.648   2.667   2.318 -0.0689 -1.3514 -1.0153
   8423SM  H15C11149   4.787   2.547   2.302  2.4576  1.2081  0.8000
   8423SM   C1411150   4.989   2.690   2.280 -0.0211 -0.4430 -0.5987
   8423SM  H14A11151   5.067   2.744   2.332 -1.5986  1.1081  0.2848
   8423SM  H14B11152   5.010   2.690   2.175  0.9638  1.5633 -0.4598
   8423SM  H14C11153   5.002   2.591   2.320 -2.4908  0.0803  1.8540
   8423SM   C1311154   4.822   2.866   2.235  0.3047  0.0260 -0.1850
   8423SM  H13A11155   4.755   2.930   2.291  0.9681  1.1207 -0.6096
   8423SM  H13B11156   4.784   2.845   2.137 -1.4798 -1.4617  0.7650
   8423SM  H13C11157   4.915   2.917   2.214 -0.0851  0.2655 -1.4349
   8423SM   C1211158   4.848   2.769   2.466  0.3473  0.9246  0.2764
   8423SM  H12A11159   4.754   2.811   2.501  0.6990  1.5534  0.4803
   8423SM  H12B11160   4.936   2.824   2.497  3.3373 -2.9194 -0.6688
   8423SM   C1111161   4.869   2.645   2.560  0.8069 -0.6904 -0.1488
   8423SM  H11A11162   4.976   2.620   2.548  0.9937  0.8377 -2.1091
   8423SM  H11B11163   4.812   2.560   2.517 -0.5578 -0.1115  0.4123
   8423SM     P11164   4.678   2.678   2.722 -0.1670  0.2766  0.1331
   8423SM   O1311165   4.619   2.800   2.672 -0.3332 -0.1453 -0.0939
   8423SM   O1411166   4.620   2.549   2.681 -0.6469  0.0690  0.0527
   8423SM   O1111167   4.675   2.678   2.878 -0.5191 -1.1143  0.8818
   8423SM   O1211168   4.824   2.670   2.690 -0.2065  0.1337 -0.6463
   8423SM   C1S11169   4.761   2.782   2.947  0.0260  0.0222  0.3452
   8423SM   H1S11170   4.741   2.887   2.918 -0.6327 -0.9359 -3.0698
   8423SM   H1T11171   4.867   2.768   2.914 -0.3650 -0.6469 -0.6586
   8423SM    NF11172   4.910   2.760   3.147 -0.6601  0.3239  0.4050
   8423SM   HNF11173   4.964   2.682   3.175 -0.2752  0.8206  1.0827
   8423SM   C2S11174   4.777   2.747   3.097  0.1386  0.2438 -0.3885
   8423SM   H2S11175   4.718   2.815   3.163 -0.7598 -1.9629  1.2151
   8423SM   C3S11176   4.717   2.606   3.127  0.7302  0.0180 -0.5421
   8423SM   H3S11177   4.776   2.527   3.074 -0.4091 -0.7572 -0.6866
   8423SM    O311178   4.581   2.594   3.092  0.0033 -0.0626 -0.1575
   8423SM   HO311179   4.598   2.614   3.000  0.1374  2.2707  0.3262
   8423SM   C4S11180   4.737   2.586   3.273 -0.3051  0.4385 -0.1329
   8423SM   H4S11181   4.729   2.679   3.331  0.1765 -0.0664  0.7732
   8423SM   C5S11182   4.766   2.464   3.334 -0.5517  0.1886 -0.1673
   8423SM   H5S11183   4.767   2.366   3.283 -0.3018  1.3345 -2.4570
   8423SM   C6S11184   4.792   2.458   3.485 -0.1256  0.5124 -0.3760
   8423SM   H6S11185   4.831   2.362   3.523 -2.0550 -0.4320 -0.6700
   8423SM   H6T11186   4.693   2.466   3.533 -0.2188 -0.5991 -0.3642
   8423SM   C7S11187   4.883   2.560   3.557 -0.5268  0.2082 -0.8706
   8423SM   H7S11188   4.869   2.669   3.540  0.1120  0.8220  1.9444
   8423SM   H7T11189   4.981   2.548   3.507  0.6693  1.8107  0.9162
   8423SM   C8S11190   4.890   2.539   3.705  0.2178  0.4107 -0.4434
   8423SM   H8S11191   4.981   2.588   3.745  0.8240 -0.4694 -0.7251
   8423SM   H8T11192   4.902   2.430   3.722  1.1514  0.4257 -0.9486
   8423SM   C9S11193   4.773   2.601   3.789  0.9937  0.5343 -0.6071
   8423SM   H9S11194   4.678   2.546   3.772  2.5990 -2.1082 -1.4619
   8423SM   H9T11195   4.746   2.703   3.754  1.2838  0.8148 -0.0202
   8423SM  C10S11196   4.812   2.595   3.941  0.4399  0.1406  0.2012
   8423SM  H10S11197   4.915   2.632   3.958  1.2026 -0.6356 -2.3862
   8423SM  H10T11198   4.801   2.488   3.967 -0.0295 -0.7367 -3.1601
   8423SM  C11S11199   4.718   2.672   4.037  0.2445  0.2605 -0.2288
   8423SM  H11S11200   4.615   2.637   4.016  0.0193 -0.0309  1.2242
   8423SM  H11T11201   4.728   2.779   4.011  1.5209 -0.0888 -1.3026
   8423SM  C12S11202   4.752   2.652   4.185 -0.3360 -0.5586  0.2311
   8423SM  H12S11203   4.856   2.685   4.205 -0.9701  2.3569 -0.8767
   8423SM  H12T11204   4.754   2.541   4.199 -3.1556 -0.7407 -0.2065
   8423SM  C13S11205   4.644   2.688   4.286 -0.4687  0.4119 -0.1283
   8423SM  H13S11206   4.550   2.638   4.254 -1.4548  1.1821  1.4553
   8423SM  H13T11207   4.632   2.797   4.275 -0.3346  0.1863 -3.6460
   8423SM  C14S11208   4.677   2.656   4.431 -0.1239 -0.6249 -0.0681
   8423SM  H14S11209   4.776   2.690   4.467 -0.0056 -0.6086 -0.4091
   8423SM  H14T11210   4.681   2.545   4.435 -1.6837 -0.7132 -0.2545
   8423SM  C15S11211   4.572   2.712   4.529 -0.6029  0.5773  0.1969
   8423SM  H15S11212   4.478   2.653   4.526 -0.7118  0.7671 -1.3254
   8423SM  H15T11213   4.545   2.816   4.500  2.2100  2.2152  2.8572
   8423SM  C16S11214   4.609   2.715   4.675 -0.1834 -0.5667  0.1444
   8423SM  H16S11215   4.707   2.764   4.689  1.2772 -2.8672 -1.3211
   8423SM  H16T11216   4.630   2.608   4.696 -1.7314 -1.4824 -2.4826
   8423SM  C17S11217   4.499   2.777   4.765  0.2318  0.1286 -0.0593
   8423SM  H17S11218   4.405   2.718   4.752  0.9905 -1.1701  0.1354
   8423SM  H17T11219   4.478   2.882   4.737 -0.3741  0.4292  1.3944
   8423SM  C18S11220   4.533   2.760   4.916  0.1278  0.6833 -0.2611
   8423SM  H18S11221   4.457   2.804   4.985 -1.0956 -1.7384  0.0300
   8423SM  H18T11222   4.633   2.807   4.922  0.5236 -0.1394 -0.3812
   8423SM  H18U11223   4.541   2.651   4.931  0.3522  0.6577 -0.5684
   8423SM   C1F11224   4.959   2.880   3.152 -0.4849 -0.1423  0.3107
   8423SM    OF11225   4.888   2.979   3.143 -0.0001 -0.0457  0.6169
   8423SM   C2F11226   5.113   2.896   3.168  0.0780 -0.4898  0.3130
   8423SM   H2F11227   5.162   2.944   3.080  0.3802 -2.5300 -0.6818
   8423SM   H2G11228   5.156   2.794   3.167  1.4436  0.0512 -0.5812
   8423SM   C3F11229   5.147   2.959   3.302  0.7539 -0.0606 -0.4254
   8423SM   H3F11230   5.097   3.058   3.306  1.3998  0.3200 -1.4943
   8423SM   H3G11231   5.256   2.976   3.304  0.9093 -1.0513  0.2560
   8423SM   C4F11232   5.100   2.877   3.425  0.7702 -0.0578  0.4451
   8423SM   H4F11233   5.090   2.770   3.400  1.1559 -0.7520  2.9557
   8423SM   H4G11234   4.995   2.902   3.453  0.2021 -1.7445 -0.0793
   8423SM   C5F11235   5.179   2.900   3.553 -0.4902  0.4066  0.2424
   8423SM   H5F11236   5.181   3.009   3.575  0.1771  0.8020 -1.6017
   8423SM   H5G11237   5.286   2.876   3.534 -0.8577 -0.0606 -1.4397
   8423SM   C6F11238   5.121   2.831   3.672 -0.2063 -0.4292  0.1158
   8423SM   H6F11239   5.152   2.725   3.663 -1.8713 -1.2835  2.9557
   8423SM   H6G11240   5.010   2.823   3.667 -0.4112  2.4853 -2.3330
   8423SM   C7F11241   5.181   2.899   3.802  0.2969  0.4980 -0.7505
   8423SM   H7F11242   5.174   3.009   3.794  1.0615  0.5812 -0.3740
   8423SM   H7G11243   5.284   2.866   3.829 -1.3710 -1.4699  4.3879
   8423SM   C8F11244   5.101   2.853   3.929  0.3066  0.1852  0.9582
   8423SM   H8F11245   5.107   2.743   3.946  1.2473  0.3929  2.0606
   8423SM   H8G11246   4.997   2.881   3.905  0.7403  0.4077 -0.8329
   8423SM   C9F11247   5.136   2.926   4.055 -0.5878 -0.2132 -0.1548
   8423SM   H9F11248   5.104   3.032   4.050  0.1004 -0.0762 -2.0102
   8423SM   H9G11249   5.246   2.925   4.064 -0.4022 -0.6391 -2.1701
   8423SM  C10F11250   5.072   2.871   4.180 -0.2693  0.4996  0.8823
   8423SM  H10F11251   5.110   2.772   4.211  2.4056  1.1337 -0.1203
   8423SM  H10G11252   4.963   2.876   4.159  0.1717  2.0039 -1.3083
   8423SM  C11F11253   5.087   2.967   4.298 -0.0934  0.1254 -0.1370
   8423SM  H11F11254   5.074   3.075   4.275  1.4730  1.1133  3.0324
   8423SM  H11G11255   5.196   2.968   4.319 -0.2890  0.4909  0.9291
   8423SM  C12F11256   4.995   2.915   4.410 -0.0342  0.4272  0.2991
   8423SM  H12F11257   5.009   2.808   4.437 -0.2485  0.5059  0.7333
   8423SM  H12G11258   4.895   2.909   4.363  0.4500  1.2382 -0.8707
   8423SM  C13F11259   4.982   3.014   4.528  0.3248  0.5386  0.1081
   8423SM  H13F11260   4.962   3.115   4.487  0.8037  0.2012 -0.9892
   8423SM  H13G11261   5.081   3.021   4.578 -0.1301  2.1525  0.8640
   8423SM  C14F11262   4.871   2.967   4.627 -0.2326 -0.1355  0.9671
   8423SM  H14F11263   4.888   2.863   4.662 -0.4476 -1.1077 -1.5796
   8423SM  H14G11264   4.773   2.971   4.575  0.6939  0.0203 -0.8657
   8423SM  C15F11265   4.851   3.053   4.752  0.0036 -0.6490  0.1691
   8423SM  H15F11266   4.759   3.025   4.809  0.6417  1.2293  2.2708
   8423SM  H15G11267   4.833   3.159   4.724 -0.1934 -0.2523  1.6871
   8423SM  C16F11268   4.961   3.045   4.863 -0.0319 -0.1149 -0.0616
   8423SM  H16F11269   4.947   3.128   4.935 -2.0181  1.4583 -2.0950
   8423SM  H16G11270   5.057   3.064   4.810 -0.4686 -1.2046 -1.3124
   8423SM  C17F11271   4.980   2.904   4.920 -0.0731 -0.2611 -0.4913
   8423SM  H17F11272   5.032   2.831   4.854 -0.4060 -0.9208 -0.0367
   8423SM  H17G11273   4.879   2.861   4.937  0.3435 -0.2781  2.5307
   8423SM  C18F11274   5.066   2.882   5.047  0.4964  0.6636 -0.0849
   8423SM  H18F11275   5.165   2.931   5.039  0.5337  1.1640  2.4631
   8423SM  H18G11276   5.092   2.776   5.066 -0.2773  0.2626 -1.1262
   8423SM  C19F11277   5.002   2.944   5.177 -0.3126 -0.1245  0.0494
   8423SM  H19F11278   4.896   2.912   5.164 -0.2903  0.2685 -1.2319
   8423SM  H19G11279   5.007   3.055   5.174 -1.4706 -0.0755 -2.3720
   8423SM  C20F11280   5.075   2.886   5.297 -0.4231  0.1692 -0.1657
   8423SM  H20F11281   5.176   2.932   5.290  0.1691 -0.9869  0.5747
   8423SM  H20G11282   5.080   2.775   5.291 -1.3029  0.1116  0.0860
   8423SM  C21F11283   5.001   2.918   5.429 -0.4105 -0.4738 -0.1955
   8423SM  H21F11284   4.991   3.028   5.443  0.4733 -0.5379  1.1126
   8423SM  H21G11285   5.067   2.888   5.513  0.5044  1.2903 -0.2352
   8423SM  C22F11286   4.860   2.860   5.430  0.1129 -0.7458 -0.6248
   8423SM  H22F11287   4.858   2.749   5.434  1.9540 -0.9359 -2.9231
   8423SM  H22G11288   4.808   2.894   5.338  0.6355 -0.2541 -0.7390
   8423SM  C23F11289   4.795   2.914   5.563  0.5665  0.5035 -0.5052
   8423SM  H23F11290   4.767   3.020   5.549  2.3531  1.0937  0.1718
   8423SM  H23G11291   4.866   2.902   5.647  0.8919  3.8296 -0.1645
   8423SM  H23H11292   4.705   2.850   5.579  0.5252  0.8534  0.8453
   8523SM     N11293   6.908   3.210   2.987  0.4804 -0.0872 -0.0818
   8523SM   C1511294   6.787   3.178   3.065 -0.1578  0.5909  0.1436
   8523SM  H15A11295   6.786   3.076   3.098  0.9751  0.2718 -0.7589
   8523SM  H15B11296   6.694   3.190   3.011  0.4503  0.8666 -0.8838
   8523SM  H15C11297   6.789   3.243   3.151  1.4874  1.2696 -0.3609
   8523SM   C1411298   6.914   3.122   2.868  0.2003  0.7795  0.2848
   8523SM  H14A11299   6.943   3.023   2.901  1.1916  0.7366 -0.6862
   8523SM  H14B11300   6.990   3.145   2.796 -0.4539  1.4803 -0.1970
   8523SM  H14C11301   6.819   3.128   2.817  0.6207  0.5466 -0.5277
   8523SM   C1311302   6.890   3.355   2.953 -0.5374  0.2643  0.4722
   8523SM  H13A11303   6.961   3.377   2.875 -2.0374 -2.4275 -1.8512
   8523SM  H13B11304   6.911   3.408   3.045 -0.6342  1.0841  0.0372
   8523SM  H13C11305   6.791   3.379   2.917  0.4794  3.3657 -0.5875
   8523SM   C1211306   7.043   3.196   3.063  0.5371 -0.1837 -0.5280
   8523SM  H12A11307   7.046   3.095   3.100 -0.8996 -0.3828 -0.8965
   8523SM  H12B11308   7.043   3.264   3.147  0.1499  1.0548 -1.4956
   8523SM   C1111309   7.177   3.215   2.979  1.0343  0.9357  0.3390
   8523SM  H11A11310   7.193   3.137   2.901  0.4976  0.1491  0.9997
   8523SM  H11B11311   7.262   3.192   3.046  1.3844 -1.7456 -0.8964
   8523SM     P11312   7.246   3.458   3.025 -0.5570  0.4279 -0.5277
   8523SM   O1311313   7.396   3.448   3.027 -0.1704  0.1646 -0.1813
   8523SM   O1411314   7.183   3.589   2.992 -0.0964 -0.4003 -0.4303
   8523SM   O1111315   7.188   3.411   3.166 -0.1455 -0.4566  0.0486
   8523SM   O1211316   7.191   3.346   2.924  0.2479  0.0156 -0.8340
   8523SM   C1S11317   7.237   3.460   3.289 -0.2859 -0.3271 -1.1938
   8523SM   H1S11318   7.338   3.504   3.274  0.5610 -1.7601 -0.0248
   8523SM   H1T11319   7.255   3.373   3.356  1.8834  1.4809  0.7399
   8523SM    NF11320   7.187   3.539   3.510 -0.0418  0.1968  0.0267
   8523SM   HNF11321   7.130   3.483   3.570  2.0828 -2.2202 -0.0072
   8523SM   C2S11322   7.148   3.555   3.372 -0.4596 -0.0597 -0.0658
   8523SM   H2S11323   7.163   3.657   3.332 -0.7344 -0.1338 -0.3616
   8523SM   C3S11324   7.002   3.514   3.352  0.3927 -0.1401  1.1416
   8523SM   H3S11325   6.991   3.410   3.391  0.9891 -1.4060 -1.7590
   8523SM    O311326   6.953   3.526   3.217 -0.3306  0.6756  0.0038
   8523SM   HO311327   7.032   3.528   3.164 -1.3906 -2.1479 -1.9093
   8523SM   C4S11328   6.907   3.605   3.438  0.3093  0.1049 -0.3081
   8523SM   H4S11329   6.853   3.557   3.520  0.4953  0.6230  0.1217
   8523SM   C5S11330   6.881   3.733   3.414 -0.3433 -0.0765 -0.3607
   8523SM   H5S11331   6.929   3.785   3.330  0.4364 -1.0147 -0.5000
   8523SM   C6S11332   6.787   3.815   3.502  0.1929 -0.2202 -0.0084
   8523SM   H6S11333   6.685   3.819   3.459 -0.3315 -0.9425  1.1349
   8523SM   H6T11334   6.823   3.920   3.514  2.0564 -1.0004  1.7304
   8523SM   C7S11335   6.766   3.762   3.641 -0.0139  0.0944 -0.5830
   8523SM   H7S11336   6.864   3.758   3.693 -0.9468  0.3139  1.2814
   8523SM   H7T11337   6.725   3.659   3.631  0.3011 -0.1645  0.6785
   8523SM   C8S11338   6.675   3.858   3.722  0.3209  0.3105 -0.0991
   8523SM   H8S11339   6.581   3.872   3.666  0.1042  1.7446  0.5874
   8523SM   H8T11340   6.720   3.958   3.708 -2.8897  1.5707 -2.5522
   8523SM   C9S11341   6.642   3.808   3.862 -1.1968  0.2842 -0.1853
   8523SM   H9S11342   6.729   3.815   3.931 -1.4320  2.7983 -0.0407
   8523SM   H9T11343   6.614   3.701   3.852 -0.3682  0.2386 -2.8474
   8523SM  C10S11344   6.529   3.892   3.931  0.3724 -0.4296 -0.8813
   8523SM  H10S11345   6.445   3.894   3.858 -1.2579  0.3507  0.9222
   8523SM  H10T11346   6.558   3.998   3.945 -2.5969  0.4309 -0.4128
   8523SM  C11S11347   6.503   3.827   4.075  0.0858  0.7042 -0.1484
   8523SM  H11S11348   6.589   3.801   4.140 -0.4909  0.3754  0.4971
   8523SM  H11T11349   6.475   3.724   4.045  3.0890 -0.6413  1.2743
   8523SM  C12S11350   6.378   3.881   4.159 -0.5070  0.6897  0.4452
   8523SM  H12S11351   6.307   3.912   4.079  1.8367  1.9688 -1.2718
   8523SM  H12T11352   6.410   3.967   4.222  1.3082 -0.7400  1.5530
   8523SM  C13S11353   6.320   3.787   4.263 -0.1386  0.2979  0.2133
   8523SM  H13S11354   6.388   3.759   4.346 -2.7826  0.5726  2.6083
   8523SM  H13T11355   6.289   3.692   4.213  0.3048  0.4645 -0.4046
   8523SM  C14S11356   6.207   3.859   4.338 -0.0224 -0.0262  0.3845
   8523SM  H14S11357   6.116   3.796   4.349 -1.3252  1.8099  0.6242
   8523SM  H14T11358   6.162   3.941   4.278  0.4932 -0.5650 -0.7794
   8523SM  C15S11359   6.262   3.907   4.476 -0.7909  0.0455  0.0632
   8523SM  H15S11360   6.360   3.958   4.464 -0.3189 -0.8129  0.2478
   8523SM  H15T11361   6.272   3.822   4.547  1.8942  0.2364 -0.0012
   8523SM  C16S11362   6.179   4.011   4.550  0.7752  0.2439  0.4599
   8523SM  H16S11363   6.218   4.030   4.652 -1.4035 -0.5757  1.5053
   8523SM  H16T11364   6.077   3.973   4.571  0.3109  2.0340  1.6274
   8523SM  C17S11365   6.165   4.139   4.468 -0.5828  0.5945 -0.7457
   8523SM  H17S11366   6.132   4.122   4.363  1.8945 -1.4015 -1.3062
   8523SM  H17T11367   6.264   4.184   4.445 -1.1746  1.6162 -1.4089
   8523SM  C18S11368   6.094   4.248   4.544 -0.6477  0.4631  0.4061
   8523SM  H18S11369   6.142   4.282   4.638 -0.1062 -2.0973  1.1268
   8523SM  H18T11370   5.990   4.213   4.560  0.0525 -1.9433  0.1898
   8523SM  H18U11371   6.078   4.329   4.470 -0.4891  1.4928  1.4665
   8523SM   C1F11372   7.300   3.584   3.564 -0.2722 -0.1970 -0.4813
   8523SM    OF11373   7.377   3.666   3.510 -0.1155 -0.0744 -0.1759
   8523SM   C2F11374   7.327   3.543   3.704 -0.3920  0.4489  0.1378
   8523SM   H2F11375   7.358   3.436   3.706  1.5604  0.9952  1.6315
   8523SM   H2G11376   7.235   3.550   3.767  0.9246 -0.7913  2.3488
   8523SM   C3F11377   7.430   3.641   3.769  0.2871  0.3034 -0.6787
   8523SM   H3F11378   7.403   3.749   3.773  1.0331  0.5037  3.6283
   8523SM   H3G11379   7.521   3.629   3.707  1.1414 -1.6535  0.8629
   8523SM   C4F11380   7.468   3.604   3.908  0.4151 -0.4604 -0.1032
   8523SM   H4F11381   7.566   3.646   3.938 -1.4351  4.2108  0.2750
   8523SM   H4G11382   7.481   3.494   3.910 -1.9755 -0.8012  1.3994
   8523SM   C5F11383   7.366   3.654   4.017 -1.1112 -0.1102 -0.0139
   8523SM   H5F11384   7.270   3.608   3.983 -0.8802  0.0917 -0.9803
   8523SM   H5G11385   7.357   3.764   4.012  1.3151  0.1479  0.3952
   8523SM   C6F11386   7.402   3.609   4.156  0.5686 -0.0160  0.5703
   8523SM   H6F11387   7.507   3.635   4.178 -0.2906  3.4596  1.1736
   8523SM   H6G11388   7.390   3.498   4.159 -0.8651 -0.0131 -1.9837
   8523SM   C7F11389   7.316   3.682   4.256 -0.0474 -0.2264  0.2954
   8523SM   H7F11390   7.221   3.625   4.253  1.6713 -3.2605 -0.7926
   8523SM   H7G11391   7.316   3.788   4.223  5.7950 -0.1650 -0.5739
   8523SM   C8F11392   7.364   3.678   4.401  0.4144  0.2101  0.3690
   8523SM   H8F11393   7.454   3.744   4.405  0.6311 -0.0404 -0.1423
   8523SM   H8G11394   7.387   3.570   4.416  1.6694  0.1838 -1.3920
   8523SM   C9F11395   7.260   3.729   4.498  0.0952  0.0923  0.3000
   8523SM   H9F11396   7.177   3.655   4.505  0.3399 -0.0936  1.6073
   8523SM   H9G11397   7.233   3.835   4.478  1.2780  0.3534  0.0214
   8523SM  C10F11398   7.309   3.724   4.643 -0.1363 -0.0400 -0.0002
   8523SM  H10F11399   7.226   3.736   4.715 -1.0226  1.4404 -1.1959
   8523SM  H10G11400   7.400   3.787   4.651  1.3609 -2.1036  0.0142
   8523SM  C11F11401   7.361   3.587   4.684 -0.2676  0.2588  0.0961
   8523SM  H11F11402   7.413   3.596   4.781  1.3970 -1.4627 -0.5600
   8523SM  H11G11403   7.442   3.562   4.612  0.3011  2.1345  0.0464
   8523SM  C12F11404   7.259   3.471   4.689  0.0969 -0.5507  0.4679
   8523SM  H12F11405   7.305   3.370   4.689  0.1144 -0.5441  0.1117
   8523SM  H12G11406   7.210   3.461   4.589  0.6812 -0.3115  0.1536
   8523SM  C13F11407   7.148   3.485   4.795  0.3308  0.5307  0.2735
   8523SM  H13F11408   7.050   3.485   4.744  1.0806  1.2240 -1.2445
   8523SM  H13G11409   7.153   3.591   4.828  0.7252  1.2527 -1.9328
   8523SM  C14F11410   7.148   3.366   4.891 -0.1184 -0.0160  0.0044
   8523SM  H14F11411   7.249   3.365   4.937 -0.3741 -0.6061  0.5709
   8523SM  H14G11412   7.132   3.279   4.823 -0.3956 -1.0564  1.3427
   8523SM  C15F11413   7.038   3.371   4.991  0.5806  0.0322 -0.0151
   8523SM  H15F11414   6.953   3.370   4.920  1.6162 -1.8673 -1.3311
   8523SM  H15G11415   7.036   3.464   5.051 -1.4045 -0.3366  0.5533
   8523SM  C16F11416   7.029   3.246   5.084 -0.2089 -0.2600  0.0986
   8523SM  H16F11417   7.118   3.265   5.148 -1.9752  0.5027  2.4964
   8523SM  H16G11418   7.055   3.159   5.021  0.5976  0.7975 -1.0581
   8523SM  C17F11419   6.894   3.226   5.157  0.6107 -0.2313 -0.0888
   8523SM  H17F11420   6.911   3.134   5.216  0.6807  0.2664  0.6902
   8523SM  H17G11421   6.827   3.210   5.070  1.5047 -0.2809 -0.7888
   8523SM  C18F11422   6.853   3.339   5.252  0.9769  0.4560 -0.4947
   8523SM  H18F11423   6.862   3.438   5.202 -0.9304 -0.1650 -2.1997
   8523SM  H18G11424   6.929   3.350   5.333  1.7035  0.2503 -1.1342
   8523SM  C19F11425   6.712   3.323   5.306  0.0416  0.3309  0.5854
   8523SM  H19F11426   6.694   3.230   5.365 -0.7883  2.3041  3.6987
   8523SM  H19G11427   6.642   3.322   5.219 -0.8557 -0.7013  1.2846
   8523SM  C20F11428   6.670   3.437   5.405 -0.2423 -0.0314  0.3274
   8523SM  H20F11429   6.648   3.530   5.348 -2.9362  0.8180  2.5437
   8523SM  H20G11430   6.765   3.459   5.457 -0.7857  0.1115  1.2763
   8523SM  C21F11431   6.570   3.403   5.510  0.0470  0.5725  0.5116
   8523SM  H21F11432   6.478   3.376   5.454  0.8258 -0.3665 -0.3396
   8523SM  H21G11433   6.546   3.498   5.564  0.7011  0.2625  1.3720
   8523SM  C22F11434   6.614   3.289   5.600 -0.0300  0.4154  0.9339
   8523SM  H22F11435   6.712   3.317   5.642  1.0654 -0.4250 -0.9245
   8523SM  H22G11436   6.618   3.196   5.539 -1.5788 -0.4958  2.1538
   8523SM  C23F11437   6.507   3.267   5.706  0.1624 -0.2075  0.7986
   8523SM  H23F11438   6.495   3.362   5.763 -0.0418  0.7835 -0.8454
   8523SM  H23G11439   6.538   3.184   5.773 -1.8157 -0.7074  1.1569
   8523SM  H23H11440   6.410   3.251   5.654  1.4728 -2.1645 -1.1972
   8623SM     N11441   3.169   3.697   2.867 -0.5886 -0.3858  0.0730
   8623SM   C1511442   3.251   3.818   2.858  0.2767 -0.3625 -0.4607
   8623SM  H15A11443   3.307   3.843   2.947  0.7971 -1.3246 -0.5011
   8623SM  H15B11444   3.185   3.895   2.821  0.1104 -1.4414 -2.5788
   8623SM  H15C11445   3.338   3.811   2.794  1.1278 -0.2452  0.6372
   8623SM   C1411446   3.076   3.710   2.979 -1.0224 -0.2813  0.4774
   8623SM  H14A11447   3.122   3.736   3.073  0.5255  1.2799 -0.6287
   8623SM  H14B11448   3.038   3.611   3.001 -0.4546 -0.9003 -1.1726
   8623SM  H14C11449   3.003   3.789   2.971 -0.0547  0.6871  0.9717
   8623SM   C1311450   3.097   3.677   2.739 -0.1526 -0.7558  0.4524
   8623SM  H13A11451   3.035   3.763   2.717  1.7431  0.8220  1.0077
   8623SM  H13B11452   3.033   3.590   2.744 -2.2152  0.7092  1.3247
   8623SM  H13C11453   3.166   3.661   2.658 -1.4407 -0.5872 -0.7320
   8623SM   C1211454   3.271   3.580   2.899 -0.0051 -0.5898  0.0912
   8623SM  H12A11455   3.349   3.615   2.964 -1.9928  1.3872  1.5764
   8623SM  H12B11456   3.313   3.563   2.801  0.8000  0.7345  0.1879
   8623SM   C1111457   3.215   3.447   2.939  0.0151 -0.4085 -0.4007
   8623SM  H11A11458   3.177   3.458   3.042  1.4633  3.8405 -0.1280
   8623SM  H11B11459   3.285   3.362   2.959  1.6072  0.9581  0.1056
   8623SM     P11460   2.984   3.329   2.902 -0.1281 -0.0991 -0.4414
   8623SM   O1311461   2.923   3.418   2.997 -0.5508 -0.2997  0.3604
   8623SM   O1411462   2.910   3.270   2.785 -0.3820 -0.3760  0.4084
   8623SM   O1111463   3.049   3.206   2.976 -0.2804  0.4237 -0.0549
   8623SM   O1211464   3.108   3.406   2.846  0.1358  0.0341 -0.3911
   8623SM   C1S11465   2.974   3.148   3.077 -0.1713 -0.4640 -0.2263
   8623SM   H1S11466   2.869   3.130   3.043  0.0437  0.7228 -1.6137
   8623SM   H1T11467   2.977   3.205   3.172  0.3440 -2.1956  0.8240
   8623SM    NF11468   2.963   2.949   3.227  0.3439 -0.8590  0.6705
   8623SM   HNF11469   3.008   2.978   3.312  0.2117  1.5449 -0.0055
   8623SM   C2S11470   3.030   3.005   3.107 -0.3006  0.0290  0.2003
   8623SM   H2S11471   3.018   2.938   3.019 -1.9830 -1.3107  1.3965
   8623SM   C3S11472   3.190   3.002   3.120  0.2022  0.0446 -0.3454
   8623SM   H3S11473   3.216   3.078   3.197  0.0579 -0.6058  0.3549
   8623SM    O311474   3.258   3.039   2.997  0.1848 -0.2581 -0.1428
   8623SM   HO311475   3.190   3.088   2.949  0.3375 -1.0920 -1.2619
   8623SM   C4S11476   3.234   2.866   3.165  0.1248 -0.0992  0.4496
   8623SM   H4S11477   3.230   2.799   3.078 -1.6410 -1.1909  1.3290
   8623SM   C5S11478   3.293   2.824   3.277 -0.2251 -0.6578  0.1496
   8623SM   H5S11479   3.304   2.900   3.355 -1.0437  0.1437 -0.4864
   8623SM   C6S11480   3.328   2.681   3.297 -0.1401  0.2746  0.1204
   8623SM   H6S11481   3.432   2.672   3.335  0.7466  0.0970 -2.1772
   8623SM   H6T11482   3.328   2.617   3.206  1.4152  1.2385 -0.5947
   8623SM   C7S11483   3.233   2.615   3.395  0.7057  0.3029 -0.1004
   8623SM   H7S11484   3.130   2.620   3.353  0.6792 -0.5893 -0.1538
   8623SM   H7T11485   3.223   2.681   3.484  0.0182  0.3832 -0.2303
   8623SM   C8S11486   3.267   2.472   3.441 -0.1189 -0.1478  0.3288
   8623SM   H8S11487   3.271   2.403   3.354  1.0549  1.1424 -0.7097
   8623SM   H8T11488   3.195   2.433   3.515 -2.8171 -1.4779 -2.7507
   8623SM   C9S11489   3.403   2.459   3.517  0.0790  0.6282  0.3870
   8623SM   H9S11490   3.489   2.493   3.456  0.2313  0.7222  0.6537
   8623SM   H9T11491   3.414   2.355   3.555 -0.6909  1.0507  1.8345
   8623SM  C10S11492   3.418   2.555   3.629  0.3885  0.2321  0.8436
   8623SM  H10S11493   3.430   2.661   3.599 -0.9107  0.3563  0.7262
   8623SM  H10T11494   3.517   2.542   3.679  0.0410 -1.7992  1.0675
   8623SM  C11S11495   3.310   2.547   3.737 -0.7075 -0.1873 -0.4475
   8623SM  H11S11496   3.205   2.560   3.701 -0.2936  1.4328 -1.1788
   8623SM  H11T11497   3.340   2.620   3.815 -0.9713 -0.2761 -0.2627
   8623SM  C12S11498   3.310   2.407   3.798 -0.1870  0.5576  0.0218
   8623SM  H12S11499   3.417   2.395   3.826 -0.9315 -1.3872  2.3995
   8623SM  H12T11500   3.282   2.327   3.727 -0.5755 -1.1426  1.9880
   8623SM  C13S11501   3.223   2.384   3.920  0.3987  0.2285  0.1896
   8623SM  H13S11502   3.244   2.461   3.998 -1.9313  3.6603 -2.2344
   8623SM  H13T11503   3.247   2.284   3.962 -0.0184 -0.2249 -0.6263
   8623SM  C14S11504   3.077   2.378   3.884 -0.4335 -0.1381 -0.3971
   8623SM  H14S11505   3.053   2.319   3.793 -0.6771  0.6298 -0.8398
   8623SM  H14T11506   3.049   2.482   3.854  0.2592 -0.0513 -0.7451
   8623SM  C15S11507   2.998   2.332   4.003  0.1386 -0.5224 -0.3275
   8623SM  H15S11508   3.036   2.381   4.095 -1.8202  0.7492 -0.1308
   8623SM  H15T11509   3.024   2.225   4.018 -2.0124 -1.1733 -0.8476
   8623SM  C16S11510   2.844   2.340   3.998 -0.2520  0.2306  0.2104
   8623SM  H16S11511   2.803   2.306   4.095 -0.3940  2.4754  0.9952
   8623SM  H16T11512   2.800   2.283   3.914  0.7026 -1.2410  0.6560
   8623SM  C17S11513   2.781   2.475   3.985  0.4750  0.7741 -0.0874
   8623SM  H17S11514   2.819   2.529   3.895  0.2841  0.0140 -0.6350
   8623SM  H17T11515   2.796   2.541   4.073  0.5919  0.0646  0.4273
   8623SM  C18S11516   2.624   2.452   3.960 -0.2294 -0.2633  0.0878
   8623SM  H18S11517   2.577   2.553   3.947  2.2222  1.0072  0.5670
   8623SM  H18T11518   2.576   2.402   4.046  3.4299 -0.6952  2.0291
   8623SM  H18U11519   2.606   2.388   3.871 -0.6284 -0.3161  0.2019
   8623SM   C1F11520   2.828   2.919   3.222  0.0423  0.4966  0.4830
   8623SM    OF11521   2.774   2.885   3.116 -0.0879  0.2059 -0.2559
   8623SM   C2F11522   2.757   2.937   3.347  0.1423  0.5155  0.4968
   8623SM   H2F11523   2.828   2.974   3.424 -0.7372 -0.6628  1.9518
   8623SM   H2G11524   2.714   2.845   3.393 -1.8656 -0.3653 -2.8125
   8623SM   C3F11525   2.628   3.021   3.327  0.3381 -0.5685 -0.0871
   8623SM   H3F11526   2.572   2.988   3.238 -0.6085  3.4215 -1.1729
   8623SM   H3G11527   2.662   3.126   3.309  0.1625 -0.3551  0.7652
   8623SM   C4F11528   2.534   3.011   3.452  0.5726  0.6669 -0.4416
   8623SM   H4F11529   2.511   2.903   3.465  2.8286  0.2571  0.4558
   8623SM   H4G11530   2.440   3.071   3.450  0.5509  0.6952  0.9645
   8623SM   C5F11531   2.601   3.050   3.586 -0.1162 -0.6308 -0.6153
   8623SM   H5F11532   2.676   3.132   3.576 -0.4900 -0.2906 -0.6376
   8623SM   H5G11533   2.662   2.961   3.612  1.5682  0.8031  0.5989
   8623SM   C6F11534   2.502   3.073   3.696  0.2036  0.3013 -0.1184
   8623SM   H6F11535   2.418   3.002   3.678 -0.7789  1.5013 -0.4034
   8623SM   H6G11536   2.468   3.179   3.694  0.4074  0.3762  0.2866
   8623SM   C7F11537   2.574   3.036   3.828  0.3659 -0.2845 -0.1634
   8623SM   H7F11538   2.666   3.095   3.848 -0.4749  0.4542  1.7666
   8623SM   H7G11539   2.603   2.929   3.823 -1.5785 -0.9084  0.7724
   8623SM   C8F11540   2.471   3.062   3.946 -0.8691  0.5449 -0.1579
   8623SM   H8F11541   2.400   2.977   3.930  0.6928 -0.6865 -0.7870
   8623SM   H8G11542   2.414   3.157   3.935 -2.0513 -0.1050  0.1307
   8623SM   C9F11543   2.523   3.048   4.090  0.0113 -0.5925  0.1623
   8623SM   H9F11544   2.437   3.033   4.159 -0.0185  0.3436  0.3497
   8623SM   H9G11545   2.573   3.142   4.124  0.5121 -0.4596 -0.9235
   8623SM  C10F11546   2.620   2.931   4.112 -0.2592 -0.2981  0.3120
   8623SM  H10F11547   2.713   2.968   4.063 -0.8552 -0.5402 -1.0755
   8623SM  H10G11548   2.598   2.837   4.056  0.2406 -1.2509  1.6665
   8623SM  C11F11549   2.650   2.885   4.255 -0.3159 -0.2856 -0.6073
   8623SM  H11F11550   2.562   2.869   4.320 -0.4308 -0.7755 -0.8744
   8623SM  H11G11551   2.718   2.961   4.299 -0.6458  0.7411 -1.8194
   8623SM  C12F11552   2.717   2.752   4.254  0.4073  0.6956 -0.7186
   8623SM  H12F11553   2.820   2.764   4.213  0.3060 -1.4416 -1.7549
   8623SM  H12G11554   2.655   2.682   4.195 -1.0126  1.6131 -0.3587
   8623SM  C13F11555   2.731   2.681   4.396 -0.9903 -0.3018 -0.6635
   8623SM  H13F11556   2.638   2.673   4.456 -0.3221 -0.8124  0.3342
   8623SM  H13G11557   2.791   2.756   4.452 -5.1895  3.4191 -0.5487
   8623SM  C14F11558   2.794   2.543   4.394 -0.1003  0.3708  0.0086
   8623SM  H14F11559   2.893   2.551   4.344  0.1022 -1.7022 -0.0012
   8623SM  H14G11560   2.731   2.478   4.330 -0.1921 -0.2788  0.7400
   8623SM  C15F11561   2.826   2.485   4.528 -0.2031 -0.1177 -0.5205
   8623SM  H15F11562   2.895   2.553   4.583 -1.3168  3.0384 -2.6954
   8623SM  H15G11563   2.868   2.383   4.518 -2.2680 -1.2535  1.6306
   8623SM  C16F11564   2.707   2.477   4.629  0.0364 -0.6447  0.0552
   8623SM  H16F11565   2.625   2.420   4.581  0.0762  0.4183 -1.3507
   8623SM  H16G11566   2.673   2.579   4.656  0.9006  0.0569 -1.3600
   8623SM  C17F11567   2.753   2.405   4.752  0.2653 -0.3471  0.4014
   8623SM  H17F11568   2.796   2.304   4.733 -1.1700 -1.6633  3.5462
   8623SM  H17G11569   2.666   2.372   4.813 -0.9397 -2.1082 -2.0825
   8623SM  C18F11570   2.845   2.482   4.846 -0.4822 -0.3532  0.1067
   8623SM  H18F11571   2.798   2.577   4.879 -0.8334 -0.8147  0.9641
   8623SM  H18G11572   2.941   2.498   4.792  0.4582 -0.0211  1.7921
   8623SM  C19F11573   2.871   2.406   4.979  0.0884  0.3365 -0.4355
   8623SM  H19F11574   2.951   2.463   5.031  0.0939  0.0808 -0.1630
   8623SM  H19G11575   2.907   2.303   4.960  1.5661  0.4326  1.5144
   8623SM  C20F11576   2.752   2.396   5.080  0.7724 -0.5932  0.5231
   8623SM  H20F11577   2.683   2.318   5.042  1.3608 -0.4744 -0.8539
   8623SM  H20G11578   2.696   2.492   5.073 -2.9422 -2.5793  0.4550
   8623SM  C21F11579   2.796   2.359   5.225 -0.2201 -0.5425  0.7524
   8623SM  H21F11580   2.831   2.449   5.279 -1.7345  0.8392 -0.4422
   8623SM  H21G11581   2.879   2.289   5.203 -1.0280 -0.9601 -1.3011
   8623SM  C22F11582   2.695   2.276   5.306 -0.5655 -0.9978 -0.1105
   8623SM  H22F11583   2.733   2.220   5.394 -1.0755  0.2612  0.9349
   8623SM  H22G11584   2.658   2.192   5.243 -0.2781 -1.5456  0.4304
   8623SM  C23F11585   2.581   2.349   5.357 -0.2149  0.4430  0.4713
   8623SM  H23F11586   2.520   2.388   5.272  0.8459  0.8913 -0.0986
   8623SM  H23G11587   2.608   2.443   5.410  3.3180  0.8341 -1.7012
   8623SM  H23H11588   2.507   2.284   5.408 -0.6265 -1.0566 -1.8835
   8723SM     N11589   3.999   2.108   2.745 -0.8140  0.1650 -0.1522
   8723SM   C1511590   3.987   2.054   2.886 -0.0874  0.1957 -0.5380
   8723SM  H15A11591   3.893   2.079   2.933  1.0770  0.7744  1.6043
   8723SM  H15B11592   4.063   2.097   2.949  1.2794 -1.1222 -1.2074
   8723SM  H15C11593   3.996   1.946   2.889 -1.3333  0.0893  0.6279
   8723SM   C1411594   4.141   2.084   2.707  0.3724 -0.7793 -1.2519
   8723SM  H14A11595   4.158   2.107   2.602 -0.0518 -0.1121 -1.1789
   8723SM  H14B11596   4.171   1.981   2.721 -0.9457 -0.8599  1.5391
   8723SM  H14C11597   4.218   2.127   2.770  0.3680 -0.2632 -1.5915
   8723SM   C1311598   3.913   2.034   2.644  0.0452  0.1222 -0.4718
   8723SM  H13A11599   3.927   2.064   2.540 -0.3537  1.0210 -0.2793
   8723SM  H13B11600   3.808   2.042   2.666 -0.5812 -0.1683 -3.0302
   8723SM  H13C11601   3.927   1.928   2.654  0.6149  0.3675  1.9698
   8723SM   C1211602   3.962   2.263   2.748  0.4404  1.1012 -0.4089
   8723SM  H12A11603   4.047   2.308   2.797  0.7576 -1.2071  1.3535
   8723SM  H12B11604   3.886   2.284   2.822 -0.8873 -1.2770 -0.9882
   8723SM   C1111605   3.936   2.337   2.617  0.4937 -0.4113 -0.3677
   8723SM  H11A11606   3.896   2.436   2.645  1.9967 -0.0998  0.7673
   8723SM  H11B11607   3.864   2.275   2.559  0.6265 -1.2305  0.3135
   8723SM     P11608   4.164   2.449   2.567 -0.0072  0.1159  0.4416
   8723SM   O1311609   4.274   2.411   2.481  0.2718  0.2359 -0.7910
   8723SM   O1411610   4.106   2.587   2.563 -0.0174  0.8540 -0.1097
   8723SM   O1111611   4.206   2.418   2.715  0.5994  0.2059  0.0373
   8723SM   O1211612   4.048   2.345   2.538  0.1768  0.0568  0.0860
   8723SM   C1S11613   4.295   2.494   2.786 -0.3396 -0.1450  0.6949
   8723SM   H1S11614   4.315   2.597   2.749  1.6553 -0.0695  1.8463
   8723SM   H1T11615   4.398   2.458   2.766 -0.6316 -0.5762 -0.0853
   8723SM    NF11616   4.312   2.626   2.990  0.5583  0.1619 -0.0993
   8723SM   HNF11617   4.401   2.619   3.034  0.2771 -0.8548  0.3533
   8723SM   C2S11618   4.261   2.500   2.939 -0.3294 -0.2020  0.1538
   8723SM   H2S11619   4.151   2.501   2.949 -0.3075 -2.6902  1.5263
   8723SM   C3S11620   4.316   2.372   3.009  0.0687  0.9191 -0.0467
   8723SM   H3S11621   4.425   2.363   2.990 -0.3873 -1.0741 -2.0680
   8723SM    O311622   4.264   2.252   2.950 -0.8269 -0.1592 -0.5132
   8723SM   HO311623   4.226   2.284   2.868 -1.3004 -1.7355 -0.9508
   8723SM   C4S11624   4.292   2.382   3.158 -0.5441 -0.0129  0.2479
   8723SM   H4S11625   4.188   2.409   3.184 -0.2839 -0.7296  2.2296
   8723SM   C5S11626   4.388   2.360   3.250  0.9454  0.0787  0.2580
   8723SM   H5S11627   4.481   2.315   3.212  0.5543 -0.6279  0.1383
   8723SM   C6S11628   4.379   2.368   3.400 -0.1176 -0.8566  1.0052
   8723SM   H6S11629   4.275   2.362   3.437 -0.5808 -1.8729 -0.4024
   8723SM   H6T11630   4.430   2.464   3.423  0.9469 -0.5424 -2.0947
   8723SM   C7S11631   4.455   2.260   3.471 -0.5374  0.4794  0.4554
   8723SM   H7S11632   4.561   2.247   3.440 -0.1472 -1.5427  2.4067
   8723SM   H7T11633   4.398   2.166   3.453 -0.2974  0.5108 -0.5594
   8723SM   C8S11634   4.452   2.283   3.618 -0.1917 -0.4553  0.9786
   8723SM   H8S11635   4.345   2.283   3.649 -0.3732  0.0006  0.3526
   8723SM   H8T11636   4.497   2.381   3.641 -2.5749  0.5662  1.6034
   8723SM   C9S11637   4.532   2.183   3.708  0.0272 -0.6774 -0.1663
   8723SM   H9S11638   4.634   2.227   3.702  0.2871 -1.4939 -2.8034
   8723SM   H9T11639   4.527   2.084   3.657  0.6425 -0.7018 -0.1824
   8723SM  C10S11640   4.483   2.178   3.853  0.4519  0.1678  0.5994
   8723SM  H10S11641   4.390   2.120   3.864 -0.3194  1.3346  0.4796
   8723SM  H10T11642   4.458   2.283   3.880  1.1276  0.7203 -0.7780
   8723SM  C11S11643   4.602   2.129   3.937 -0.0991  0.2617  0.0257
   8723SM  H11S11644   4.682   2.206   3.938  0.5783 -0.4342 -0.4322
   8723SM  H11T11645   4.643   2.039   3.888  0.0540 -0.2333  1.0297
   8723SM  C12S11646   4.568   2.090   4.084  0.0511 -0.8124  0.0154
   8723SM  H12S11647   4.648   2.034   4.137  0.6573 -1.5482 -1.6011
   8723SM  H12T11648   4.481   2.021   4.081  0.7305 -1.6642 -0.9743
   8723SM  C13S11649   4.540   2.204   4.179 -0.4076  0.3158  0.1439
   8723SM  H13S11650   4.449   2.263   4.154 -1.2362 -0.9470  0.0871
   8723SM  H13T11651   4.624   2.276   4.180  0.6792 -0.8975  1.4803
   8723SM  C14S11652   4.520   2.156   4.317 -0.4759 -0.1289 -0.5464
   8723SM  H14S11653   4.605   2.099   4.358 -0.2902 -0.1626 -0.9733
   8723SM  H14T11654   4.436   2.083   4.315 -0.2437 -0.3985 -2.3352
   8723SM  C15S11655   4.479   2.271   4.410  0.1036  0.0704  0.1154
   8723SM  H15S11656   4.368   2.278   4.418 -0.0459 -1.6906 -0.0690
   8723SM  H15T11657   4.527   2.362   4.369  3.6017 -0.6442  2.1827
   8723SM  C16S11658   4.531   2.241   4.548  0.3376  0.8358  0.0323
   8723SM  H16S11659   4.642   2.242   4.551  0.6141 -1.1313 -3.6098
   8723SM  H16T11660   4.494   2.140   4.577 -0.0286  1.0736  0.3971
   8723SM  C17S11661   4.491   2.348   4.655 -0.1500 -0.2014 -0.0538
   8723SM  H17S11662   4.393   2.397   4.633 -0.4484 -0.3993  0.7821
   8723SM  H17T11663   4.565   2.429   4.641 -0.1811  0.0626  1.2101
   8723SM  C18S11664   4.494   2.289   4.796 -0.5472 -0.4932  0.0032
   8723SM  H18S11665   4.487   2.366   4.877 -4.5671  2.3469 -2.6768
   8723SM  H18T11666   4.591   2.235   4.805  0.3449  1.0665  0.2052
   8723SM  H18U11667   4.408   2.219   4.804 -0.5480 -0.3931  1.0451
   8723SM   C1F11668   4.262   2.745   2.951  0.1978 -0.4199 -0.7826
   8723SM    OF11669   4.167   2.758   2.873  0.4450 -0.5139  0.4349
   8723SM   C2F11670   4.313   2.865   3.023 -0.2552 -0.3262  0.1686
   8723SM   H2F11671   4.297   2.959   2.966 -1.5225 -0.7399 -0.1806
   8723SM   H2G11672   4.423   2.850   3.036 -0.3281 -1.5740 -0.4504
   8723SM   C3F11673   4.247   2.888   3.166 -0.7692 -0.0327  0.6775
   8723SM   H3F11674   4.136   2.890   3.158 -0.7866 -3.0633 -2.6040
   8723SM   H3G11675   4.273   2.993   3.190  4.3679 -0.1519 -2.5865
   8723SM   C4F11676   4.300   2.789   3.271 -0.0318 -0.5338 -0.3577
   8723SM   H4F11677   4.411   2.792   3.272 -0.0596  0.9316 -0.3292
   8723SM   H4G11678   4.266   2.687   3.245 -3.7258 -0.1331  2.1330
   8723SM   C5F11679   4.248   2.820   3.408  0.5261  0.2499  0.2822
   8723SM   H5F11680   4.137   2.808   3.410  0.4309  0.5396 -1.4804
   8723SM   H5G11681   4.275   2.920   3.447 -1.5409  1.1609 -0.4868
   8723SM   C6F11682   4.284   2.710   3.509 -0.1308  0.2687 -0.0404
   8723SM   H6F11683   4.393   2.687   3.499 -0.4052 -1.8962  1.2901
   8723SM   H6G11684   4.237   2.613   3.480  2.2740 -0.5978 -1.3713
   8723SM   C7F11685   4.264   2.738   3.653  0.3861 -0.1779  0.6809
   8723SM   H7F11686   4.157   2.764   3.668  0.1159  0.5967 -2.0533
   8723SM   H7G11687   4.328   2.825   3.681 -1.6193  1.9806 -1.1264
   8723SM   C8F11688   4.302   2.618   3.740  0.3202 -0.1178  0.4524
   8723SM   H8F11689   4.407   2.585   3.733  0.2537 -0.2065 -0.1479
   8723SM   H8G11690   4.232   2.534   3.718 -0.3400  0.4809  0.2020
   8723SM   C9F11691   4.282   2.663   3.885 -0.7911  0.3678  0.8266
   8723SM   H9F11692   4.186   2.716   3.901 -0.9302  1.5560 -3.0171
   8723SM   H9G11693   4.372   2.722   3.913  1.1860 -2.0418 -0.1180
   8723SM  C10F11694   4.297   2.545   3.979 -0.0641  0.6955 -0.3644
   8723SM  H10F11695   4.336   2.593   4.071  0.8542 -1.1983  0.2836
   8723SM  H10G11696   4.370   2.470   3.940  0.0014  1.4051 -1.6506
   8723SM  C11F11697   4.163   2.476   4.018 -0.2077  0.1339  0.0769
   8723SM  H11F11698   4.138   2.407   3.934  0.4241  1.0323 -0.8858
   8723SM  H11G11699   4.088   2.557   4.030 -0.0254  0.1154  1.4971
   8723SM  C12F11700   4.181   2.394   4.152  0.6224  0.0841  0.3531
   8723SM  H12F11701   4.226   2.458   4.231  1.1486  1.1125 -0.7442
   8723SM  H12G11702   4.252   2.312   4.128  1.2426  1.0305 -1.1925
   8723SM  C13F11703   4.050   2.338   4.209  0.1423  0.2524  0.0511
   8723SM  H13F11704   4.025   2.249   4.148  0.3189 -0.2377  0.6882
   8723SM  H13G11705   3.973   2.418   4.195  0.3028  0.2635 -0.8147
   8723SM  C14F11706   4.059   2.285   4.359 -0.1467 -0.2299 -0.1408
   8723SM  H14F11707   4.141   2.210   4.365  0.6426  0.7033  1.6326
   8723SM  H14G11708   3.963   2.232   4.372 -0.5734  0.1993 -1.4349
   8723SM  C15F11709   4.074   2.390   4.470  0.2339 -0.0526 -0.0934
   8723SM  H15F11710   4.026   2.485   4.437  0.7204 -0.9562 -3.7550
   8723SM  H15G11711   4.181   2.422   4.477  0.0054  1.9207 -3.3532
   8723SM  C16F11712   4.042   2.337   4.609  0.4896 -0.7853 -0.3121
   8723SM  H16F11713   4.098   2.248   4.645  1.3554  0.2560  1.0434
   8723SM  H16G11714   3.936   2.304   4.615  0.3291 -0.5318 -1.5018
   8723SM  C17F11715   4.081   2.431   4.719  0.2850 -0.8377 -0.5616
   8723SM  H17F11716   4.019   2.523   4.721  2.4496  0.7540  2.6995
   8723SM  H17G11717   4.186   2.468   4.719 -0.3479  1.0728 -1.3367
   8723SM  C18F11718   4.066   2.349   4.854  0.2777 -0.5319 -0.0095
   8723SM  H18F11719   4.136   2.264   4.844  2.7200  1.5890 -3.1858
   8723SM  H18G11720   3.963   2.311   4.869  0.0509 -0.0730 -0.3418
   8723SM  C19F11721   4.098   2.442   4.976 -0.0702 -0.0983  0.0514
   8723SM  H19F11722   4.203   2.474   4.959 -0.5760  1.3667 -0.4985
   8723SM  H19G11723   4.093   2.387   5.072 -0.5187 -1.5788 -0.7990
   8723SM  C20F11724   4.005   2.571   4.988 -0.0515  0.4199 -1.1830
   8723SM  H20F11725   3.905   2.543   5.027  1.5154  0.3792  3.4537
   8723SM  H20G11726   4.002   2.637   4.899 -0.2217 -0.3544 -1.7594
   8723SM  C21F11727   4.068   2.664   5.096  0.0259  0.4730  0.1631
   8723SM  H21F11728   4.174   2.692   5.075  0.4873  1.1067  2.8654
   8723SM  H21G11729   4.067   2.603   5.189  0.7234 -0.0524 -0.1683
   8723SM  C22F11730   3.988   2.795   5.110 -0.4579  0.2311 -0.2472
   8723SM  H22F11731   4.019   2.842   5.206  1.2114 -0.9244 -0.1799
   8723SM  H22G11732   3.882   2.772   5.132 -0.3365 -1.1096 -0.9326
   8723SM  C23F11733   4.008   2.900   5.002 -0.2394  0.4994 -0.0241
   8723SM  H23F11734   3.928   2.883   4.927 -1.6354  1.8579  1.0783
   8723SM  H23G11735   4.111   2.914   4.962  0.4561  1.4679  1.9546
   8723SM  H23H11736   3.976   2.997   5.045 -3.4606 -0.9938  1.2825
   8823SM     N11737   2.167   2.010   2.722 -0.7050 -0.1907 -0.3690
   8823SM   C1511738   2.256   2.116   2.664  0.3179  1.1979 -0.1003
   8823SM  H15A11739   2.348   2.075   2.626  0.3077  0.7888  0.3110
   8823SM  H15B11740   2.278   2.190   2.739  0.9360  1.2310 -0.3125
   8823SM  H15C11741   2.190   2.162   2.591 -1.9759 -1.3853  0.1785
   8823SM   C1411742   2.159   1.898   2.627  0.6562 -0.1319 -0.2914
   8823SM  H14A11743   2.248   1.838   2.640 -0.7001 -2.6613 -1.7976
   8823SM  H14B11744   2.142   1.924   2.524 -1.6991  1.1704  0.3534
   8823SM  H14C11745   2.083   1.831   2.665 -1.0242 -0.4096 -3.7829
   8823SM   C1311746   2.237   1.955   2.847  0.2572 -0.6573 -0.2443
   8823SM  H13A11747   2.342   1.945   2.826  0.1908 -0.9716 -0.4164
   8823SM  H13B11748   2.209   1.853   2.867  2.0317 -1.4955 -1.7743
   8823SM  H13C11749   2.224   2.016   2.936  0.7922  0.1423 -0.7054
   8823SM   C1211750   2.028   2.064   2.750 -0.8295 -0.3037  0.4616
   8823SM  H12A11751   1.984   2.090   2.655 -0.1422 -0.6973  0.0275
   8823SM  H12B11752   2.029   2.159   2.801  0.3156  1.1393 -2.0809
   8823SM   C1111753   1.936   1.980   2.846 -0.3246 -0.7199 -0.5790
   8823SM  H11A11754   1.842   2.039   2.855  0.0897  0.2025 -1.9346
   8823SM  H11B11755   1.978   1.976   2.948 -1.0665  0.2078 -0.2249
   8823SM     P11756   1.771   1.798   2.754  0.1355  0.0394  0.5432
   8823SM   O1311757   1.722   1.894   2.653  0.5937  0.1449  0.0146
   8823SM   O1411758   1.773   1.656   2.713 -1.1950 -0.3614  0.1790
   8823SM   O1111759   1.689   1.828   2.881  0.5391  0.0724 -0.1070
   8823SM   O1211760   1.906   1.852   2.795 -0.5768  0.9670  0.1455
   8823SM   C1S11761   1.680   1.759   3.003  0.4562 -0.2959  0.3142
   8823SM   H1S11762   1.762   1.687   3.022 -1.9784 -3.3368  0.2620
   8823SM   H1T11763   1.589   1.695   3.006 -0.5350  1.0583  0.4587
   8823SM    NF11764   1.717   1.802   3.244  0.3197 -0.1544  0.5058
   8823SM   HNF11765   1.640   1.787   3.306  0.7155 -0.4793  0.9221
   8823SM   C2S11766   1.676   1.867   3.118 -0.5990 -0.0539 -0.7257
   8823SM   H2S11767   1.757   1.941   3.104  0.2759 -0.9208 -0.3547
   8823SM   C3S11768   1.539   1.931   3.115  0.1928  0.3007 -0.1976
   8823SM   H3S11769   1.464   1.850   3.133  1.9243 -1.0924  1.1455
   8823SM    O311770   1.513   1.987   2.982  0.0475 -0.1219  0.3200
   8823SM   HO311771   1.563   1.941   2.914 -1.5994  2.3874 -2.8544
   8823SM   C4S11772   1.525   2.039   3.223  0.1688  0.2464 -0.0684
   8823SM   H4S11773   1.470   2.003   3.311 -0.2217 -0.9226 -0.7605
   8823SM   C5S11774   1.564   2.166   3.221 -0.4205 -0.0128 -0.5535
   8823SM   H5S11775   1.612   2.201   3.128 -1.6602  1.1108 -0.7987
   8823SM   C6S11776   1.546   2.260   3.340 -0.3395  0.0005  0.2402
   8823SM   H6S11777   1.465   2.335   3.333  0.7746  1.3212  1.0976
   8823SM   H6T11778   1.639   2.322   3.346  0.3538 -0.9263 -0.4488
   8823SM   C7S11779   1.516   2.198   3.480 -0.0922 -0.3244  0.1163
   8823SM   H7S11780   1.599   2.127   3.502  1.7676  1.4847 -0.7120
   8823SM   H7T11781   1.416   2.151   3.488 -0.1691  0.0509  1.6138
   8823SM   C8S11782   1.511   2.312   3.581  0.4434 -0.1498  0.2465
   8823SM   H8S11783   1.436   2.378   3.533 -2.0940 -0.9201  2.8550
   8823SM   H8T11784   1.607   2.367   3.590  2.0742 -2.9819  1.3593
   8823SM   C9S11785   1.478   2.262   3.727 -0.3332  0.1270 -0.4259
   8823SM   H9S11786   1.543   2.180   3.765  0.6203  0.3828 -1.4823
   8823SM   H9T11787   1.377   2.214   3.731 -0.2101 -0.0700  1.3537
   8823SM  C10S11788   1.473   2.376   3.822 -0.0771  0.4805  0.0271
   8823SM  H10S11789   1.392   2.448   3.794 -3.1294 -2.9411 -0.6548
   8823SM  H10T11790   1.566   2.432   3.847  0.7721 -0.8776 -0.0126
   8823SM  C11S11791   1.426   2.323   3.963 -0.4773 -0.1160 -0.6974
   8823SM  H11S11792   1.506   2.268   4.017 -1.7819 -1.4429 -0.0369
   8823SM  H11T11793   1.352   2.244   3.939 -2.6444  2.1697 -2.0145
   8823SM  C12S11794   1.352   2.422   4.060  0.1720 -0.4030 -0.0357
   8823SM  H12S11795   1.251   2.441   4.017  0.0528  2.1663  1.2075
   8823SM  H12T11796   1.411   2.516   4.058 -2.6776  1.5086 -1.5364
   8823SM  C13S11797   1.352   2.390   4.210 -0.1424  0.7928 -0.5156
   8823SM  H13S11798   1.342   2.479   4.276 -0.3369 -0.0459  0.6284
   8823SM  H13T11799   1.452   2.349   4.234 -0.1921  0.4164 -0.9375
   8823SM  C14S11800   1.262   2.279   4.242  0.3607 -0.6371  0.2175
   8823SM  H14S11801   1.285   2.183   4.190 -0.3395 -0.7308  0.0633
   8823SM  H14T11802   1.158   2.311   4.221 -0.8969 -3.2574  1.8759
   8823SM  C15S11803   1.256   2.233   4.392 -0.4702 -0.1293 -0.5138
   8823SM  H15S11804   1.357   2.232   4.437 -1.0449  0.1380  0.8097
   8823SM  H15T11805   1.218   2.129   4.399  0.1256 -0.2836  0.5724
   8823SM  C16S11806   1.177   2.325   4.475 -0.3049 -0.5122 -0.7086
   8823SM  H16S11807   1.101   2.389   4.426  0.8070  3.3062  2.0452
   8823SM  H16T11808   1.247   2.399   4.520 -0.1873 -2.4061  2.5182
   8823SM  C17S11809   1.102   2.262   4.591  0.1916 -0.1816 -0.5731
   8823SM  H17S11810   1.168   2.224   4.672 -1.3503 -1.2442  0.2505
   8823SM  H17T11811   1.051   2.172   4.552  2.2890 -2.8726  2.4010
   8823SM  C18S11812   0.997   2.358   4.654  0.1197  0.3274  0.3754
   8823SM  H18S11813   1.040   2.447   4.705  0.1711  0.8849 -0.6188
   8823SM  H18T11814   0.937   2.301   4.728  0.1330 -0.6735 -0.3611
   8823SM  H18U11815   0.923   2.394   4.581 -2.4324 -1.9540  1.6603
   8823SM   C1F11816   1.843   1.769   3.280  0.0477 -0.3952 -0.2600
   8823SM    OF11817   1.936   1.794   3.207  0.5849  0.1623 -0.8451
   8823SM   C2F11818   1.861   1.713   3.408 -0.1049  0.3778  1.0450
   8823SM   H2F11819   1.805   1.620   3.432 -0.9146  0.2224 -1.2503
   8823SM   H2G11820   1.829   1.786   3.485 -0.8610 -0.1238  1.2196
   8823SM   C3F11821   2.007   1.675   3.436  0.3008 -0.2907 -0.4160
   8823SM   H3F11822   2.083   1.756   3.424  0.0260  0.0083 -0.1367
   8823SM   H3G11823   2.029   1.596   3.361 -1.2126  0.4916 -1.7405
   8823SM   C4F11824   2.042   1.603   3.570  0.9145 -0.1129  0.1121
   8823SM   H4F11825   2.151   1.583   3.573  1.4184  2.4026  1.5855
   8823SM   H4G11826   1.982   1.510   3.584 -0.8015  0.8121 -0.6746
   8823SM   C5F11827   2.013   1.694   3.691  0.1219 -0.1344 -0.8359
   8823SM   H5F11828   1.904   1.706   3.707  0.1018  1.7444 -2.0174
   8823SM   H5G11829   2.036   1.803   3.685 -1.3417  0.2645  0.1860
   8823SM   C6F11830   2.069   1.629   3.817  0.1695  0.4550 -0.8672
   8823SM   H6F11831   2.170   1.592   3.790  0.6511  0.6967  0.5379
   8823SM   H6G11832   2.003   1.545   3.849  0.1373  0.0459 -1.9628
   8823SM   C7F11833   2.070   1.725   3.933 -1.3324 -0.0541  0.1550
   8823SM   H7F11834   1.969   1.730   3.978  0.5815 -0.9471  5.2089
   8823SM   H7G11835   2.117   1.820   3.900  0.9496 -1.6929 -1.6531
   8823SM   C8F11836   2.161   1.677   4.047 -0.1055  0.2509  0.0906
   8823SM   H8F11837   2.268   1.683   4.021  0.2408 -1.4840  0.9647
   8823SM   H8G11838   2.146   1.569   4.067  1.2335  0.0774  0.2471
   8823SM   C9F11839   2.142   1.750   4.182 -0.0826 -0.1008  0.3549
   8823SM   H9F11840   2.039   1.736   4.221 -1.0564 -0.3189 -2.0931
   8823SM   H9G11841   2.169   1.856   4.165  1.0424 -0.7270 -2.2024
   8823SM  C10F11842   2.250   1.716   4.284 -0.1746  0.3164 -0.6270
   8823SM  H10F11843   2.337   1.779   4.254 -0.9061  0.9446 -1.4832
   8823SM  H10G11844   2.280   1.609   4.289 -0.9611  0.1409  1.3094
   8823SM  C11F11845   2.226   1.761   4.430  0.2887  0.2657 -0.0846
   8823SM  H11F11846   2.134   1.705   4.457  0.6011 -0.5096 -0.6126
   8823SM  H11G11847   2.210   1.870   4.445  1.1594  0.6468 -1.7379
   8823SM  C12F11848   2.345   1.721   4.523  0.4791 -0.1679 -0.1043
   8823SM  H12F11849   2.387   1.809   4.577 -1.6827  0.9829 -0.2010
   8823SM  H12G11850   2.421   1.658   4.471 -1.4522 -0.9554 -2.1173
   8823SM  C13F11851   2.288   1.617   4.626  0.5155  0.3339 -0.2542
   8823SM  H13F11852   2.374   1.560   4.667 -1.2337 -1.3077  1.3597
   8823SM  H13G11853   2.239   1.542   4.559 -3.7020  3.8618 -1.6337
   8823SM  C14F11854   2.195   1.673   4.735 -0.0180 -0.5665  0.6606
   8823SM  H14F11855   2.108   1.728   4.695  0.3398 -0.7149 -0.3285
   8823SM  H14G11856   2.254   1.755   4.781 -0.7360 -0.1912  0.9288
   8823SM  C15F11857   2.162   1.571   4.835 -0.0635  0.8426  0.3172
   8823SM  H15F11858   2.251   1.525   4.882  2.1796  0.7177 -3.6257
   8823SM  H15G11859   2.118   1.482   4.785 -3.6258  2.2176  0.7290
   8823SM  C16F11860   2.056   1.620   4.935  0.4077  0.3766 -0.1839
   8823SM  H16F11861   1.992   1.688   4.875  0.9847  0.6712 -0.4818
   8823SM  H16G11862   2.106   1.680   5.015  1.1814 -0.3116 -0.1361
   8823SM  C17F11863   1.968   1.504   4.990 -0.4024  0.0232 -0.0333
   8823SM  H17F11864   1.918   1.432   4.923 -2.3825 -0.9984  2.4118
   8823SM  H17G11865   1.884   1.560   5.037 -0.2610  0.9104 -0.8006
   8823SM  C18F11866   2.053   1.414   5.087  0.4709  0.1412 -0.3235
   8823SM  H18F11867   2.118   1.483   5.145 -0.1434 -1.2866  2.1909
   8823SM  H18G11868   2.120   1.355   5.021 -0.1463 -0.4442 -0.4404
   8823SM  C19F11869   1.964   1.325   5.183  0.2189  0.2043  0.5005
   8823SM  H19F11870   1.895   1.287   5.105  0.7014  0.2332  0.0546
   8823SM  H19G11871   1.896   1.391   5.241 -0.1157  0.5069 -0.2231
   8823SM  C20F11872   2.028   1.206   5.258 -0.3389 -0.4026  0.3334
   8823SM  H20F11873   2.095   1.244   5.338 -1.9375  1.5342  0.8667
   8823SM  H20G11874   2.093   1.147   5.190  2.3718  2.1422  0.5262
   8823SM  C21F11875   1.932   1.116   5.329  0.7285  0.3019  0.3885
   8823SM  H21F11876   1.837   1.103   5.273  0.4449 -0.6341  1.0622
   8823SM  H21G11877   1.896   1.167   5.421 -2.0162  0.4944 -0.6895
   8823SM  C22F11878   1.983   0.970   5.361 -0.0818  0.5539 -0.1092
   8823SM  H22F11879   1.912   0.911   5.424  1.8623 -2.8083 -0.8257
   8823SM  H22G11880   2.082   0.970   5.412  0.9426  0.2526 -1.9928
   8823SM  C23F11881   1.994   0.887   5.234  0.9733 -0.5876 -0.1010
   8823SM  H23F11882   1.906   0.907   5.169  0.7218  0.8200  0.6391
   8823SM  H23G11883   1.996   0.779   5.259 -0.6209 -0.0412  2.9193
   8823SM  H23H11884   2.088   0.905   5.177 -0.2934 -0.3169 -2.2187
   8923SM     N11885   6.827   2.243   2.597  0.4420  0.4433  0.0407
   8923SM   C1511886   6.965   2.236   2.546 -0.2870  0.3815  0.4727
   8923SM  H15A11887   6.997   2.145   2.499  1.6704  1.2363  0.0281
   8923SM  H15B11888   7.037   2.253   2.626 -0.9978  1.2474  0.9590
   8923SM  H15C11889   6.986   2.316   2.477  2.0675 -3.0939 -3.2769
   8923SM   C1411890   6.738   2.216   2.474 -0.4630 -0.0096  0.6124
   8923SM  H14A11891   6.763   2.126   2.420 -2.0864  1.0481 -2.0797
   8923SM  H14B11892   6.749   2.306   2.415 -2.4307 -1.1614 -1.6767
   8923SM  H14C11893   6.635   2.208   2.506 -0.5504  1.8762  0.9373
   8923SM   C1311894   6.810   2.126   2.686  0.1707 -0.3625 -0.3730
   8923SM  H13A11895   6.708   2.127   2.722  0.0252  0.4604 -0.8018
   8923SM  H13B11896   6.879   2.134   2.768 -0.3678 -1.7344  0.2559
   8923SM  H13C11897   6.831   2.029   2.642  0.0077 -0.1842 -0.8514
   8923SM   C1211898   6.796   2.373   2.674 -0.0034 -0.1206  0.0690
   8923SM  H12A11899   6.691   2.372   2.700 -0.0702 -0.8540 -0.2154
   8923SM  H12B11900   6.800   2.460   2.610 -0.4488 -0.4292 -0.3905
   8923SM   C1111901   6.867   2.401   2.811  0.1702  0.0009 -0.3131
   8923SM  H11A11902   6.827   2.323   2.880 -1.1440  0.5055 -0.4626
   8923SM  H11B11903   6.825   2.499   2.844 -2.4425 -0.8878 -0.7290
   8923SM     P11904   7.111   2.312   2.877 -0.0333 -0.1457 -0.0432
   8923SM   O1311905   7.159   2.202   2.789 -0.0700  0.2334  0.0626
   8923SM   O1411906   7.216   2.397   2.942 -0.5154 -0.1415 -0.5293
   8923SM   O1111907   7.020   2.236   2.983 -0.2556  0.1808 -0.8893
   8923SM   O1211908   7.011   2.405   2.797  0.1358 -0.4662 -0.2909
   8923SM   C1S11909   7.082   2.148   3.083 -0.2879 -0.2416  0.0855
   8923SM   H1S11910   7.164   2.193   3.144 -2.3059 -0.5093  3.2258
   8923SM   H1T11911   7.119   2.054   3.038  0.9248  0.8334 -1.2798
   8923SM    NF11912   7.050   2.008   3.293 -0.5368 -0.2675  0.2244
   8923SM   HNF11913   7.037   1.909   3.298  0.8561 -0.4304  4.1766
   8923SM   C2S11914   6.980   2.083   3.191 -0.6252 -0.2441  0.4389
   8923SM   H2S11915   6.936   2.172   3.242  0.8727  1.2128 -0.6879
   8923SM   C3S11916   6.878   1.998   3.112 -0.0984  0.2840 -0.3056
   8923SM   H3S11917   6.927   1.913   3.060 -1.5028 -0.8717  0.2305
   8923SM    O311918   6.808   2.069   3.008 -0.1157  0.1542 -0.0514
   8923SM   HO311919   6.869   2.142   2.998  0.7267 -0.5234  0.0450
   8923SM   C4S11920   6.785   1.940   3.210 -0.1894 -0.4579  0.4187
   8923SM   H4S11921   6.802   1.837   3.245  1.1020 -0.9672 -1.5748
   8923SM   C5S11922   6.677   1.996   3.270 -0.0931 -1.1353  0.1347
   8923SM   H5S11923   6.648   2.098   3.240 -0.2498 -1.5830 -1.3408
   8923SM   C6S11924   6.594   1.930   3.370 -0.5932 -0.5965  0.0639
   8923SM   H6S11925   6.633   1.832   3.403  0.9774  0.2767  0.8821
   8923SM   H6T11926   6.487   1.920   3.339 -1.0416  1.9572  0.5239
   8923SM   C7S11927   6.579   2.015   3.500  0.1870  0.5832  0.0848
   8923SM   H7S11928   6.510   1.968   3.574  1.2332 -1.1027  0.0299
   8923SM   H7T11929   6.532   2.112   3.473 -0.6331  0.4613  1.0228
   8923SM   C8S11930   6.716   2.041   3.573  0.1829 -0.2418 -0.2008
   8923SM   H8S11931   6.688   2.101   3.662  1.4684  1.5545 -0.9261
   8923SM   H8T11932   6.779   2.106   3.508 -0.1789  0.0317 -0.2854
   8923SM   C9S11933   6.797   1.922   3.621 -0.7449 -0.9383  0.4245
   8923SM   H9S11934   6.891   1.954   3.671 -2.8495  1.0789  3.4141
   8923SM   H9T11935   6.834   1.865   3.533  3.1180  2.6129 -0.5808
   8923SM  C10S11936   6.721   1.843   3.719 -0.2016 -0.0980 -0.1006
   8923SM  H10S11937   6.784   1.756   3.747  1.0408  1.2598  1.5721
   8923SM  H10T11938   6.627   1.807   3.672 -0.5473 -1.1482  1.3430
   8923SM  C11S11939   6.690   1.917   3.843 -0.2672  0.2063  0.2228
   8923SM  H11S11940   6.621   2.000   3.818 -0.4006 -0.0817 -0.3951
   8923SM  H11T11941   6.783   1.957   3.888 -1.3288 -1.5285  4.4582
   8923SM  C12S11942   6.618   1.839   3.950 -0.1290  0.1033 -0.1551
   8923SM  H12S11943   6.639   1.731   3.934 -0.5681 -0.4460  2.4645
   8923SM  H12T11944   6.510   1.864   3.944  0.2277  2.2596  1.2323
   8923SM  C13S11945   6.661   1.885   4.090  1.0561  0.6342 -0.6435
   8923SM  H13S11946   6.622   1.988   4.109 -0.3025 -0.3486  2.8069
   8923SM  H13T11947   6.769   1.872   4.108  0.5037 -2.3412  1.3261
   8923SM  C14S11948   6.594   1.797   4.208  0.1583 -0.4255 -0.0727
   8923SM  H14S11949   6.644   1.820   4.304 -2.1592 -0.7938  1.3203
   8923SM  H14T11950   6.611   1.688   4.196  2.4883 -0.0229 -0.9787
   8923SM  C15S11951   6.448   1.849   4.225 -0.7908  0.0454  0.4614
   8923SM  H15S11952   6.393   1.800   4.141 -0.8829  1.5517 -0.3891
   8923SM  H15T11953   6.443   1.959   4.207 -0.6160  0.0999  0.7556
   8923SM  C16S11954   6.386   1.806   4.361  0.3031 -0.3267 -0.1994
   8923SM  H16S11955   6.321   1.895   4.378 -0.7554 -0.7144 -1.9225
   8923SM  H16T11956   6.463   1.795   4.440 -0.6011 -1.9294  0.5103
   8923SM  C17S11957   6.320   1.667   4.361  0.2489  0.2148  0.5201
   8923SM  H17S11958   6.395   1.594   4.323  0.2740  0.5337 -0.0671
   8923SM  H17T11959   6.231   1.673   4.294  0.0513 -0.6458  0.7005
   8923SM  C18S11960   6.288   1.618   4.501  0.2869 -0.1700 -0.4725
   8923SM  H18S11961   6.214   1.535   4.500 -0.6812  0.6316  0.8468
   8923SM  H18T11962   6.244   1.702   4.559 -0.6323 -2.4650  2.4356
   8923SM  H18U11963   6.382   1.600   4.557  0.4112 -2.0634 -1.2194
   8923SM   C1F11964   7.121   2.069   3.383 -0.3514 -0.2251 -0.1927
   8923SM    OF11965   7.143   2.190   3.379  0.3434  0.2734  0.0021
   8923SM   C2F11966   7.168   1.993   3.496 -0.0970  0.6279 -0.3436
   8923SM   H2F11967   7.272   1.959   3.474  0.2420  0.2079  1.6980
   8923SM   H2G11968   7.108   1.902   3.517  0.4775  0.3819  0.3118
   8923SM   C3F11969   7.172   2.068   3.623 -1.1835 -0.7235 -0.7393
   8923SM   H3F11970   7.070   2.091   3.662 -0.6989 -1.8937  1.4070
   8923SM   H3G11971   7.214   2.171   3.620 -0.5770 -0.8755  1.1010
   8923SM   C4F11972   7.244   1.985   3.739 -0.4848  0.9319 -0.7503
   8923SM   H4F11973   7.350   1.983   3.707 -0.9130 -0.9940 -2.2536
   8923SM   H4G11974   7.225   1.876   3.731  1.9025  0.3200  1.0397
   8923SM   C5F11975   7.215   2.024   3.881  0.3560  0.2001  0.1797
   8923SM   H5F11976   7.205   2.133   3.899  0.3743  0.7238 -2.5571
   8923SM   H5G11977   7.303   1.989   3.940 -0.2884  0.0479  1.0599
   8923SM   C6F11978   7.099   1.950   3.950 -0.1039 -0.5520 -0.0838
   8923SM   H6F11979   7.062   1.871   3.881 -0.8254  1.1250 -1.6884
   8923SM   H6G11980   7.008   2.013   3.962  1.0094  0.9640  0.8135
   8923SM   C7F11981   7.140   1.869   4.067  0.2884 -0.2120 -0.0036
   8923SM   H7F11982   7.191   1.937   4.139 -1.1436  1.8584 -0.8667
   8923SM   H7G11983   7.212   1.794   4.026 -0.1711 -0.1665 -0.9137
   8923SM   C8F11984   7.031   1.794   4.139  0.2574  0.2283 -0.3590
   8923SM   H8F11985   6.965   1.732   4.074  0.9141  0.3635 -1.1794
   8923SM   H8G11986   6.967   1.873   4.183  1.8858  1.1406  0.4169
   8923SM   C9F11987   7.091   1.712   4.253  0.2443  0.1122 -0.6034
   8923SM   H9F11988   7.183   1.761   4.292  0.1021 -0.5142  0.5748
   8923SM   H9G11989   7.128   1.616   4.213 -0.0348 -0.6668  0.9249
   8923SM  C10F11990   7.001   1.671   4.382 -0.0604  0.1814  0.6143
   8923SM  H10F11991   6.935   1.588   4.350  0.2698  0.1140  0.0824
   8923SM  H10G11992   6.946   1.761   4.417  0.4676 -0.2789  2.7274
   8923SM  C11F11993   7.095   1.632   4.500 -1.0619 -0.6427  0.4422
   8923SM  H11F11994   7.136   1.731   4.528 -1.8146 -0.0038 -0.6565
   8923SM  H11G11995   7.180   1.569   4.466  0.3001  0.8574  0.9655
   8923SM  C12F11996   7.025   1.569   4.621 -0.1027 -0.1806  0.2117
   8923SM  H12F11997   6.988   1.470   4.586 -0.9630  0.0969  0.2991
   8923SM  H12G11998   6.949   1.640   4.661 -1.0768 -1.0795 -0.0031
   8923SM  C13F11999   7.122   1.548   4.737  0.3404 -0.3651  0.1889
   8923SM  H13F12000   7.162   1.650   4.760 -0.6183  0.1427 -0.3299
   8923SM  H13G12001   7.196   1.474   4.701  1.6166  1.1672 -0.4672
   8923SM  C14F12002   7.062   1.494   4.861 -0.4453  0.7671  0.8989
   8923SM  H14F12003   7.143   1.466   4.931  1.1620  0.5782 -0.9612
   8923SM  H14G12004   7.007   1.404   4.826  1.2217 -0.0547  0.3194
   8923SM  C15F12005   6.973   1.592   4.927 -0.3919 -1.1561 -0.6882
   8923SM  H15F12006   6.900   1.639   4.858 -1.8509 -0.6435  1.1427
   8923SM  H15G12007   7.028   1.679   4.968 -1.7838 -0.5087 -0.1361
   8923SM  C16F12008   6.894   1.525   5.037 -0.1161 -0.1828 -0.2166
   8923SM  H16F12009   6.959   1.497   5.122  0.5663 -1.7868 -1.2121
   8923SM  H16G12010   6.876   1.422   4.999 -0.2053  0.0812 -0.9048
   8923SM  C17F12011   6.762   1.595   5.069 -0.6349 -0.4358  0.4359
   8923SM  H17F12012   6.695   1.516   5.109  1.0559 -0.9006  2.5258
   8923SM  H17G12013   6.723   1.643   4.977  0.1208 -0.5254  0.0646
   8923SM  C18F12014   6.760   1.707   5.181  0.3265  0.0137 -0.5249
   8923SM  H18F12015   6.663   1.759   5.162  0.0170 -1.2371 -2.8327
   8923SM  H18G12016   6.836   1.784   5.156  0.4396 -0.5391 -1.9974
   8923SM  C19F12017   6.770   1.648   5.323  0.3600  0.0814 -0.4599
   8923SM  H19F12018   6.870   1.600   5.334  0.7033  0.2667 -2.4667
   8923SM  H19G12019   6.684   1.578   5.335  1.8430 -1.8078 -0.2977
   8923SM  C20F12020   6.747   1.758   5.436 -0.0421  0.6648 -0.1393
   8923SM  H20F12021   6.723   1.727   5.540 -0.1477  2.1645  0.2986
   8923SM  H20G12022   6.673   1.831   5.398 -0.4716  0.3430  0.0702
   8923SM  C21F12023   6.869   1.845   5.468 -0.4342  0.8767  0.2348
   8923SM  H21F12024   6.879   1.902   5.373 -0.1183  1.7838  0.8001
   8923SM  H21G12025   6.960   1.784   5.485 -0.1833 -0.0206 -3.5413
   8923SM  C22F12026   6.859   1.944   5.579  0.6462 -0.2108 -0.4734
   8923SM  H22F12027   6.857   1.889   5.676 -2.1124 -1.8404 -1.3204
   8923SM  H22G12028   6.764   2.001   5.569  1.0897  0.8034  0.7788
   8923SM  C23F12029   6.978   2.044   5.590 -0.0830 -0.1294  0.5183
   8923SM  H23F12030   6.983   2.097   5.492  0.4828 -1.9997 -0.5197
   8923SM  H23G12031   7.066   1.976   5.578 -0.3471 -0.3346 -0.3651
   8923SM  H23H12032   6.979   2.106   5.682  1.2919  0.6975 -0.0272
   9023SM     N12033   6.521   1.691   2.618  0.3395 -0.0434 -0.4889
   9023SM   C1512034   6.389   1.631   2.613  0.2065  1.2781  0.0821
   9023SM  H15A12035   6.315   1.705   2.641 -0.9328  0.2658 -0.1674
   9023SM  H15B12036   6.382   1.543   2.675 -0.4599  0.5346 -1.0112
   9023SM  H15C12037   6.366   1.593   2.514  0.1863  3.0076 -0.6235
   9023SM   C1412038   6.616   1.580   2.583  0.2847  0.0342  0.0583
   9023SM  H14A12039   6.622   1.506   2.662 -1.1323 -0.1794 -0.0135
   9023SM  H14B12040   6.715   1.619   2.564 -0.3428  1.9608  0.4091
   9023SM  H14C12041   6.584   1.534   2.491 -0.9146  0.8845  0.0231
   9023SM   C1312042   6.539   1.804   2.523 -0.0612 -0.5012  0.4265
   9023SM  H13A12043   6.461   1.877   2.538  0.8012  0.7327 -0.8883
   9023SM  H13B12044   6.523   1.785   2.418 -0.3617  0.3511  0.3157
   9023SM  H13C12045   6.632   1.858   2.536 -0.7680  0.6584  0.7562
   9023SM   C1212046   6.558   1.734   2.761  0.2821  0.2241  0.1017
   9023SM  H12A12047   6.500   1.818   2.795  0.7107  0.2975  0.6822
   9023SM  H12B12048   6.661   1.766   2.759  0.6925 -0.9997  0.4163
   9023SM   C1112049   6.542   1.627   2.875 -0.2248 -0.5776 -0.2867
   9023SM  H11A12050   6.433   1.624   2.894 -0.5282 -0.6286 -1.8819
   9023SM  H11B12051   6.579   1.676   2.967 -0.7159  0.4229 -0.6108
   9023SM     P12052   6.526   1.367   2.885  0.0542  0.3042  0.3484
   9023SM   O1312053   6.410   1.349   2.797 -0.2699 -0.5345 -0.0569
   9023SM   O1412054   6.624   1.255   2.901 -0.2453  0.0025 -0.3947
   9023SM   O1112055   6.482   1.410   3.029 -0.3017 -0.6891 -0.0514
   9023SM   O1212056   6.611   1.498   2.844 -0.2383  0.0230  0.3877
   9023SM   C1S12057   6.577   1.401   3.136 -0.6599 -0.0616 -0.0176
   9023SM   H1S12058   6.684   1.398   3.105  0.0156 -0.4948  2.2204
   9023SM   H1T12059   6.558   1.308   3.194  0.6055  0.7682  1.8133
   9023SM    NF12060   6.634   1.451   3.365  0.5190  0.0669  0.3668
   9023SM   HNF12061   6.577   1.414   3.438  1.5015 -0.5236  0.8599
   9023SM   C2S12062   6.554   1.497   3.255 -0.1822  0.0014 -0.1657
   9023SM   H2S12063   6.594   1.595   3.222  3.1223 -1.3286 -0.4536
   9023SM   C3S12064   6.393   1.504   3.290 -0.2038 -0.2808  0.6975
   9023SM   H3S12065   6.356   1.400   3.298  0.4276 -0.5829 -0.1121
   9023SM    O312066   6.324   1.551   3.177  0.1947 -0.0418 -0.1378
   9023SM   HO312067   6.387   1.517   3.114  1.7796 -0.0418  1.3807
   9023SM   C4S12068   6.365   1.593   3.411 -0.9649 -0.0374  0.1883
   9023SM   H4S12069   6.410   1.692   3.398 -0.5123 -0.2693 -0.0671
   9023SM   C5S12070   6.308   1.566   3.527 -0.0171 -0.2537  0.6896
   9023SM   H5S12071   6.266   1.467   3.549 -1.6406 -0.2774 -2.1172
   9023SM   C6S12072   6.291   1.672   3.631 -0.4424  0.4686  0.2288
   9023SM   H6S12073   6.188   1.712   3.623 -0.6132  0.0276  0.1621
   9023SM   H6T12074   6.364   1.754   3.613  2.4531 -1.6501  1.5031
   9023SM   C7S12075   6.285   1.617   3.781 -0.9840 -0.7087 -0.5068
   9023SM   H7S12076   6.188   1.565   3.790 -1.1892  0.0154  2.5046
   9023SM   H7T12077   6.273   1.707   3.845 -0.8574 -0.8471 -0.2863
   9023SM   C8S12078   6.408   1.533   3.827 -1.0951 -0.1998 -0.1616
   9023SM   H8S12079   6.491   1.603   3.805 -1.2184 -0.3315 -1.0863
   9023SM   H8T12080   6.431   1.450   3.757  0.7908 -0.6283  0.8985
   9023SM   C9S12081   6.416   1.481   3.963 -0.6319  0.3280 -0.2891
   9023SM   H9S12082   6.321   1.427   3.983  1.3048 -3.7433 -1.1354
   9023SM   H9T12083   6.426   1.559   4.042  1.8877 -1.3034  1.1135
   9023SM  C10S12084   6.510   1.374   3.990 -0.7368  0.2743 -0.2255
   9023SM  H10S12085   6.502   1.291   3.916  0.6620  1.3028 -1.5853
   9023SM  H10T12086   6.490   1.329   4.090 -0.6284 -0.1468 -0.3918
   9023SM  C11S12087   6.654   1.425   3.987  0.2020  0.1885  0.0423
   9023SM  H11S12088   6.676   1.511   4.054 -0.2098 -0.5515  1.1724
   9023SM  H11T12089   6.667   1.456   3.881 -0.7670  1.6029  0.3086
   9023SM  C12S12090   6.759   1.312   4.024  0.0693 -0.9076  0.2527
   9023SM  H12S12091   6.860   1.358   4.032  0.2914 -0.8650 -2.0522
   9023SM  H12T12092   6.759   1.249   3.932  0.1668  1.1555 -1.2401
   9023SM  C13S12093   6.723   1.238   4.156 -0.4227  0.1475  0.2422
   9023SM  H13S12094   6.802   1.164   4.179  0.7747  1.4051  0.2843
   9023SM  H13T12095   6.629   1.185   4.130 -0.8440  1.4362 -0.9795
   9023SM  C14S12096   6.706   1.347   4.272  0.4009  0.0581 -0.3578
   9023SM  H14S12097   6.605   1.394   4.267 -0.5298 -0.9314  4.4276
   9023SM  H14T12098   6.790   1.419   4.258  1.0416  0.2246  3.4032
   9023SM  C15S12099   6.714   1.278   4.409  0.0890 -0.1797  0.6371
   9023SM  H15S12100   6.817   1.238   4.419  0.1779 -0.4199 -0.9995
   9023SM  H15T12101   6.658   1.182   4.406 -0.9487  0.4381 -0.9659
   9023SM  C16S12102   6.693   1.364   4.536  0.3482  0.2075  1.2327
   9023SM  H16S12103   6.594   1.411   4.518  0.6539  0.2698 -0.4195
   9023SM  H16T12104   6.767   1.446   4.526  0.2864 -0.0363 -3.0099
   9023SM  C17S12105   6.681   1.284   4.668  0.2234  0.4008 -0.5917
   9023SM  H17S12106   6.782   1.263   4.708  0.3784  1.2600 -0.5063
   9023SM  H17T12107   6.629   1.188   4.647  2.0324 -1.0182  1.0456
   9023SM  C18S12108   6.602   1.354   4.787  0.0674  0.4516  0.1735
   9023SM  H18S12109   6.493   1.356   4.767 -0.1635  0.1610  1.3020
   9023SM  H18T12110   6.631   1.461   4.783  0.8889  0.3001  1.3955
   9023SM  H18U12111   6.623   1.310   4.887 -0.6103  1.0294  0.5816
   9023SM   C1F12112   6.767   1.458   3.375  0.4928  0.7047  0.3255
   9023SM    OF12113   6.839   1.518   3.293  0.3111  0.3040  0.7153
   9023SM   C2F12114   6.828   1.391   3.499  0.2911 -0.8503  0.7438
   9023SM   H2F12115   6.910   1.325   3.464  0.1503  0.5203 -2.4657
   9023SM   H2G12116   6.751   1.323   3.542 -0.8201 -0.2895 -0.3150
   9023SM   C3F12117   6.881   1.498   3.597 -0.8151  0.0994 -0.0616
   9023SM   H3F12118   6.801   1.564   3.635  0.0385  0.8462  0.4769
   9023SM   H3G12119   6.958   1.560   3.547 -2.3799  1.0806 -1.3205
   9023SM   C4F12120   6.951   1.434   3.723  0.6474 -0.2727 -0.1247
   9023SM   H4F12121   7.016   1.345   3.713 -0.6276 -1.4944  1.9062
   9023SM   H4G12122   6.868   1.382   3.775  0.3115  0.0105 -0.3752
   9023SM   C5F12123   7.014   1.546   3.805 -0.1648 -0.0933 -0.9419
   9023SM   H5F12124   6.953   1.634   3.836  0.0701 -0.4885  0.7131
   9023SM   H5G12125   7.101   1.586   3.750 -0.2387  1.5639  0.0706
   9023SM   C6F12126   7.077   1.503   3.939  0.6778 -0.7184 -0.8324
   9023SM   H6F12127   6.999   1.504   4.019  0.3621  1.4971 -1.1005
   9023SM   H6G12128   7.156   1.570   3.981 -0.0682 -0.5596  0.3945
   9023SM   C7F12129   7.149   1.366   3.943  0.4758 -0.3051  0.7530
   9023SM   H7F12130   7.225   1.363   3.862  0.5333 -1.1719  0.8298
   9023SM   H7G12131   7.070   1.293   3.915 -1.3461  1.6814  0.5156
   9023SM   C8F12132   7.219   1.333   4.079  0.1165  0.0303  0.1128
   9023SM   H8F12133   7.282   1.414   4.121  0.5132 -1.2014  1.9948
   9023SM   H8G12134   7.289   1.247   4.069  0.6632  0.5510 -0.6399
   9023SM   C9F12135   7.128   1.290   4.187 -0.1533 -0.2567 -0.1725
   9023SM   H9F12136   7.068   1.199   4.164  0.2786 -0.8409  0.9417
   9023SM   H9G12137   7.061   1.375   4.210  1.8128  1.9269 -2.0231
   9023SM  C10F12138   7.212   1.253   4.310  0.1958  0.0055  0.2161
   9023SM  H10F12139   7.273   1.343   4.334 -0.1639  0.2915  0.0779
   9023SM  H10G12140   7.277   1.167   4.285 -0.7530 -0.7561  0.2860
   9023SM  C11F12141   7.116   1.218   4.425  0.9056  0.0562  0.2632
   9023SM  H11F12142   7.059   1.126   4.399  1.1211 -1.4967  4.5169
   9023SM  H11G12143   7.041   1.300   4.439  1.8459  0.5763  2.6778
   9023SM  C12F12144   7.189   1.186   4.554 -0.1453 -0.2637  0.6049
   9023SM  H12F12145   7.226   1.286   4.583 -1.1687  0.7961 -1.5222
   9023SM  H12G12146   7.264   1.109   4.526 -0.6845 -1.6973  2.7991
   9023SM  C13F12147   7.097   1.123   4.665 -0.0958 -0.0299  0.0292
   9023SM  H13F12148   7.041   1.036   4.626 -0.7461  0.5384 -0.3369
   9023SM  H13G12149   7.021   1.199   4.695 -0.4783 -0.4663  0.1659
   9023SM  C14F12150   7.169   1.070   4.789 -0.4868  0.1087 -0.1311
   9023SM  H14F12151   7.211   1.158   4.843  1.3574 -0.3455 -0.7626
   9023SM  H14G12152   7.250   0.999   4.762 -0.7432  0.2465 -1.2898
   9023SM  C15F12153   7.071   1.000   4.887  0.5797 -0.4783  0.6293
   9023SM  H15F12154   7.119   0.944   4.971 -0.8917 -1.8416  0.6082
   9023SM  H15G12155   7.007   0.932   4.828 -1.0578  0.9921  0.6324
   9023SM  C16F12156   6.974   1.101   4.957  0.0454  0.2154 -0.3406
   9023SM  H16F12157   6.897   1.144   4.889 -3.0231 -0.0668  2.7042
   9023SM  H16G12158   7.034   1.178   5.010 -0.9916  0.0198  1.1850
   9023SM  C17F12159   6.886   1.035   5.071 -0.1440  0.0509  0.1783
   9023SM  H17F12160   6.965   0.983   5.129 -1.3755  0.3444  2.2178
   9023SM  H17G12161   6.823   0.957   5.024  0.0293 -0.0161  0.0608
   9023SM  C18F12162   6.813   1.152   5.141  0.2185  0.1901 -0.1190
   9023SM  H18F12163   6.758   1.208   5.063 -4.1351 -2.7628  0.4770
   9023SM  H18G12164   6.882   1.221   5.193 -0.7355  1.7594 -0.8756
   9023SM  C19F12165   6.698   1.107   5.232 -0.0479  0.8605 -0.2408
   9023SM  H19F12166   6.751   1.041   5.304 -1.0117  0.2048 -0.1223
   9023SM  H19G12167   6.628   1.037   5.181 -0.5379  1.8416 -0.9616
   9023SM  C20F12168   6.626   1.221   5.308  0.1075  0.7118  0.3028
   9023SM  H20F12169   6.699   1.282   5.364  1.6833 -0.2245 -0.6561
   9023SM  H20G12170   6.561   1.168   5.381  0.6281 -0.8920 -0.3302
   9023SM  C21F12171   6.535   1.317   5.223 -0.1941  0.4996 -0.4153
   9023SM  H21F12172   6.603   1.344   5.140  0.8342 -0.8884 -0.0701
   9023SM  H21G12173   6.518   1.398   5.297  2.9581 -0.6291  1.8027
   9023SM  C22F12174   6.408   1.247   5.173 -0.3232 -0.1711  0.9424
   9023SM  H22F12175   6.341   1.221   5.257 -2.0524 -1.7161 -0.8252
   9023SM  H22G12176   6.436   1.159   5.112  0.1410  2.2444 -2.6333
   9023SM  C23F12177   6.327   1.343   5.088 -0.6605  0.0988 -0.4762
   9023SM  H23F12178   6.292   1.435   5.139 -1.0548  0.0408 -0.6351
   9023SM  H23G12179   6.233   1.287   5.068 -0.0740 -0.5820 -1.4181
   9023SM  H23H12180   6.371   1.377   4.992 -0.5169  0.8349 -0.1566
   9123SM     N12181   6.988   5.737   2.826 -0.7792  0.3658 -0.2021
   9123SM   C1512182   7.039   5.734   2.684  0.5819  0.1461 -0.1869
   9123SM  H15A12183   7.068   5.834   2.654  1.6027 -0.6557 -2.0410
   9123SM  H15B12184   6.962   5.692   2.621  0.3150 -1.7711  1.3504
   9123SM  H15C12185   7.126   5.672   2.673 -0.1346 -0.5302 -2.6149
   9123SM   C1412186   7.085   5.782   2.925  0.1398 -0.3608 -0.3243
   9123SM  H14A12187   7.033   5.767   3.018 -0.5685 -0.3805 -0.7129
   9123SM  H14B12188   7.116   5.884   2.909 -0.1192 -0.4776 -1.7352
   9123SM  H14C12189   7.174   5.722   2.920  0.4888  0.2295 -1.6978
   9123SM   C1312190   6.875   5.835   2.832  0.2332 -0.0956 -0.2043
   9123SM  H13A12191   6.900   5.924   2.776  1.0138 -0.5893 -0.6635
   9123SM  H13B12192   6.849   5.858   2.934 -0.3758 -0.0926 -0.3569
   9123SM  H13C12193   6.787   5.801   2.780 -0.1518  0.7627 -0.1389
   9123SM   C1212194   6.934   5.602   2.862  0.4625  0.4029 -0.8990
   9123SM  H12A12195   6.848   5.594   2.798 -0.6115  0.7202  0.4375
   9123SM  H12B12196   6.897   5.603   2.964 -0.0061  0.9569 -1.0686
   9123SM   C1112197   7.025   5.479   2.847 -0.2459 -0.1776 -0.0812
   9123SM  H11A12198   7.044   5.468   2.739  0.4081 -1.5433  0.1494
   9123SM  H11B12199   6.962   5.393   2.878 -2.2971  1.3549  0.2023
   9123SM     P12200   7.287   5.489   2.859 -0.4523  0.1871 -0.2389
   9123SM   O1312201   7.277   5.517   2.715 -0.5373  0.2322  0.0485
   9123SM   O1412202   7.378   5.581   2.936  0.1181 -0.7598 -0.1734
   9123SM   O1112203   7.335   5.335   2.884 -0.0255 -0.1384  0.4077
   9123SM   O1212204   7.146   5.501   2.925 -0.2284  0.1433  0.2758
   9123SM   C1S12205   7.414   5.288   2.994  0.2211 -0.5544  0.0096
   9123SM   H1S12206   7.483   5.361   3.042 -0.2413 -0.9386  1.3166
   9123SM   H1T12207   7.472   5.198   2.963  2.2981  1.2443 -1.6036
   9123SM    NF12208   7.410   5.233   3.231  0.0689  0.2123  0.9720
   9123SM   HNF12209   7.456   5.144   3.234  0.1213  0.0247 -2.2463
   9123SM   C2S12210   7.319   5.255   3.118  1.1692  0.1713 -0.6773
   9123SM   H2S12211   7.257   5.346   3.137  2.8550  1.6007 -1.7049
   9123SM   C3S12212   7.222   5.138   3.090  0.2700  0.4110 -0.0306
   9123SM   H3S12213   7.274   5.046   3.055  0.1425 -0.6034  2.3026
   9123SM    O312214   7.123   5.173   2.990 -0.5844 -0.2558 -0.3287
   9123SM   HO312215   7.150   5.260   2.958  1.2233 -1.2376 -1.6765
   9123SM   C4S12216   7.140   5.106   3.214 -0.2921 -0.1478 -0.1527
   9123SM   H4S12217   7.067   5.182   3.242 -1.4242 -1.1716 -0.2644
   9123SM   C5S12218   7.165   4.992   3.290 -0.8432 -0.5246  1.1511
   9123SM   H5S12219   7.237   4.922   3.245 -2.6725 -0.3214 -2.3952
   9123SM   C6S12220   7.097   4.947   3.416 -0.2953 -0.4264 -0.2584
   9123SM   H6S12221   7.040   4.852   3.406  0.5202 -1.0518  0.7798
   9123SM   H6T12222   7.015   5.016   3.446  0.0219 -0.1163 -0.0985
   9123SM   C7S12223   7.187   4.901   3.535 -0.2254  0.7672  0.3784
   9123SM   H7S12224   7.214   5.001   3.576  0.1010  1.8573 -2.2661
   9123SM   H7T12225   7.278   4.849   3.499 -0.1075  2.0647 -1.3086
   9123SM   C8S12226   7.108   4.833   3.648 -0.0927  0.7370  0.4988
   9123SM   H8S12227   7.103   4.723   3.635  2.2405  0.1496  3.4751
   9123SM   H8T12228   7.009   4.882   3.644 -0.3964  0.0534 -1.2136
   9123SM   C9S12229   7.182   4.861   3.777 -0.2103  0.0656 -0.6444
   9123SM   H9S12230   7.146   4.962   3.809 -1.7427 -0.8726  0.7832
   9123SM   H9T12231   7.291   4.856   3.760 -0.1745 -1.3296 -0.1293
   9123SM  C10S12232   7.154   4.763   3.891  0.3040  0.3174 -0.7550
   9123SM  H10S12233   7.234   4.764   3.968 -0.0391 -1.1958 -0.3419
   9123SM  H10T12234   7.136   4.657   3.863  2.5215 -0.3062 -0.0291
   9123SM  C11S12235   7.025   4.791   3.973  0.4829 -0.0023  0.3675
   9123SM  H11S12236   6.998   4.697   4.026 -0.3035  0.0489  0.0696
   9123SM  H11T12237   6.947   4.813   3.897 -0.6028  0.3489  1.5487
   9123SM  C12S12238   7.033   4.907   4.076  0.4074  0.0951 -0.0422
   9123SM  H12S12239   6.986   4.996   4.029 -0.9261 -0.6177 -0.1049
   9123SM  H12T12240   7.139   4.926   4.104 -0.1757  1.4176  1.3265
   9123SM  C13S12241   6.950   4.881   4.203 -0.0581 -0.2001  0.2244
   9123SM  H13S12242   6.997   4.915   4.298 -1.4363 -0.0957  0.8960
   9123SM  H13T12243   6.944   4.771   4.214 -2.4417  0.0658  2.5435
   9123SM  C14S12244   6.805   4.928   4.192 -0.0662  0.3036 -0.0547
   9123SM  H14S12245   6.745   4.846   4.147 -3.2656  2.7297 -0.5978
   9123SM  H14T12246   6.794   5.018   4.128  0.0759  1.0363  0.9232
   9123SM  C15S12247   6.746   4.960   4.325  0.4642  0.0316 -0.0784
   9123SM  H15S12248   6.796   5.039   4.385 -1.8460 -0.8485  3.2948
   9123SM  H15T12249   6.757   4.872   4.392  1.2946 -0.4990 -0.8806
   9123SM  C16S12250   6.599   5.011   4.314 -0.3943 -0.1024  0.7197
   9123SM  H16S12251   6.531   4.937   4.267 -1.3457  1.9421 -1.3243
   9123SM  H16T12252   6.603   5.091   4.236  3.0405  0.7129  1.5499
   9123SM  C17S12253   6.537   5.076   4.439  0.1664 -0.3684  0.3391
   9123SM  H17S12254   6.435   5.114   4.418 -0.1096 -1.7600 -1.0632
   9123SM  H17T12255   6.610   5.157   4.461  1.1531 -0.9671 -0.6325
   9123SM  C18S12256   6.513   4.979   4.563  0.0507 -0.5815  0.9529
   9123SM  H18S12257   6.571   4.886   4.546  1.1612  0.2958 -0.3371
   9123SM  H18T12258   6.404   4.960   4.557 -0.0640  0.3203 -2.8748
   9123SM  H18U12259   6.537   5.016   4.664  2.4754  1.3733 -0.2178
   9123SM   C1F12260   7.452   5.332   3.307 -0.3443 -0.0787  0.5172
   9123SM    OF12261   7.410   5.443   3.285  0.0262 -0.9785  0.1074
   9123SM   C2F12262   7.553   5.304   3.410 -0.0110 -0.3642  0.2166
   9123SM   H2F12263   7.629   5.385   3.406  2.9165 -2.9494 -1.3006
   9123SM   H2G12264   7.598   5.203   3.398 -1.6272 -1.2683  1.4135
   9123SM   C3F12265   7.500   5.317   3.547  0.1345 -0.3077  0.1173
   9123SM   H3F12266   7.450   5.413   3.569 -1.7460 -1.0642 -0.6883
   9123SM   H3G12267   7.588   5.300   3.613  0.2694  1.5674  0.4683
   9123SM   C4F12268   7.408   5.198   3.584  0.7310 -0.5966  0.2053
   9123SM   H4F12269   7.460   5.100   3.574  2.9874  0.5980 -0.4381
   9123SM   H4G12270   7.312   5.193   3.528  0.4016 -2.2668  0.8499
   9123SM   C5F12271   7.360   5.201   3.734 -0.2353  0.4123  0.0708
   9123SM   H5F12272   7.454   5.226   3.789  0.7431 -0.9410 -0.9197
   9123SM   H5G12273   7.332   5.099   3.767  1.2628 -0.8906 -2.3793
   9123SM   C6F12274   7.261   5.312   3.769 -0.1812 -0.6471  0.0662
   9123SM   H6F12275   7.166   5.285   3.719  0.4844 -0.4748 -1.3230
   9123SM   H6G12276   7.298   5.410   3.732  0.6901 -1.1245 -0.3540
   9123SM   C7F12277   7.240   5.334   3.920  0.1344 -0.0966 -0.0197
   9123SM   H7F12278   7.187   5.432   3.923  0.8504  0.2923  0.1035
   9123SM   H7G12279   7.339   5.351   3.968  0.9615  0.8121 -1.9068
   9123SM   C8F12280   7.166   5.220   3.988 -0.0829 -0.5269 -0.2132
   9123SM   H8F12281   7.225   5.127   3.981 -0.0634 -0.4878 -0.6260
   9123SM   H8G12282   7.083   5.190   3.919  1.9024 -2.5829 -1.8584
   9123SM   C9F12283   7.123   5.259   4.130 -0.4824  0.0255 -0.4298
   9123SM   H9F12284   7.210   5.315   4.170  0.4445 -0.8767 -1.1175
   9123SM   H9G12285   7.106   5.170   4.194 -1.6887  0.3812 -0.2356
   9123SM  C10F12286   7.002   5.354   4.131  0.1260 -0.0943  0.0360
   9123SM  H10F12287   6.950   5.318   4.039 -0.6590  2.8153 -0.7575
   9123SM  H10G12288   7.039   5.457   4.114 -0.5181  0.0686 -0.4714
   9123SM  C11F12289   6.913   5.345   4.248  0.4874 -0.1458  0.1700
   9123SM  H11F12290   6.872   5.244   4.273  0.9964 -0.4694 -0.2702
   9123SM  H11G12291   6.825   5.407   4.220 -0.3535 -1.9469 -1.4705
   9123SM  C12F12292   6.987   5.392   4.376  0.3081  0.4224 -0.0954
   9123SM  H12F12293   7.036   5.491   4.362 -1.7893  1.3275 -1.5522
   9123SM  H12G12294   7.073   5.322   4.382  0.0981  0.1121 -0.6277
   9123SM  C13F12295   6.903   5.392   4.507 -0.2393  0.9358  0.8381
   9123SM  H13F12296   6.884   5.288   4.539  0.0966  0.1909 -1.2075
   9123SM  H13G12297   6.804   5.441   4.495 -0.8965 -0.7872 -1.4436
   9123SM  C14F12298   6.971   5.445   4.642  0.3332  0.4069  0.4884
   9123SM  H14F12299   6.892   5.488   4.708  0.1941 -0.7541  1.1273
   9123SM  H14G12300   7.043   5.525   4.616  1.1833 -0.0497  1.3601
   9123SM  C15F12301   7.046   5.326   4.705 -0.2252  0.2218  0.9767
   9123SM  H15F12302   7.095   5.263   4.629 -1.3842  0.9373 -0.4193
   9123SM  H15G12303   6.968   5.265   4.755  1.6783 -2.6335  0.6802
   9123SM  C16F12304   7.141   5.365   4.815 -0.5490  0.1245 -0.7003
   9123SM  H16F12305   7.179   5.271   4.862 -3.0221 -1.0749 -0.9679
   9123SM  H16G12306   7.087   5.426   4.891  0.4335 -0.6070  0.6316
   9123SM  C17F12307   7.260   5.444   4.761  0.2552 -0.1503  0.4690
   9123SM  H17F12308   7.318   5.487   4.846  0.7983 -1.9298  1.0573
   9123SM  H17G12309   7.220   5.521   4.691  0.8100 -1.2672 -1.1398
   9123SM  C18F12310   7.371   5.366   4.695  0.3061  0.0415 -0.1058
   9123SM  H18F12311   7.319   5.322   4.607  1.4935 -3.3866  0.7288
   9123SM  H18G12312   7.402   5.293   4.773 -1.1831 -0.6903 -0.1521
   9123SM  C19F12313   7.492   5.441   4.644 -0.9417 -0.2887 -0.0476
   9123SM  H19F12314   7.458   5.527   4.582 -0.9296 -0.7377 -0.6856
   9123SM  H19G12315   7.531   5.375   4.564 -2.2372 -0.2716 -0.7030
   9123SM  C20F12316   7.601   5.488   4.745 -0.0663 -0.4945  0.3307
   9123SM  H20F12317   7.645   5.400   4.798  0.3279  0.1901  1.1674
   9123SM  H20G12318   7.543   5.550   4.816  1.5893 -1.2328  2.4333
   9123SM  C21F12319   7.718   5.566   4.690  0.2294  0.1957  0.2963
   9123SM  H21F12320   7.692   5.621   4.597  0.0614  0.1226  0.3007
   9123SM  H21G12321   7.805   5.497   4.675 -0.4298 -0.1808 -2.3898
   9123SM  C22F12322   7.742   5.686   4.777 -0.4601  0.5309 -0.5800
   9123SM  H22F12323   7.644   5.730   4.806 -0.9461 -1.4581  1.0612
   9123SM  H22G12324   7.791   5.768   4.720  1.8959  0.4164  1.1071
   9123SM  C23F12325   7.805   5.653   4.915  0.1019 -0.0881  0.1318
   9123SM  H23F12326   7.780   5.740   4.980 -0.3593 -0.1443  0.0353
   9123SM  H23G12327   7.916   5.647   4.911  0.1704 -2.5550  2.6976
   9123SM  H23H12328   7.771   5.557   4.959  0.6387 -0.7271 -0.8027
   9223SM     N12329   4.816   2.316   2.830  0.1541 -0.2778  0.1885
   9223SM   C1512330   4.695   2.330   2.924 -0.3395  0.1245  0.9648
   9223SM  H15A12331   4.627   2.247   2.911  1.4091 -1.2850  0.3715
   9223SM  H15B12332   4.652   2.427   2.906  1.5274  0.4996 -2.3626
   9223SM  H15C12333   4.729   2.321   3.026  0.3592 -0.0967  0.7182
   9223SM   C1412334   4.901   2.429   2.851 -0.2898  0.3567 -0.3508
   9223SM  H14A12335   4.850   2.524   2.845 -0.8796 -0.0367 -2.4510
   9223SM  H14B12336   4.992   2.428   2.793 -0.5633  0.1097 -0.7827
   9223SM  H14C12337   4.930   2.425   2.955  0.3188  0.1532 -0.5189
   9223SM   C1312338   4.887   2.194   2.861  0.2503  0.4281 -0.1457
   9223SM  H13A12339   4.817   2.113   2.844  1.2992 -0.2280 -1.6058
   9223SM  H13B12340   4.927   2.188   2.961 -0.2296 -1.4869 -0.0253
   9223SM  H13C12341   4.970   2.181   2.793  0.8507  0.5259  0.5529
   9223SM   C1212342   4.763   2.302   2.683  0.6912 -0.4967  0.0761
   9223SM  H12A12343   4.849   2.273   2.624  1.6358  1.9478  0.1357
   9223SM  H12B12344   4.723   2.396   2.647  3.1309 -0.6123 -3.4456
   9223SM   C1112345   4.647   2.205   2.653 -0.5791  0.2656  0.0239
   9223SM  H11A12346   4.626   2.194   2.544 -2.8043  0.9419  0.3397
   9223SM  H11B12347   4.550   2.245   2.689 -1.0971  0.6486 -1.7035
   9223SM     P12348   4.578   1.981   2.756  0.4351  0.5467  0.2114
   9223SM   O1312349   4.453   2.003   2.675 -0.6192 -0.2807  0.3045
   9223SM   O1412350   4.640   1.848   2.754  0.0295  0.2105 -0.3941
   9223SM   O1112351   4.548   2.026   2.906 -0.1946  0.2410 -0.4741
   9223SM   O1212352   4.683   2.078   2.704 -0.3462  0.4882  0.4481
   9223SM   C1S12353   4.623   1.969   3.013 -0.1193 -0.3784 -0.0880
   9223SM   H1S12354   4.721   2.020   3.018  0.2305 -1.0392 -0.0359
   9223SM   H1T12355   4.652   1.862   3.001 -0.2741 -0.7034  2.0310
   9223SM    NF12356   4.629   1.931   3.258  0.4825 -1.0029 -0.5985
   9223SM   HNF12357   4.614   1.836   3.286 -0.6733 -0.1117  2.1485
   9223SM   C2S12358   4.544   1.977   3.152  0.0511 -0.8398  0.4681
   9223SM   H2S12359   4.515   2.083   3.167 -0.5799 -0.5788 -2.0700
   9223SM   C3S12360   4.416   1.884   3.137 -0.5801 -0.2791 -0.2768
   9223SM   H3S12361   4.445   1.778   3.149  0.7010  0.2064  1.3637
   9223SM    O312362   4.347   1.904   3.010  0.4707 -0.2386 -0.1453
   9223SM   HO312363   4.411   1.959   2.963 -1.1286 -0.2040 -2.4191
   9223SM   C4S12364   4.327   1.915   3.262  0.0339  0.4444 -0.2856
   9223SM   H4S12365   4.340   1.844   3.345  0.2194  0.8420  0.0296
   9223SM   C5S12366   4.230   2.004   3.275 -0.6592 -0.0666  0.3673
   9223SM   H5S12367   4.208   2.071   3.191  2.2017 -0.2861 -0.6685
   9223SM   C6S12368   4.148   2.029   3.393 -0.2775 -0.1048 -0.7712
   9223SM   H6S12369   4.041   2.011   3.367 -0.5086  1.7877 -1.2660
   9223SM   H6T12370   4.158   2.139   3.403 -0.9719  0.0098 -1.2348
   9223SM   C7S12371   4.176   1.963   3.533 -0.5783  0.2073  0.7290
   9223SM   H7S12372   4.285   1.973   3.549 -0.3283 -1.4657  0.2790
   9223SM   H7T12373   4.170   1.852   3.536  2.0265  0.0331  3.5513
   9223SM   C8S12374   4.111   2.030   3.645  0.6673 -0.1428 -0.3265
   9223SM   H8S12375   4.002   2.010   3.646  0.7296 -0.5605  1.5511
   9223SM   H8T12376   4.136   2.138   3.658  0.6250 -0.2743  0.9440
   9223SM   C9S12377   4.152   1.964   3.783 -0.4869  0.0432  0.0736
   9223SM   H9S12378   4.261   1.944   3.786 -0.3209  0.9196  0.1770
   9223SM   H9T12379   4.098   1.867   3.781 -2.9068  1.3079 -0.2292
   9223SM  C10S12380   4.110   2.032   3.913 -0.0384 -0.3423  0.1392
   9223SM  H10S12381   4.000   2.025   3.925  0.0843 -0.3951  1.3903
   9223SM  H10T12382   4.130   2.141   3.903 -1.3196 -0.1067 -0.0575
   9223SM  C11S12383   4.184   1.975   4.029 -0.1453  0.2649 -0.4249
   9223SM  H11S12384   4.205   2.063   4.092  1.3455  0.9716 -1.8402
   9223SM  H11T12385   4.282   1.930   4.003  1.2233  1.9041  1.6113
   9223SM  C12S12386   4.104   1.866   4.111  0.1679 -0.0711  0.4427
   9223SM  H12S12387   4.048   1.808   4.035  1.1718  1.1557 -1.3266
   9223SM  H12T12388   4.023   1.912   4.172 -0.2862 -0.3452  0.0596
   9223SM  C13S12389   4.191   1.786   4.205 -0.0475  0.5939  0.0563
   9223SM  H13S12390   4.255   1.853   4.265  0.6224  0.1039 -0.0952
   9223SM  H13T12391   4.265   1.726   4.147 -2.0883 -3.9996  1.7017
   9223SM  C14S12392   4.112   1.680   4.292  0.1279 -0.0318 -0.7854
   9223SM  H14S12393   4.187   1.620   4.347 -0.8085 -0.0528  0.5240
   9223SM  H14T12394   4.056   1.613   4.224  0.1247 -0.3745 -0.4489
   9223SM  C15S12395   4.019   1.740   4.398 -0.0630 -0.6262 -0.4263
   9223SM  H15S12396   3.945   1.661   4.423 -2.0854  1.2650 -0.2296
   9223SM  H15T12397   3.961   1.817   4.344  1.5535  0.8066 -0.2159
   9223SM  C16S12398   4.089   1.802   4.521  0.3786  0.2651  0.6605
   9223SM  H16S12399   4.191   1.836   4.491  1.2104 -1.0717  1.8631
   9223SM  H16T12400   4.114   1.726   4.597 -0.0713  0.2900  0.8374
   9223SM  C17S12401   4.012   1.918   4.574  0.0040 -0.5940  1.0598
   9223SM  H17S12402   3.909   1.884   4.594 -0.5803 -0.1373 -0.8978
   9223SM  H17T12403   4.001   1.997   4.496 -1.4810 -1.9429 -0.1733
   9223SM  C18S12404   4.069   1.978   4.702  0.4531 -0.5157  0.4785
   9223SM  H18S12405   4.175   2.009   4.691  0.1299  1.8126  2.9362
   9223SM  H18T12406   4.055   1.909   4.788 -1.2876 -0.7920  0.0253
   9223SM  H18U12407   4.011   2.070   4.726  1.5058 -0.2374  2.1076
   9223SM   C1F12408   4.728   1.998   3.309 -0.3056  0.1169 -0.0338
   9223SM    OF12409   4.740   2.114   3.280  0.0379 -0.7766  0.2905
   9223SM   C2F12410   4.821   1.937   3.412 -0.0870  0.1530  0.1785
   9223SM   H2F12411   4.911   1.910   3.352 -0.2359  1.2693 -0.5883
   9223SM   H2G12412   4.782   1.840   3.448  1.4476 -0.4586  0.2782
   9223SM   C3F12413   4.858   2.030   3.530  0.2296  0.3468 -0.0519
   9223SM   H3F12414   4.760   2.062   3.573 -0.2472 -1.5745  0.3699
   9223SM   H3G12415   4.913   2.118   3.491  1.0117  0.5443  1.4510
   9223SM   C4F12416   4.948   1.956   3.629 -0.0103 -0.6602  0.0404
   9223SM   H4F12417   5.024   1.888   3.585 -0.3870 -2.2304  1.7197
   9223SM   H4G12418   4.882   1.886   3.684  0.2521  0.1858  1.4679
   9223SM   C5F12419   5.011   2.047   3.738  0.9174  0.5197 -0.2468
   9223SM   H5F12420   5.077   2.127   3.699 -0.3449  1.0381 -1.3922
   9223SM   H5G12421   5.083   1.972   3.778  1.0944  0.0973 -1.3145
   9223SM   C6F12422   4.918   2.100   3.851 -0.4295  0.3016  0.9607
   9223SM   H6F12423   4.845   2.019   3.869 -1.0890  0.5482 -0.4590
   9223SM   H6G12424   4.857   2.183   3.810  1.0904  0.2606 -1.6157
   9223SM   C7F12425   4.988   2.140   3.983 -0.9590  0.1218 -0.0083
   9223SM   H7F12426   5.051   2.050   3.998  0.1510  0.4114 -2.3618
   9223SM   H7G12427   4.913   2.159   4.063 -0.7359 -1.3170  0.5586
   9223SM   C8F12428   5.068   2.266   3.977  0.1526  0.0152 -0.2647
   9223SM   H8F12429   5.003   2.349   3.942  1.8136  0.5843 -2.1785
   9223SM   H8G12430   5.151   2.251   3.904  0.0344 -3.3206  0.1380
   9223SM   C9F12431   5.144   2.308   4.112  0.9937 -0.1337 -0.0990
   9223SM   H9F12432   5.198   2.400   4.083 -0.7023  0.3747 -1.8981
   9223SM   H9G12433   5.201   2.221   4.150 -0.4131 -0.5516  1.1659
   9223SM  C10F12434   5.049   2.351   4.227  0.3740 -0.0515 -0.0744
   9223SM  H10F12435   4.985   2.264   4.250 -0.0340 -0.2139 -1.7452
   9223SM  H10G12436   4.985   2.438   4.201 -1.3367 -1.4319 -0.7019
   9223SM  C11F12437   5.137   2.393   4.350  0.1090  0.0078  0.3044
   9223SM  H11F12438   5.209   2.469   4.313  0.3539 -0.6415 -0.5833
   9223SM  H11G12439   5.199   2.304   4.373  0.4684  0.0621 -0.4328
   9223SM  C12F12440   5.063   2.440   4.475  0.1453 -0.0229 -0.3442
   9223SM  H12F12441   4.995   2.519   4.435 -1.9270 -2.0636 -1.1149
   9223SM  H12G12442   5.142   2.477   4.543  1.6858  0.3333 -2.2511
   9223SM  C13F12443   4.984   2.328   4.530  0.1187 -0.3150  0.5796
   9223SM  H13F12444   5.007   2.231   4.481 -0.5332  0.0835 -0.5640
   9223SM  H13G12445   4.882   2.357   4.497  0.7102  0.1150 -0.9743
   9223SM  C14F12446   4.998   2.302   4.685  0.0206  0.0034  0.6469
   9223SM  H14F12447   5.101   2.275   4.716  0.0261 -0.6176  0.0957
   9223SM  H14G12448   4.924   2.221   4.704  1.7789 -2.1638 -1.1810
   9223SM  C15F12449   4.951   2.429   4.761 -0.0828  0.7072  0.1014
   9223SM  H15F12450   4.856   2.468   4.719 -1.0828  0.2741  1.8499
   9223SM  H15G12451   5.036   2.500   4.753 -0.9013  1.5588 -1.3008
   9223SM  C16F12452   4.913   2.393   4.897 -0.6449 -0.2415 -0.0488
   9223SM  H16F12453   4.999   2.347   4.951 -2.0021 -1.0147  1.5452
   9223SM  H16G12454   4.837   2.313   4.905  0.1054 -0.9716 -0.1401
   9223SM  C17F12455   4.865   2.528   4.968 -0.0215 -0.2614 -0.3562
   9223SM  H17F12456   4.772   2.562   4.918 -0.5202 -2.6224 -1.2094
   9223SM  H17G12457   4.945   2.604   4.956 -1.9548  2.1866  1.2930
   9223SM  C18F12458   4.832   2.507   5.114  0.6119 -0.6231 -0.1189
   9223SM  H18F12459   4.746   2.440   5.133 -0.4029  0.7511  0.2925
   9223SM  H18G12460   4.807   2.608   5.153  1.6367  0.0538 -1.1372
   9223SM  C19F12461   4.948   2.448   5.204  0.3028 -0.3067  0.7918
   9223SM  H19F12462   5.047   2.480   5.165 -1.0470  0.8334 -1.9915
   9223SM  H19G12463   4.947   2.337   5.198  1.0679 -0.2977  0.4543
   9223SM  C20F12464   4.931   2.487   5.351 -0.1553  0.2269 -0.0564
   9223SM  H20F12465   4.962   2.589   5.381  0.7274 -0.0729  0.0971
   9223SM  H20G12466   5.007   2.425   5.403 -1.1993 -0.7433  0.3670
   9223SM  C21F12467   4.786   2.461   5.409 -0.2955  0.4431 -0.0714
   9223SM  H21F12468   4.741   2.368   5.367 -1.4554  0.2763  1.4749
   9223SM  H21G12469   4.713   2.540   5.379 -0.8608  0.0300  0.1987
   9223SM  C22F12470   4.792   2.466   5.565 -0.2416 -0.5643 -0.1833
   9223SM  H22F12471   4.833   2.562   5.601  1.7953 -1.8968  1.2280
   9223SM  H22G12472   4.859   2.385   5.600  0.1343 -0.3653 -0.4416
   9223SM  C23F12473   4.655   2.441   5.629  0.6485  0.4267  0.3346
   9223SM  H23F12474   4.623   2.337   5.606 -0.8780  0.8985  0.2606
   9223SM  H23G12475   4.583   2.506   5.577 -0.2098 -1.5316 -1.0343
   9223SM  H23H12476   4.669   2.454   5.739  1.2558  2.9815  0.0263
   9323SM     N12477   7.359   5.020   2.645  0.4460 -0.7972 -0.0089
   9323SM   C1512478   7.427   5.153   2.668  0.5418 -0.2607  0.1414
   9323SM  H15A12479   7.533   5.155   2.648  0.5031 -0.1434 -0.0665
   9323SM  H15B12480   7.411   5.184   2.770  0.6206  2.6025 -0.6309
   9323SM  H15C12481   7.384   5.227   2.602  0.3332  0.3854  0.9786
   9323SM   C1412482   7.215   5.051   2.640 -0.3354  0.4170  0.2495
   9323SM  H14A12483   7.182   5.097   2.732 -3.4870 -2.1674  0.5847
   9323SM  H14B12484   7.156   4.961   2.636 -0.4500  0.5303 -0.7091
   9323SM  H14C12485   7.176   5.117   2.564  1.3248  0.4712 -0.6056
   9323SM   C1312486   7.403   4.962   2.512  0.2549  0.3733 -0.9862
   9323SM  H13A12487   7.371   4.859   2.522  1.1013  0.2790  1.3957
   9323SM  H13B12488   7.510   4.958   2.506  0.1570 -1.8696 -2.3731
   9323SM  H13C12489   7.352   5.010   2.430 -0.9726  0.9551  0.0730
   9323SM   C1212490   7.391   4.936   2.765  0.2296  0.2374 -0.1963
   9323SM  H12A12491   7.342   4.972   2.855 -0.6653  2.6331 -1.5563
   9323SM  H12B12492   7.495   4.935   2.795 -0.1542 -4.0712  1.8391
   9323SM   C1112493   7.361   4.783   2.747  0.9187  0.1040  0.9008
   9323SM  H11A12494   7.257   4.784   2.709  0.9403  0.3868  0.8459
   9323SM  H11B12495   7.349   4.731   2.845  0.9892 -2.8223 -0.5285
   9323SM     P12496   7.601   4.694   2.727  0.2141 -0.1457 -0.1857
   9323SM   O1312497   7.674   4.593   2.652  0.4509 -0.2096 -0.0034
   9323SM   O1412498   7.672   4.826   2.738 -0.0787  0.4138 -0.5734
   9323SM   O1112499   7.579   4.646   2.875 -0.0212  0.4136  0.3935
   9323SM   O1212500   7.457   4.719   2.663 -0.0333  0.3227 -0.0240
   9323SM   C1S12501   7.539   4.514   2.898  0.3755  0.1714 -0.1237
   9323SM   H1S12502   7.609   4.445   2.847  0.3881  0.2780 -0.2508
   9323SM   H1T12503   7.434   4.498   2.868  0.4728 -0.8875  0.0796
   9323SM    NF12504   7.527   4.345   3.070 -0.3878  0.3373  0.4280
   9323SM   HNF12505   7.431   4.318   3.079  0.0022 -0.9495  0.9800
   9323SM   C2S12506   7.553   4.482   3.042  0.7573 -0.1247 -0.5808
   9323SM   H2S12507   7.658   4.501   3.074  0.3656  0.9049  0.1846
   9323SM   C3S12508   7.451   4.569   3.128  0.2396  0.1290 -0.3567
   9323SM   H3S12509   7.349   4.567   3.086 -0.2492 -0.1569  0.8021
   9323SM    O312510   7.489   4.707   3.125 -0.0634 -0.1397 -0.0446
   9323SM   HO312511   7.562   4.712   3.063  0.2649 -0.4139  0.3112
   9323SM   C4S12512   7.453   4.536   3.277  0.3201 -0.0919 -0.1435
   9323SM   H4S12513   7.545   4.565   3.328  1.0250 -2.5385  0.0945
   9323SM   C5S12514   7.347   4.478   3.342  0.2989 -0.4126  0.1794
   9323SM   H5S12515   7.252   4.462   3.289  1.2208 -1.3577 -1.2498
   9323SM   C6S12516   7.359   4.454   3.488 -0.5326 -0.5301 -0.0666
   9323SM   H6S12517   7.397   4.353   3.517  0.2253 -0.3126 -0.2851
   9323SM   H6T12518   7.258   4.449   3.536 -0.4219  0.3603  0.2760
   9323SM   C7S12519   7.447   4.546   3.574 -0.0423  0.2968  0.0392
   9323SM   H7S12520   7.421   4.651   3.546 -1.3455  0.0307  0.1786
   9323SM   H7T12521   7.555   4.524   3.563  0.1947  2.3823 -3.2006
   9323SM   C8S12522   7.400   4.553   3.723 -0.6870  0.2768  0.8280
   9323SM   H8S12523   7.292   4.575   3.737 -0.7591  1.1111 -0.8517
   9323SM   H8T12524   7.443   4.644   3.770  1.1902  0.4679 -1.0960
   9323SM   C9S12525   7.435   4.435   3.806  0.1601 -0.1262 -0.1296
   9323SM   H9S12526   7.544   4.444   3.827 -0.5090  2.6773  2.8161
   9323SM   H9T12527   7.426   4.344   3.742 -0.3112 -0.5934  0.5834
   9323SM  C10S12528   7.366   4.415   3.946  0.2010  0.5022 -0.3654
   9323SM  H10S12529   7.390   4.317   3.993 -0.9002  0.7568  0.7828
   9323SM  H10T12530   7.259   4.428   3.919 -0.4317 -1.7063  0.8074
   9323SM  C11S12531   7.407   4.521   4.050  0.0163  0.3626  0.0223
   9323SM  H11S12532   7.423   4.616   3.993  1.2230 -1.0568 -2.1616
   9323SM  H11T12533   7.510   4.486   4.075  0.0875 -0.3174 -1.1713
   9323SM  C12S12534   7.314   4.526   4.180 -0.0581 -0.0353 -0.3018
   9323SM  H12S12535   7.212   4.562   4.153 -0.2808 -1.9681 -2.3578
   9323SM  H12T12536   7.350   4.602   4.252 -0.6790 -0.2342  0.2282
   9323SM  C13S12537   7.307   4.383   4.239  0.0987 -0.1319  0.0836
   9323SM  H13S12538   7.407   4.353   4.277  0.4199  2.1764  1.3066
   9323SM  H13T12539   7.267   4.320   4.157  0.6803  1.1430 -1.2303
   9323SM  C14S12540   7.202   4.356   4.354 -0.5277 -0.2697  1.1062
   9323SM  H14S12541   7.099   4.367   4.315 -1.0717 -1.9718  1.9498
   9323SM  H14T12542   7.230   4.446   4.412  4.4937 -0.3892 -0.6583
   9323SM  C15S12543   7.236   4.230   4.426  0.1005 -0.6088  0.4218
   9323SM  H15S12544   7.226   4.146   4.354  1.3574 -1.6314  1.3936
   9323SM  H15T12545   7.343   4.237   4.456 -0.4095 -0.0403  2.2598
   9323SM  C16S12546   7.137   4.190   4.543  0.5921 -0.1469 -0.1058
   9323SM  H16S12547   7.165   4.083   4.553 -1.1925 -0.5880  0.4783
   9323SM  H16T12548   7.033   4.204   4.505 -0.1065 -1.9474  0.9662
   9323SM  C17S12549   7.171   4.266   4.665  0.3938  0.3197 -0.5889
   9323SM  H17S12550   7.082   4.247   4.729 -0.1092  4.1332  0.1016
   9323SM  H17T12551   7.173   4.374   4.640 -2.9761  0.5580 -0.3259
   9323SM  C18S12552   7.303   4.236   4.736 -0.3492 -0.4135  0.2847
   9323SM  H18S12553   7.400   4.239   4.682  0.5441  1.7648  1.8340
   9323SM  H18T12554   7.290   4.133   4.775 -1.6399 -0.9851 -1.5557
   9323SM  H18U12555   7.320   4.304   4.823 -0.6953 -0.5289  0.4447
   9323SM   C1F12556   7.611   4.243   3.056 -1.0364 -0.1053 -0.3218
   9323SM    OF12557   7.725   4.262   3.028 -0.4962  0.5028  0.0791
   9323SM   C2F12558   7.561   4.101   3.063 -0.4691 -0.5900  0.0601
   9323SM   H2F12559   7.584   4.029   2.982 -0.9472 -1.7590  0.9244
   9323SM   H2G12560   7.451   4.097   3.081 -1.0302  1.0884 -2.5902
   9323SM   C3F12561   7.637   4.034   3.183 -0.5670  0.6121  0.3092
   9323SM   H3F12562   7.747   4.044   3.178 -0.3299 -1.0084  1.5190
   9323SM   H3G12563   7.606   3.928   3.187  1.9335 -0.1697  0.8823
   9323SM   C4F12564   7.581   4.085   3.315  0.3119 -0.1383 -1.0042
   9323SM   H4F12565   7.477   4.049   3.326 -0.2071  1.6107  0.2627
   9323SM   H4G12566   7.595   4.196   3.315  0.0278 -0.0841 -2.4906
   9323SM   C5F12567   7.658   4.033   3.438  0.2109 -0.3689 -0.6273
   9323SM   H5F12568   7.754   4.089   3.448 -0.0282 -0.2473  1.5299
   9323SM   H5G12569   7.664   3.922   3.435 -0.4895 -0.3850 -1.6336
   9323SM   C6F12570   7.580   4.066   3.571  0.1007  0.1067  0.1889
   9323SM   H6F12571   7.471   4.050   3.575  0.0269  0.7144  1.0359
   9323SM   H6G12572   7.601   4.173   3.595  1.2039 -0.2083  0.7288
   9323SM   C7F12573   7.632   3.991   3.693 -0.6940  0.8707 -0.1653
   9323SM   H7F12574   7.743   3.989   3.682 -0.6939 -2.8656 -0.6445
   9323SM   H7G12575   7.597   3.886   3.686  0.0215  0.6787 -1.1376
   9323SM   C8F12576   7.592   4.054   3.828 -0.3619  0.0727 -0.3488
   9323SM   H8F12577   7.482   4.060   3.818 -0.3694 -1.7214 -1.8620
   9323SM   H8G12578   7.638   4.155   3.835  0.0067  0.1083 -2.4671
   9323SM   C9F12579   7.632   3.960   3.945 -0.6042 -0.4605 -0.3674
   9323SM   H9F12580   7.742   3.956   3.951 -0.4492  1.8482 -0.7897
   9323SM   H9G12581   7.600   3.858   3.915 -0.4510 -0.4446 -0.5891
   9323SM  C10F12582   7.574   4.016   4.075  0.0172  0.0870  0.1839
   9323SM  H10F12583   7.468   3.984   4.068  0.8211 -2.8549  0.1126
   9323SM  H10G12584   7.576   4.125   4.053 -0.5017 -0.1016 -0.8624
   9323SM  C11F12585   7.645   3.973   4.204 -0.0100  0.2158 -0.1626
   9323SM  H11F12586   7.755   3.979   4.186  0.1331 -1.4448 -0.0074
   9323SM  H11G12587   7.623   3.865   4.218  0.1824  0.4189  2.0547
   9323SM  C12F12588   7.594   4.055   4.325  0.6788 -0.2440 -0.5624
   9323SM  H12F12589   7.484   4.058   4.345  0.9876 -1.0567  1.4872
   9323SM  H12G12590   7.616   4.160   4.296  0.8158  0.0411  0.5557
   9323SM  C13F12591   7.675   4.020   4.451 -0.1530  0.5714  0.6244
   9323SM  H13F12592   7.778   4.056   4.428 -0.7128  0.3032 -2.8250
   9323SM  H13G12593   7.674   3.909   4.451 -2.5725  0.3738 -3.7045
   9323SM  C14F12594   7.621   4.093   4.569  0.3291 -0.2043 -1.1141
   9323SM  H14F12595   7.516   4.074   4.602  0.6160  1.6530  1.0526
   9323SM  H14G12596   7.623   4.199   4.536  1.2235  0.2466  0.3223
   9323SM  C15F12597   7.712   4.071   4.688  0.1612 -0.5549 -0.7104
   9323SM  H15F12598   7.815   4.050   4.654  0.2518 -1.4200  0.0518
   9323SM  H15G12599   7.686   3.976   4.740  0.4567 -0.8414 -1.0817
   9323SM  C16F12600   7.709   4.183   4.781 -0.9674 -0.3319  0.0047
   9323SM  H16F12601   7.618   4.172   4.844 -1.3528  0.9597 -0.2909
   9323SM  H16G12602   7.704   4.284   4.733 -0.1019  1.3725  3.1865
   9323SM  C17F12603   7.838   4.181   4.870 -0.5882 -0.3591  0.2624
   9323SM  H17F12604   7.934   4.170   4.815  0.0190 -0.5137  1.3268
   9323SM  H17G12605   7.819   4.089   4.930 -0.7964  0.2841  1.2062
   9323SM  C18F12606   7.840   4.294   4.976  0.5210  0.3840 -0.8612
   9323SM  H18F12607   7.753   4.297   5.045  2.0593  1.1956  1.1355
   9323SM  H18G12608   7.854   4.388   4.919 -2.6168  0.6773 -1.2928
   9323SM  C19F12609   7.965   4.288   5.074 -0.3460 -0.0913 -0.1369
   9323SM  H19F12610   7.953   4.377   5.138 -0.1567  2.0548 -2.8714
   9323SM  H19G12611   8.062   4.292   5.019 -0.0432 -3.1684  0.0179
   9323SM  C20F12612   7.959   4.176   5.173  0.1686 -0.3093 -0.2646
   9323SM  H20F12613   8.064   4.175   5.211  0.2957 -4.2177 -0.2690
   9323SM  H20G12614   7.934   4.075   5.134  1.6826 -1.5666  1.8055
   9323SM  C21F12615   7.865   4.208   5.290 -0.3757  0.5257 -0.1460
   9323SM  H21F12616   7.762   4.215   5.248 -0.4900  0.5425  0.1398
   9323SM  H21G12617   7.894   4.307   5.331  2.0368 -0.0647 -0.3232
   9323SM  C22F12618   7.872   4.115   5.413  0.1200 -0.0901 -0.0505
   9323SM  H22F12619   7.810   4.150   5.499 -0.5390  0.0355 -0.5748
   9323SM  H22G12620   7.975   4.097   5.451 -0.8158 -2.3378  1.6184
   9323SM  C23F12621   7.807   3.976   5.391 -0.4150  0.4942  0.2404
   9323SM  H23F12622   7.715   3.992   5.331 -2.2892 -0.9290  2.5815
   9323SM  H23G12623   7.780   3.927   5.486 -1.0720  0.2826 -0.0522
   9323SM  H23H12624   7.877   3.914   5.330 -0.1566  0.7088  0.3128
   9423SM     N12625   3.956   6.965   2.980  0.3646  0.2118  0.0771
   9423SM   C1512626   4.027   6.943   2.850 -0.5193 -0.1074 -0.3816
   9423SM  H15A12627   4.131   6.970   2.851 -0.8626  1.3295 -0.3611
   9423SM  H15B12628   3.985   7.005   2.771 -0.2181  1.7747  0.8540
   9423SM  H15C12629   4.028   6.840   2.818 -1.2773 -0.0243 -0.6922
   9423SM   C1412630   3.972   7.105   3.018  0.0839 -0.2400  0.4438
   9423SM  H14A12631   3.934   7.118   3.119 -0.9681  2.7040 -0.2221
   9423SM  H14B12632   3.922   7.170   2.948 -3.2673  0.1656  2.9251
   9423SM  H14C12633   4.076   7.133   3.018  0.9570 -3.1339 -1.2742
   9423SM   C1312634   3.810   6.932   2.960 -0.2889  0.2046 -0.6355
   9423SM  H13A12635   3.775   7.003   2.885 -0.3050  0.4247 -0.4200
   9423SM  H13B12636   3.743   6.947   3.043  0.6267  2.3598 -0.2196
   9423SM  H13C12637   3.799   6.827   2.935 -1.5714  0.2923 -0.5442
   9423SM   C1212638   4.012   6.878   3.089  0.0205  0.5997 -0.1297
   9423SM  H12A12639   3.970   6.913   3.182 -1.5027 -1.5119  0.0695
   9423SM  H12B12640   4.119   6.887   3.088  0.1018 -0.2046 -1.3283
   9423SM   C1112641   3.977   6.726   3.102  0.1534  1.0747 -0.2409
   9423SM  H11A12642   4.050   6.678   3.171  1.1916 -0.8505 -2.5453
   9423SM  H11B12643   4.008   6.677   3.007 -1.0208 -2.2046  0.9274
   9423SM     P12644   3.774   6.569   3.157  0.2407  0.0772 -0.0274
   9423SM   O1312645   3.633   6.574   3.106  0.1366  0.3244  0.4189
   9423SM   O1412646   3.861   6.463   3.108 -0.1027  0.5411  0.6495
   9423SM   O1112647   3.765   6.559   3.313 -0.3364  0.3097  0.2452
   9423SM   O1212648   3.835   6.707   3.140 -0.2153  0.6412  1.2211
   9423SM   C1S12649   3.742   6.670   3.398 -0.4231  0.4766 -0.3908
   9423SM   H1S12650   3.654   6.726   3.360  1.0923  1.3822 -2.7567
   9423SM   H1T12651   3.828   6.740   3.399  0.8139 -0.9959 -0.2847
   9423SM    NF12652   3.652   6.760   3.601  0.5727  0.3975  0.4050
   9423SM   HNF12653   3.704   6.817   3.663 -2.1456  1.3970  1.9165
   9423SM   C2S12654   3.709   6.633   3.543 -0.4224 -0.5447  0.1709
   9423SM   H2S12655   3.634   6.552   3.534  0.5207 -1.5501  1.0407
   9423SM   C3S12656   3.834   6.581   3.617  0.7054  0.6722 -0.0663
   9423SM   H3S12657   3.910   6.659   3.635  0.2186  0.9340  0.9061
   9423SM    O312658   3.899   6.473   3.546  0.3271 -0.1300 -0.2143
   9423SM   HO312659   3.863   6.483   3.457 -0.5105  0.8655  0.2135
   9423SM   C4S12660   3.801   6.537   3.761  0.6980  0.2826 -0.0437
   9423SM   H4S12661   3.805   6.624   3.829 -1.6890  0.1557  0.3506
   9423SM   C5S12662   3.768   6.419   3.807  0.1325 -0.6221  0.0164
   9423SM   H5S12663   3.767   6.334   3.737 -1.7783 -0.5079 -0.1267
   9423SM   C6S12664   3.738   6.388   3.954 -0.5959 -0.1280  0.2021
   9423SM   H6S12665   3.727   6.472   4.026 -2.2905 -1.6034  1.7624
   9423SM   H6T12666   3.813   6.315   3.992  1.5285  2.1831  0.7197
   9423SM   C7S12667   3.611   6.303   3.971 -0.2920  0.5891 -1.0733
   9423SM   H7S12668   3.629   6.200   3.932  0.1507 -0.3080  1.3360
   9423SM   H7T12669   3.534   6.359   3.914 -0.5757 -0.8164 -2.1435
   9423SM   C8S12670   3.565   6.281   4.121  0.3717  0.1489 -0.3035
   9423SM   H8S12671   3.651   6.298   4.190 -1.6536  2.8873  1.7419
   9423SM   H8T12672   3.523   6.178   4.126  1.8554 -0.4143  3.4774
   9423SM   C9S12673   3.455   6.375   4.167  0.2898  0.2012  0.0579
   9423SM   H9S12674   3.422   6.359   4.271  0.3294  1.3439  0.2532
   9423SM   H9T12675   3.361   6.359   4.111 -0.9898 -0.9141  2.3890
   9423SM  C10S12676   3.486   6.525   4.162 -0.4953 -0.4332 -0.3220
   9423SM  H10S12677   3.537   6.554   4.068 -1.3288  2.0879 -0.0632
   9423SM  H10T12678   3.560   6.546   4.242  1.6924  0.5318 -2.4946
   9423SM  C11S12679   3.371   6.626   4.178 -0.3589 -0.5790  0.0453
   9423SM  H11S12680   3.350   6.649   4.285  3.1094  0.1412  0.6740
   9423SM  H11T12681   3.281   6.573   4.139  0.7906 -2.2249 -0.4700
   9423SM  C12S12682   3.396   6.756   4.100 -0.6721 -0.4740  0.6205
   9423SM  H12S12683   3.306   6.821   4.099 -0.5610 -0.2768 -1.6363
   9423SM  H12T12684   3.422   6.736   3.994 -0.2348  1.2809  0.3781
   9423SM  C13S12685   3.511   6.844   4.148 -0.3273  0.4549 -0.1428
   9423SM  H13S12686   3.605   6.785   4.140 -0.1174  0.7575  0.0612
   9423SM  H13T12687   3.501   6.868   4.256  1.2473 -1.3510  0.4456
   9423SM  C14S12688   3.535   6.976   4.066  0.7601  0.5020  0.0203
   9423SM  H14S12689   3.550   6.939   3.962 -1.6950 -0.5959 -0.0064
   9423SM  H14T12690   3.633   7.012   4.102  1.3502 -1.6715  0.6908
   9423SM  C15S12691   3.420   7.075   4.084 -0.8478  0.9378  0.4730
   9423SM  H15S12692   3.402   7.089   4.192 -1.2378  1.4884  0.3424
   9423SM  H15T12693   3.325   7.039   4.039 -0.4509 -1.5115  1.4231
   9423SM  C16S12694   3.459   7.214   4.018  0.9136  0.0591 -0.2951
   9423SM  H16S12695   3.505   7.203   3.917 -2.1510 -0.2472 -1.7782
   9423SM  H16T12696   3.540   7.248   4.085  0.6709 -0.0073  0.0332
   9423SM  C17S12697   3.332   7.305   4.012  0.3539  0.6799 -0.2092
   9423SM  H17S12698   3.263   7.270   4.092  0.1733 -0.4132 -0.8342
   9423SM  H17T12699   3.275   7.300   3.917 -0.5759  0.4037  0.3460
   9423SM  C18S12700   3.369   7.451   4.036 -0.1673  0.5265  0.1177
   9423SM  H18S12701   3.408   7.462   4.139 -0.2186  1.3848  0.0591
   9423SM  H18T12702   3.276   7.511   4.023  1.5162  3.3701  0.2870
   9423SM  H18U12703   3.447   7.485   3.964 -1.2386 -0.2023 -1.4325
   9423SM   C1F12704   3.523   6.790   3.571 -0.5002 -0.8937  0.8008
   9423SM    OF12705   3.447   6.716   3.510 -0.0993  0.5441  0.0648
   9423SM   C2F12706   3.469   6.914   3.639  0.2764 -0.3602  0.0888
   9423SM   H2F12707   3.448   6.988   3.558 -0.7496 -1.2237 -0.4718
   9423SM   H2G12708   3.519   6.943   3.734 -0.6370 -0.1160  0.5031
   9423SM   C3F12709   3.322   6.882   3.695 -0.1061  0.3185 -0.0974
   9423SM   H3F12710   3.330   6.808   3.778 -0.8070 -0.6262 -0.8521
   9423SM   H3G12711   3.265   6.836   3.611  0.4846  1.4071 -1.1208
   9423SM   C4F12712   3.232   7.003   3.739  0.7575  0.1276 -0.1376
   9423SM   H4F12713   3.205   7.060   3.647  3.4524  0.0075 -1.0966
   9423SM   H4G12714   3.291   7.084   3.786  1.0615  0.3332 -0.8605
   9423SM   C5F12715   3.108   6.949   3.816 -0.4737  1.7214  0.1711
   9423SM   H5F12716   3.158   6.911   3.908 -0.3630 -0.0978 -0.5939
   9423SM   H5G12717   3.073   6.864   3.753 -0.3753  3.8883 -3.0484
   9423SM   C6F12718   3.011   7.058   3.848 -0.7117  0.4611 -0.0046
   9423SM   H6F12719   2.975   7.089   3.748  0.1824 -0.7321 -0.7275
   9423SM   H6G12720   3.062   7.142   3.899  0.3949  0.1210 -0.5018
   9423SM   C7F12721   2.892   7.009   3.926  0.0756  0.7114  0.0436
   9423SM   H7F12722   2.933   6.971   4.022 -1.3823  1.9660  1.1899
   9423SM   H7G12723   2.844   6.926   3.869  1.5140 -1.2594  1.5239
   9423SM   C8F12724   2.788   7.122   3.949 -0.0948 -0.7453 -0.1577
   9423SM   H8F12725   2.750   7.148   3.848  1.8341 -0.5282 -0.8756
   9423SM   H8G12726   2.848   7.206   3.991 -0.8565  0.0148 -0.5428
   9423SM   C9F12727   2.683   7.076   4.056 -0.2095  0.1457  1.6783
   9423SM   H9F12728   2.737   7.052   4.150  3.3939  0.4966 -0.1421
   9423SM   H9G12729   2.639   6.982   4.016  0.3582 -0.1967  1.8413
   9423SM  C10F12730   2.568   7.174   4.075 -0.1688 -0.3589  0.0037
   9423SM  H10F12731   2.507   7.196   3.985 -0.4021  2.4953  0.7497
   9423SM  H10G12732   2.620   7.268   4.105 -1.0898 -0.9913  4.1545
   9423SM  C11F12733   2.480   7.149   4.193 -0.6903  0.6179  0.2909
   9423SM  H11F12734   2.459   7.040   4.194  1.1269 -0.0561 -4.9302
   9423SM  H11G12735   2.389   7.212   4.187 -0.9887  0.2269  0.6099
   9423SM  C12F12736   2.544   7.184   4.330 -0.6559  0.1613 -0.0439
   9423SM  H12F12737   2.576   7.290   4.331  2.4297 -0.6417 -0.8485
   9423SM  H12G12738   2.631   7.116   4.346 -1.3497 -0.7866 -0.2481
   9423SM  C13F12739   2.445   7.162   4.451 -0.6111  0.6128  0.1480
   9423SM  H13F12740   2.394   7.063   4.452  2.8894 -1.3652  0.7113
   9423SM  H13G12741   2.374   7.242   4.422  0.8636  1.6171 -0.8246
   9423SM  C14F12742   2.507   7.183   4.585  0.5311 -0.2468 -1.1479
   9423SM  H14F12743   2.599   7.121   4.583 -0.3126 -1.6996  1.1476
   9423SM  H14G12744   2.434   7.143   4.658  2.8257  0.3337  1.6441
   9423SM  C15F12745   2.546   7.328   4.610 -0.0023 -0.6551 -0.2239
   9423SM  H15F12746   2.452   7.386   4.604 -0.0423 -0.8484 -1.9482
   9423SM  H15G12747   2.613   7.360   4.527  1.5701 -1.7036  0.5996
   9423SM  C16F12748   2.632   7.340   4.733 -0.3135  0.2591 -0.2406
   9423SM  H16F12749   2.711   7.263   4.719  0.3140  0.8184  0.1677
   9423SM  H16G12750   2.576   7.315   4.825 -2.3539 -3.0652 -2.2188
   9423SM  C17F12751   2.701   7.479   4.747 -0.0891 -0.6359 -0.1630
   9423SM  H17F12752   2.618   7.552   4.743 -0.4986 -1.1436 -1.1698
   9423SM  H17G12753   2.762   7.509   4.659 -2.1169  1.4811 -0.9201
   9423SM  C18F12754   2.802   7.498   4.863  0.4256 -0.2989 -0.3648
   9423SM  H18F12755   2.822   7.607   4.858 -1.0863  0.0105 -0.2811
   9423SM  H18G12756   2.898   7.446   4.847  0.9155  0.9137 -1.5722
   9423SM  C19F12757   2.734   7.465   4.997  0.0842  0.5787 -0.1656
   9423SM  H19F12758   2.713   7.356   5.003 -2.5456  0.8151 -2.7196
   9423SM  H19G12759   2.639   7.519   5.016 -0.7783 -0.7326 -0.6108
   9423SM  C20F12760   2.824   7.502   5.112 -0.0972  0.1136 -0.3438
   9423SM  H20F12761   2.768   7.482   5.206 -1.8890  0.9320 -1.1946
   9423SM  H20G12762   2.821   7.612   5.124  2.7164 -0.0228  2.8998
   9423SM  C21F12763   2.967   7.445   5.097 -0.7512  0.0328  0.4900
   9423SM  H21F12764   3.033   7.495   5.024 -0.2573  0.3569  1.1514
   9423SM  H21G12765   2.949   7.341   5.063 -1.8075  0.3553  0.0363
   9423SM  C22F12766   3.048   7.440   5.228 -0.2567 -0.3163 -0.0788
   9423SM  H22F12767   3.140   7.378   5.217  0.8862  1.5484 -1.6570
   9423SM  H22G12768   2.979   7.389   5.299 -1.3483 -1.0491 -1.6093
   9423SM  C23F12769   3.078   7.576   5.295 -0.1061  0.4557  0.4860
   9423SM  H23F12770   2.992   7.647   5.291 -1.1065 -0.7214  0.3666
   9423SM  H23G12771   3.163   7.617   5.237  0.7394 -1.0743  0.5985
   9423SM  H23H12772   3.125   7.563   5.395  0.2298 -3.7234 -0.0385
   9523SM     N12773   3.054   1.455   2.627 -0.3613 -0.7642  0.6512
   9523SM   C1512774   2.944   1.423   2.538  0.0114  0.0410 -0.1927
   9523SM  H15A12775   2.926   1.317   2.532 -2.0618  0.1020  2.7522
   9523SM  H15B12776   2.938   1.481   2.447  1.7597 -1.2109 -1.1540
   9523SM  H15C12777   2.851   1.440   2.590 -0.3476 -1.4430 -0.3087
   9523SM   C1412778   3.179   1.403   2.549 -0.0471  0.5022  0.1214
   9523SM  H14A12779   3.196   1.298   2.562  2.5101  0.3915 -2.8236
   9523SM  H14B12780   3.265   1.448   2.596  1.0938 -0.7758 -0.6806
   9523SM  H14C12781   3.180   1.427   2.443 -2.4296 -3.3530 -0.9764
   9523SM   C1312782   3.059   1.605   2.630 -1.0565 -0.0401  0.8347
   9523SM  H13A12783   2.973   1.655   2.673 -0.6056  1.1746  0.3654
   9523SM  H13B12784   3.090   1.641   2.533  2.8764  0.9024  2.2501
   9523SM  H13C12785   3.141   1.634   2.694 -1.8029 -0.4541  2.0112
   9523SM   C1212786   3.056   1.399   2.769  0.1386 -0.0730 -0.8848
   9523SM  H12A12787   3.152   1.414   2.814 -0.2114  0.4175 -0.2801
   9523SM  H12B12788   3.020   1.297   2.764 -1.1289  0.3723 -1.5147
   9523SM   C1112789   2.955   1.477   2.864 -0.8831  1.0278  0.6083
   9523SM  H11A12790   3.003   1.575   2.886  0.9658  0.4723 -0.7707
   9523SM  H11B12791   2.949   1.421   2.960 -0.0188 -1.3068 -0.6217
   9523SM     P12792   2.732   1.600   2.828  0.4409  0.2344 -0.3164
   9523SM   O1312793   2.791   1.731   2.796 -0.5608 -0.1617 -0.4471
   9523SM   O1412794   2.605   1.574   2.758  0.0286  0.0080  0.4660
   9523SM   O1112795   2.708   1.604   2.983 -0.2509  0.4873  0.3334
   9523SM   O1212796   2.823   1.479   2.813  0.2956 -0.0905  0.4391
   9523SM   C1S12797   2.650   1.491   3.051  0.0293 -0.4514  0.1552
   9523SM   H1S12798   2.723   1.408   3.063  1.5233  0.8245  0.2033
   9523SM   H1T12799   2.564   1.449   2.994  1.6927 -1.7542 -1.5284
   9523SM    NF12800   2.515   1.444   3.252 -0.5074 -0.8790  0.8544
   9523SM   HNF12801   2.417   1.462   3.253 -1.0229 -3.2145 -0.4360
   9523SM   C2S12802   2.610   1.541   3.195  0.1408  0.3061  0.1265
   9523SM   H2S12803   2.698   1.549   3.262 -1.8020 -0.6473  2.9943
   9523SM   C3S12804   2.541   1.688   3.191 -0.0673 -0.2657 -0.3376
   9523SM   H3S12805   2.446   1.688   3.135 -0.8369  0.7325  0.8942
   9523SM    O312806   2.623   1.792   3.134  0.1470 -0.0861  0.0781
   9523SM   HO312807   2.684   1.742   3.080  1.2874  0.3186  0.9611
   9523SM   C4S12808   2.499   1.736   3.332  0.5038  0.2269 -0.4667
   9523SM   H4S12809   2.391   1.718   3.340  0.5510  0.5324  1.3084
   9523SM   C5S12810   2.567   1.800   3.429  0.1098 -0.3600  0.4887
   9523SM   H5S12811   2.666   1.835   3.393 -0.6922 -0.7710 -2.4316
   9523SM   C6S12812   2.511   1.838   3.560 -0.0455  0.3235 -0.8096
   9523SM   H6S12813   2.581   1.910   3.607  0.0800  0.9646 -1.9354
   9523SM   H6T12814   2.522   1.749   3.626 -0.1777  0.5649 -0.4604
   9523SM   C7S12815   2.365   1.882   3.586 -0.1609 -0.6937 -0.2516
   9523SM   H7S12816   2.298   1.810   3.533 -0.7782  0.4690 -1.1015
   9523SM   H7T12817   2.335   1.979   3.540 -1.2195 -0.0456  1.6790
   9523SM   C8S12818   2.320   1.882   3.737  0.4045 -0.3941  0.2506
   9523SM   H8S12819   2.337   1.784   3.785 -0.0770 -0.3840  0.4413
   9523SM   H8T12820   2.213   1.911   3.740  0.2065 -1.1815  1.3746
   9523SM   C9S12821   2.396   1.989   3.817  0.4054  0.1007 -0.5752
   9523SM   H9S12822   2.375   2.083   3.761 -1.9913  0.1520  0.3070
   9523SM   H9T12823   2.505   1.969   3.823  0.3182 -0.7142 -1.4136
   9523SM  C10S12824   2.336   2.016   3.962 -0.2447  0.1563  1.2536
   9523SM  H10S12825   2.348   1.922   4.019  1.6863 -1.1577 -1.1129
   9523SM  H10T12826   2.229   2.042   3.950  0.0979  0.8198 -0.8640
   9523SM  C11S12827   2.401   2.128   4.044 -0.0215  0.6450  1.0598
   9523SM  H11S12828   2.360   2.225   4.009  0.6062  0.0174 -1.6583
   9523SM  H11T12829   2.509   2.133   4.018 -0.2026  1.5467  0.4357
   9523SM  C12S12830   2.408   2.084   4.194 -0.2951 -0.1139 -0.2562
   9523SM  H12S12831   2.465   1.988   4.198 -1.9552 -1.1179  2.0261
   9523SM  H12T12832   2.303   2.084   4.232 -0.2804 -0.4008 -0.2089
   9523SM  C13S12833   2.497   2.185   4.270  0.2123 -0.3492  0.4237
   9523SM  H13S12834   2.448   2.283   4.253 -0.5938 -1.0105 -1.3639
   9523SM  H13T12835   2.593   2.177   4.214 -0.3473 -2.1070 -0.3467
   9523SM  C14S12836   2.531   2.144   4.412 -0.2421  0.6058  0.2879
   9523SM  H14S12837   2.610   2.213   4.447 -0.4196  0.8165  0.2714
   9523SM  H14T12838   2.566   2.038   4.411 -2.8628 -0.3651  0.9748
   9523SM  C15S12839   2.414   2.150   4.508 -0.3621 -0.6828 -0.1688
   9523SM  H15S12840   2.338   2.075   4.476  1.2705 -2.1682 -0.6961
   9523SM  H15T12841   2.363   2.246   4.486 -0.3828 -0.4608  0.8066
   9523SM  C16S12842   2.441   2.142   4.658 -0.6201 -0.2728  0.1131
   9523SM  H16S12843   2.524   2.206   4.695 -1.1050 -0.2073  1.1261
   9523SM  H16T12844   2.489   2.044   4.677  0.4253  0.4729  1.5280
   9523SM  C17S12845   2.318   2.176   4.744 -0.2679 -0.4299 -0.4194
   9523SM  H17S12846   2.231   2.113   4.717  0.7289 -1.5619 -1.0998
   9523SM  H17T12847   2.309   2.286   4.739 -0.8505 -0.4098  0.7252
   9523SM  C18S12848   2.340   2.148   4.892  0.3655 -0.0643 -0.1573
   9523SM  H18S12849   2.423   2.075   4.905  1.5673  1.2506 -0.0993
   9523SM  H18T12850   2.253   2.100   4.940 -1.2135  2.1658 -0.6460
   9523SM  H18U12851   2.368   2.238   4.951 -1.2291  0.5835 -0.3584
   9523SM   C1F12852   2.544   1.315   3.286  0.1696 -1.1064 -0.6410
   9523SM    OF12853   2.650   1.263   3.245 -0.3239  0.5588 -0.5755
   9523SM   C2F12854   2.445   1.242   3.366  0.5597  0.5105  0.2002
   9523SM   H2F12855   2.412   1.155   3.306 -1.4134 -1.8924  4.3307
   9523SM   H2G12856   2.365   1.315   3.389 -0.4661  0.3547 -2.5372
   9523SM   C3F12857   2.498   1.185   3.503 -0.8735 -0.9091 -0.7333
   9523SM   H3F12858   2.537   1.274   3.556 -2.6660 -0.0320 -0.8337
   9523SM   H3G12859   2.583   1.115   3.485 -1.8079 -1.8021 -1.8240
   9523SM   C4F12860   2.402   1.128   3.591  0.0862 -0.1286  0.5205
   9523SM   H4F12861   2.361   1.040   3.537 -1.2886 -0.0843  1.4430
   9523SM   H4G12862   2.320   1.201   3.606 -1.2467 -1.8513  2.1834
   9523SM   C5F12863   2.450   1.071   3.725  0.0877 -0.0594  0.0240
   9523SM   H5F12864   2.487   1.155   3.787 -0.0156 -0.9380  1.3273
   9523SM   H5G12865   2.541   1.012   3.699 -0.9801 -1.2823 -1.1207
   9523SM   C6F12866   2.341   1.000   3.805  0.3540 -0.6245 -0.0994
   9523SM   H6F12867   2.320   0.905   3.751 -1.5538 -0.2291 -0.1163
   9523SM   H6G12868   2.244   1.052   3.825  0.1589 -1.6104  1.7041
   9523SM   C7F12869   2.387   0.954   3.940  0.6870  0.2047  0.2702
   9523SM   H7F12870   2.296   0.917   3.992  0.6860 -1.4138 -0.8308
   9523SM   H7G12871   2.429   1.045   3.989  0.9821 -0.2618  0.9066
   9523SM   C8F12872   2.498   0.844   3.938  0.3541  0.2756  0.1509
   9523SM   H8F12873   2.587   0.895   3.896  0.4531  0.7077  0.8691
   9523SM   H8G12874   2.461   0.767   3.867 -0.5528  0.3010  0.5815
   9523SM   C9F12875   2.535   0.777   4.075 -0.3434 -0.1982  0.2408
   9523SM   H9F12876   2.444   0.722   4.108  0.8264 -1.0763  2.1541
   9523SM   H9G12877   2.562   0.854   4.151 -0.2354  0.5441 -0.5297
   9523SM  C10F12878   2.664   0.696   4.058  0.3350 -0.6899  0.3986
   9523SM  H10F12879   2.737   0.766   4.011  0.2730  0.1714  1.5429
   9523SM  H10G12880   2.642   0.614   3.986 -0.8011 -0.6075  0.6237
   9523SM  C11F12881   2.728   0.637   4.183 -0.9755 -0.3912  0.1671
   9523SM  H11F12882   2.660   0.562   4.230 -1.3501 -0.1779 -0.0285
   9523SM  H11G12883   2.767   0.712   4.255  0.2117  1.0186 -1.8549
   9523SM  C12F12884   2.845   0.535   4.150 -0.2665  0.1646 -0.1566
   9523SM  H12F12885   2.922   0.592   4.094  1.9343 -2.0888  0.3785
   9523SM  H12G12886   2.808   0.452   4.086  0.9105 -1.7990  1.5559
   9523SM  C13F12887   2.919   0.464   4.270 -0.2600 -0.0790  0.6090
   9523SM  H13F12888   2.841   0.403   4.321  0.3263 -1.4037 -0.0322
   9523SM  H13G12889   2.943   0.534   4.353  0.3191 -0.0420  0.4107
   9523SM  C14F12890   3.041   0.380   4.237  0.0042  0.5479 -0.2457
   9523SM  H14F12891   3.102   0.435   4.163  2.7284  0.7801  2.0212
   9523SM  H14G12892   3.011   0.282   4.196  0.6042 -0.8276  2.3839
   9523SM  C15F12893   3.124   0.357   4.371  0.3398 -0.5350  0.2731
   9523SM  H15F12894   3.062   0.310   4.451  1.1605 -0.1708  1.1535
   9523SM  H15G12895   3.164   0.451   4.417 -0.0611 -0.0704 -0.3124
   9523SM  C16F12896   3.243   0.260   4.354 -0.0882 -0.5190  0.0921
   9523SM  H16F12897   3.214   0.168   4.299  1.3506 -0.1972 -1.2669
   9523SM  H16G12898   3.295   0.239   4.450  1.3606  0.3049 -0.4914
   9523SM  C17F12899   3.358   0.317   4.274  0.1312 -0.9339  0.0698
   9523SM  H17F12900   3.323   0.322   4.169  0.8983 -1.7368 -0.2336
   9523SM  H17G12901   3.453   0.260   4.271  1.6857  1.4295  1.3311
   9523SM  C18F12902   3.409   0.454   4.320  0.8343  0.5950 -0.0039
   9523SM  H18F12903   3.443   0.447   4.425  1.4803  0.2410 -0.2324
   9523SM  H18G12904   3.327   0.529   4.315 -0.6798 -1.0757 -2.0362
   9523SM  C19F12905   3.520   0.512   4.232 -0.2838 -0.3844  0.2477
   9523SM  H19F12906   3.527   0.616   4.270 -0.1035  0.2998 -1.5729
   9523SM  H19G12907   3.481   0.515   4.128  0.2054 -1.0846  0.0366
   9523SM  C20F12908   3.653   0.430   4.224  0.3375 -0.6930  1.0862
   9523SM  H20F12909   3.630   0.361   4.141 -1.9490  0.2574  0.8620
   9523SM  H20G12910   3.681   0.384   4.321  1.7485  0.8452  1.4641
   9523SM  C21F12911   3.773   0.515   4.182 -0.7762  0.5547 -0.1199
   9523SM  H21F12912   3.859   0.448   4.161 -0.7254  0.4824  0.3214
   9523SM  H21G12913   3.818   0.579   4.260  0.4439  0.6867 -0.9092
   9523SM  C22F12914   3.750   0.589   4.049  0.4993 -0.0978 -0.0460
   9523SM  H22F12915   3.680   0.672   4.072 -0.2063 -0.3100 -1.3019
   9523SM  H22G12916   3.695   0.521   3.979 -0.9652 -1.8538  2.6406
   9523SM  C23F12917   3.880   0.642   3.986 -0.0141 -0.1558  0.4009
   9523SM  H23F12918   3.956   0.562   3.972  0.6960  0.7208 -1.0153
   9523SM  H23G12919   3.928   0.713   4.057 -1.2347  0.2428  0.8561
   9523SM  H23H12920   3.875   0.695   3.888 -0.1583 -0.0082  0.4889
   9623SM     N12921   2.736   0.046   2.743  0.7738  0.8516 -0.1434
   9623SM   C1512922   2.824   0.022   2.859 -0.0128 -0.4403  0.1239
   9623SM  H15A12923   2.904  -0.049   2.845 -0.4531 -1.0021  0.4206
   9623SM  H15B12924   2.777  -0.022   2.946  2.3342 -1.8782  0.7395
   9623SM  H15C12925   2.869   0.113   2.895  3.8515 -2.0761 -0.1831
   9623SM   C1412926   2.787   0.145   2.647 -0.2164 -0.1879  0.0889
   9623SM  H14A12927   2.768   0.240   2.694  0.4608 -0.5020  1.0353
   9623SM  H14B12928   2.716   0.145   2.566 -1.1894 -2.6448  0.8615
   9623SM  H14C12929   2.891   0.147   2.617  0.1798 -0.2860  1.4256
   9623SM   C1312930   2.708  -0.080   2.673 -0.0150 -0.0436 -0.5839
   9623SM  H13A12931   2.605  -0.080   2.641 -0.3727 -3.2055  0.2159
   9623SM  H13B12932   2.708  -0.166   2.739 -1.5646 -1.0658 -1.8319
   9623SM  H13C12933   2.777  -0.100   2.593 -0.2697 -1.4225 -0.4831
   9623SM   C1212934   2.612   0.100   2.809 -0.4457 -0.1697  0.1587
   9623SM  H12A12935   2.646   0.172   2.883 -0.9274  0.3832 -0.1506
   9623SM  H12B12936   2.570   0.021   2.869  0.3233 -1.0997 -0.5009
   9623SM   C1112937   2.496   0.157   2.724 -0.6454  0.5137 -0.5237
   9623SM  H11A12938   2.521   0.249   2.667  0.6516  0.5253  0.0360
   9623SM  H11B12939   2.428   0.197   2.802  0.7823  0.5625  0.7375
   9623SM     P12940   2.340  -0.057   2.698  0.1569 -0.0185  0.2250
   9623SM   O1312941   2.226  -0.065   2.608  0.4339 -0.4341  0.2304
   9623SM   O1412942   2.407  -0.183   2.717  0.4649 -0.4934 -0.4429
   9623SM   O1112943   2.293  -0.001   2.839  0.1402 -0.3064 -0.4880
   9623SM   O1212944   2.444   0.057   2.648  0.0616  0.5726 -0.0592
   9623SM   C1S12945   2.174   0.084   2.858 -0.3237  0.9844  0.1585
   9623SM   H1S12946   2.090   0.045   2.797 -0.1531  1.4951 -0.4138
   9623SM   H1T12947   2.195   0.188   2.824 -2.0497  1.4390  0.4001
   9623SM    NF12948   1.998   0.173   3.017 -0.6810 -0.3889  0.5352
   9623SM   HNF12949   2.008   0.272   3.021  4.7849 -0.6716  1.9599
   9623SM   C2S12950   2.128   0.107   3.009 -0.4831 -0.1594 -0.1162
   9623SM   H2S12951   2.115   0.015   3.070 -1.4017 -0.1998 -0.3518
   9623SM   C3S12952   2.252   0.179   3.078  0.3128 -0.6492  0.2448
   9623SM   H3S12953   2.276   0.276   3.029  0.6450 -0.4167  0.8426
   9623SM    O312954   2.375   0.107   3.067 -0.0012 -0.0428 -0.4017
   9623SM   HO312955   2.358   0.048   2.992 -1.1933  0.7518 -0.7716
   9623SM   C4S12956   2.241   0.210   3.224  0.0502 -0.0076  0.6891
   9623SM   H4S12957   2.174   0.140   3.276  1.7422 -0.4570  2.4026
   9623SM   C5S12958   2.291   0.311   3.290  0.6263 -0.3287  0.5899
   9623SM   H5S12959   2.345   0.390   3.236 -0.5594  0.4248  0.4696
   9623SM   C6S12960   2.264   0.332   3.439 -0.7991  0.0001 -0.3843
   9623SM   H6S12961   2.215   0.242   3.480 -0.2326 -0.5169 -0.8286
   9623SM   H6T12962   2.197   0.420   3.448 -2.2525 -1.2406  1.7297
   9623SM   C7S12963   2.389   0.348   3.527  0.0842  0.0872 -0.5565
   9623SM   H7S12964   2.448   0.435   3.489 -0.8755  1.9297  1.8860
   9623SM   H7T12965   2.452   0.257   3.528  0.5127  0.3060  3.0789
   9623SM   C8S12966   2.338   0.376   3.671 -0.1661 -0.0809  0.2109
   9623SM   H8S12967   2.252   0.308   3.688 -0.5864  0.1304 -0.9812
   9623SM   H8T12968   2.301   0.481   3.682 -0.4872 -0.2220  0.5248
   9623SM   C9S12969   2.447   0.348   3.778  0.6289  0.3150  0.1909
   9623SM   H9S12970   2.542   0.393   3.743  0.5191 -0.5134 -1.2448
   9623SM   H9T12971   2.461   0.238   3.782  3.1381  0.5841 -0.0100
   9623SM  C10S12972   2.413   0.402   3.917 -0.4151 -0.2599 -0.6815
   9623SM  H10S12973   2.304   0.390   3.938  0.0213 -0.4324  1.7351
   9623SM  H10T12974   2.430   0.510   3.936 -2.4299  0.1235 -0.7875
   9623SM  C11S12975   2.496   0.329   4.023 -0.0420 -0.4505  0.1457
   9623SM  H11S12976   2.598   0.372   4.019 -0.3157  0.1560 -0.6838
   9623SM  H11T12977   2.509   0.220   4.005  1.3041 -0.5397  1.4236
   9623SM  C12S12978   2.424   0.335   4.162  0.8424  0.8292  1.1379
   9623SM  H12S12979   2.339   0.264   4.172 -0.2262  1.9318  0.3170
   9623SM  H12T12980   2.381   0.433   4.194 -1.1286 -0.7026  3.4967
   9623SM  C13S12981   2.517   0.293   4.273  0.1313 -0.2134  0.5610
   9623SM  H13S12982   2.620   0.323   4.244  0.4248 -0.3007  1.4899
   9623SM  H13T12983   2.521   0.182   4.278 -0.7674 -0.3366 -0.7437
   9623SM  C14S12984   2.488   0.346   4.412  0.0130  0.4926 -0.0886
   9623SM  H14S12985   2.400   0.288   4.447  1.1546 -0.0668  2.0446
   9623SM  H14T12986   2.465   0.454   4.409 -0.6924  0.3347 -0.5383
   9623SM  C15S12987   2.588   0.302   4.522 -0.4106 -0.6653  0.5757
   9623SM  H15S12988   2.688   0.315   4.476 -0.2554 -3.9443 -0.2897
   9623SM  H15T12989   2.587   0.193   4.541  1.0434 -0.8906 -0.4538
   9623SM  C16S12990   2.575   0.369   4.660  0.5377  0.4209 -0.4417
   9623SM  H16S12991   2.491   0.319   4.713 -0.4142  1.3014 -1.0838
   9623SM  H16T12992   2.547   0.476   4.647 -0.8784  0.5337  2.6623
   9623SM  C17S12993   2.699   0.346   4.747  0.5510  0.5910 -0.8678
   9623SM  H17S12994   2.725   0.239   4.766  1.4070  0.8410 -0.5941
   9623SM  H17T12995   2.680   0.386   4.849 -2.3299 -1.6065 -0.4113
   9623SM  C18S12996   2.823   0.423   4.694 -0.2610  0.4664  0.0240
   9623SM  H18S12997   2.817   0.533   4.696  3.2117  0.8151 -1.6936
   9623SM  H18T12998   2.847   0.403   4.588 -2.1311 -0.9812 -0.1930
   9623SM  H18U12999   2.911   0.390   4.754  0.3130 -1.1065 -1.5955
   9623SM   C1F13000   1.891   0.106   2.995  0.0502 -0.7843 -0.3686
   9623SM    OF13001   1.889  -0.015   2.987 -0.0867 -0.5616 -0.2616
   9623SM   C2F13002   1.765   0.188   3.009 -0.7119 -0.2173  0.6000
   9623SM   H2F13003   1.784   0.293   2.977 -2.5229  0.8090  2.6632
   9623SM   H2G13004   1.737   0.191   3.116  1.2680 -0.1059  1.1558
   9623SM   C3F13005   1.649   0.149   2.913  0.8630 -0.3003 -0.4550
   9623SM   H3F13006   1.686   0.119   2.813  3.6855  0.2972  0.3212
   9623SM   H3G13007   1.592   0.241   2.886  1.3586 -0.4442 -2.0947
   9623SM   C4F13008   1.552   0.037   2.965 -0.0492  0.1279  0.1395
   9623SM   H4F13009   1.617  -0.052   2.951  0.8847  0.9786 -1.1768
   9623SM   H4G13010   1.462   0.028   2.901 -0.3433  1.6377  0.3172
   9623SM   C5F13011   1.505   0.041   3.112 -0.0671 -0.1877  0.3892
   9623SM   H5F13012   1.443   0.129   3.140 -0.1202 -1.2416  4.1760
   9623SM   H5G13013   1.586   0.051   3.187 -1.4375 -0.4469  1.9822
   9623SM   C6F13014   1.437  -0.092   3.147 -0.2640 -0.1188  0.0489
   9623SM   H6F13015   1.470  -0.165   3.071 -2.1318  0.1516 -1.1019
   9623SM   H6G13016   1.327  -0.075   3.138 -0.1127  2.0576  1.3749
   9623SM   C7F13017   1.466  -0.152   3.284 -0.1786 -0.0002 -0.0269
   9623SM   H7F13018   1.574  -0.130   3.300  0.2500 -1.6557 -0.4703
   9623SM   H7G13019   1.439  -0.260   3.289 -2.2825  0.5203  0.9709
   9623SM   C8F13020   1.379  -0.082   3.394 -0.5324  0.8909  0.3669
   9623SM   H8F13021   1.274  -0.097   3.361 -0.9144  0.1775  1.8005
   9623SM   H8G13022   1.399   0.027   3.402 -4.1759  1.6374  1.0669
   9623SM   C9F13023   1.402  -0.141   3.533  0.6097  0.2996  0.2975
   9623SM   H9F13024   1.510  -0.134   3.557  0.0818  1.5804  2.5184
   9623SM   H9G13025   1.373  -0.248   3.532 -3.6158  1.2391  1.4750
   9623SM  C10F13026   1.322  -0.073   3.641  0.2557 -0.7370 -0.0241
   9623SM  H10F13027   1.219  -0.067   3.600  0.5575  1.2641 -0.6033
   9623SM  H10G13028   1.359   0.031   3.654  0.2454 -0.7061 -0.2345
   9623SM  C11F13029   1.344  -0.148   3.772 -0.0118  0.0578  0.2771
   9623SM  H11F13030   1.316  -0.255   3.757  0.5662 -0.3731  2.0569
   9623SM  H11G13031   1.271  -0.102   3.842 -0.1756 -0.5911  0.5445
   9623SM  C12F13032   1.487  -0.140   3.829 -0.0582 -0.3840  0.0238
   9623SM  H12F13033   1.536  -0.042   3.806 -0.1086 -0.8737 -2.3111
   9623SM  H12G13034   1.558  -0.202   3.770 -1.2353  0.8267 -2.7994
   9623SM  C13F13035   1.511  -0.175   3.979  0.1668 -0.1140  0.5106
   9623SM  H13F13036   1.618  -0.188   4.007 -0.2550  0.6995  2.7132
   9623SM  H13G13037   1.470  -0.277   3.997  0.2132 -0.3700 -0.7595
   9623SM  C14F13038   1.451  -0.072   4.075  0.3536 -0.3732 -0.5331
   9623SM  H14F13039   1.342  -0.060   4.056  0.3221 -0.6088 -0.5029
   9623SM  H14G13040   1.490   0.031   4.067  1.0994 -0.6466 -0.4554
   9623SM  C15F13041   1.467  -0.109   4.223 -0.3712  0.3598 -0.0101
   9623SM  H15F13042   1.570  -0.109   4.265 -0.3476 -0.6832 -0.0635
   9623SM  H15G13043   1.421  -0.208   4.240  0.4545 -0.3450 -1.6747
   9623SM  C16F13044   1.409  -0.005   4.318 -0.4002  0.1388 -0.2940
   9623SM  H16F13045   1.298  -0.000   4.316 -0.4113  3.3147  1.0953
   9623SM  H16G13046   1.440   0.095   4.283  1.8784 -0.2793  0.3794
   9623SM  C17F13047   1.433  -0.019   4.470  0.3440  0.3617 -0.7074
   9623SM  H17F13048   1.542  -0.035   4.484  0.2655  0.1464 -0.3410
   9623SM  H17G13049   1.380  -0.113   4.495  1.8556 -0.5174 -0.7052
   9623SM  C18F13050   1.367   0.094   4.532  0.5748 -0.1052  0.1972
   9623SM  H18F13051   1.259   0.087   4.506  0.0746 -1.1961  2.2772
   9623SM  H18G13052   1.424   0.185   4.504 -0.4621  0.5666  0.2019
   9623SM  C19F13053   1.378   0.072   4.691 -0.0392 -0.1544  0.1624
   9623SM  H19F13054   1.406  -0.032   4.717  0.0181 -0.3362 -0.6205
   9623SM  H19G13055   1.279   0.096   4.737 -0.5873  1.2313 -1.6073
   9623SM  C20F13056   1.486   0.163   4.753 -0.3743 -0.1302 -0.0760
   9623SM  H20F13057   1.491   0.143   4.862  0.1001 -1.5828 -0.3402
   9623SM  H20G13058   1.447   0.266   4.740  0.6802  0.1573 -1.1830
   9623SM  C21F13059   1.626   0.151   4.702 -0.7055 -0.5407 -0.4241
   9623SM  H21F13060   1.627   0.163   4.591  0.5624  1.8067 -0.2160
   9623SM  H21G13061   1.670   0.053   4.731  0.9261  0.4673  0.6500
   9623SM  C22F13062   1.715   0.261   4.765  0.3627  0.1077  0.3066
   9623SM  H22F13063   1.716   0.253   4.875  0.2659 -0.3582  0.2723
   9623SM  H22G13064   1.665   0.356   4.732 -0.2715  0.0740  1.1471
   9623SM  C23F13065   1.859   0.270   4.712 -0.9471 -0.4255  0.1212
   9623SM  H23F13066   1.860   0.300   4.605  0.5170 -2.0811 -0.3828
   9623SM  H23G13067   1.916   0.175   4.724  1.5435  1.0304  0.4820
   9623SM  H23H13068   1.915   0.350   4.765  1.8468 -1.5207 -0.9942
   9723SM     N13069   3.777   1.659   2.371  0.1156 -0.1331 -0.6788
   9723SM   C1513070   3.661   1.758   2.373  0.3512 -0.1590  0.3862
   9723SM  H15A13071   3.597   1.750   2.460 -2.8389  1.8892 -1.5881
   9723SM  H15B13072   3.600   1.735   2.287 -1.6830  2.0543  1.1268
   9723SM  H15C13073   3.702   1.858   2.363 -0.5036  0.0851 -0.8336
   9723SM   C1413074   3.718   1.519   2.378  0.4553  0.7234  0.2789
   9723SM  H14A13075   3.798   1.447   2.391 -0.7036 -1.0092 -1.6053
   9723SM  H14B13076   3.670   1.501   2.283 -2.8790  2.1039  1.5480
   9723SM  H14C13077   3.647   1.517   2.460 -1.7806  1.2707 -1.5178
   9723SM   C1313078   3.847   1.677   2.240  0.0414 -0.2492  0.2449
   9723SM  H13A13079   3.928   1.607   2.232 -2.1968 -3.3288  2.1184
   9723SM  H13B13080   3.878   1.779   2.227 -1.5670  0.3025  0.4521
   9723SM  H13C13081   3.770   1.665   2.165  2.8059  0.4414 -2.9605
   9723SM   C1213082   3.865   1.677   2.488  0.8257 -0.4386 -0.1064
   9723SM  H12A13083   3.928   1.763   2.470  0.7854 -0.0633  1.4012
   9723SM  H12B13084   3.934   1.594   2.499  2.9720  0.9694 -2.0113
   9723SM   C1113085   3.794   1.688   2.631 -0.5063  0.6071  0.7043
   9723SM  H11A13086   3.741   1.786   2.632 -0.8397  0.4283  0.6200
   9723SM  H11B13087   3.883   1.703   2.696 -1.7539  1.4236  2.3052
   9723SM     P13088   3.735   1.469   2.766  0.0930 -0.0944  0.8019
   9723SM   O1313089   3.608   1.383   2.763 -0.1540 -0.4425 -0.1634
   9723SM   O1413090   3.866   1.403   2.728  0.3626 -0.1939  0.1721
   9723SM   O1113091   3.751   1.543   2.900  0.4247  0.0125 -0.0509
   9723SM   O1213092   3.705   1.578   2.665  0.0970 -0.0782  0.0617
   9723SM   C1S13093   3.654   1.639   2.946  0.6426 -0.4823 -0.4810
   9723SM   H1S13094   3.551   1.598   2.942 -0.6797  2.0247  3.3601
   9723SM   H1T13095   3.658   1.734   2.888 -0.1748 -1.4799 -2.2621
   9723SM    NF13096   3.567   1.741   3.154 -0.0801  0.4644 -0.1447
   9723SM   HNF13097   3.570   1.840   3.164 -0.0594  0.2638  2.3282
   9723SM   C2S13098   3.681   1.673   3.097  0.0382 -0.4238  0.1752
   9723SM   H2S13099   3.707   1.573   3.138 -0.3101 -0.6386 -0.1149
   9723SM   C3S13100   3.814   1.760   3.107 -1.0398  0.0652  0.0518
   9723SM   H3S13101   3.803   1.860   3.059  0.1816 -0.4199 -1.3023
   9723SM    O313102   3.926   1.704   3.037 -0.1573  0.0710 -0.1129
   9723SM   HO313103   3.895   1.632   2.982 -1.8666  0.1038  0.7371
   9723SM   C4S13104   3.844   1.781   3.250  0.1566  0.8544 -0.0024
   9723SM   H4S13105   3.851   1.885   3.286 -1.8895  0.1616  2.6730
   9723SM   C5S13106   3.869   1.685   3.343 -0.4013 -0.3243 -0.0048
   9723SM   H5S13107   3.864   1.577   3.322 -1.7137  0.0120 -1.7362
   9723SM   C6S13108   3.897   1.707   3.487  0.4406 -0.2024 -0.1729
   9723SM   H6S13109   3.909   1.815   3.512  0.3355  0.1362 -1.4944
   9723SM   H6T13110   3.990   1.655   3.517  0.4625  0.9413  1.9719
   9723SM   C7S13111   3.775   1.666   3.569 -0.9796  0.4373 -0.2605
   9723SM   H7S13112   3.752   1.557   3.563 -0.4814  0.3906 -1.8126
   9723SM   H7T13113   3.679   1.704   3.531 -0.9360 -0.7008 -1.5851
   9723SM   C8S13114   3.799   1.703   3.716 -0.1014 -0.3917  1.0171
   9723SM   H8S13115   3.837   1.807   3.721 -1.5461  0.2431 -0.4856
   9723SM   H8T13116   3.869   1.642   3.778 -0.6670 -0.0250  2.0452
   9723SM   C9S13117   3.661   1.707   3.790  0.0981  0.0588 -1.1555
   9723SM   H9S13118   3.611   1.608   3.788 -2.1883  1.0819  0.3221
   9723SM   H9T13119   3.597   1.776   3.730 -0.7505  1.4309  1.1680
   9723SM  C10S13120   3.671   1.748   3.940 -0.1305  0.4226 -0.0023
   9723SM  H10S13121   3.582   1.803   3.978  1.0543  1.9330  0.6960
   9723SM  H10T13122   3.760   1.814   3.938  0.9608 -0.8985  2.1855
   9723SM  C11S13123   3.687   1.619   4.018 -0.0789 -0.0757  0.2715
   9723SM  H11S13124   3.780   1.567   3.988 -1.3392 -1.4826 -1.3823
   9723SM  H11T13125   3.599   1.555   3.995 -0.0834  0.1990 -0.4883
   9723SM  C12S13126   3.689   1.639   4.168  0.5396 -0.5931 -0.0527
   9723SM  H12S13127   3.597   1.687   4.208  0.5218 -0.1429 -0.6279
   9723SM  H12T13128   3.774   1.706   4.193  1.0864 -0.9329 -0.9682
   9723SM  C13S13129   3.710   1.507   4.241  0.3864  0.0645  0.0508
   9723SM  H13S13130   3.809   1.457   4.229 -1.2182 -3.2773 -0.4042
   9723SM  H13T13131   3.638   1.433   4.198  0.5487  0.0901 -0.2739
   9723SM  C14S13132   3.667   1.513   4.389 -0.2358  1.1510 -0.4292
   9723SM  H14S13133   3.564   1.554   4.383 -0.1175  1.3233 -1.5079
   9723SM  H14T13134   3.737   1.574   4.449 -0.4926  0.3168  0.7636
   9723SM  C15S13135   3.646   1.375   4.461  0.4716  0.0612 -0.3500
   9723SM  H15S13136   3.733   1.313   4.430  0.7731  0.3783 -0.1451
   9723SM  H15T13137   3.559   1.331   4.408 -1.3532 -0.9742  3.2034
   9723SM  C16S13138   3.621   1.366   4.613 -0.1621  0.2721  0.4882
   9723SM  H16S13139   3.542   1.441   4.637 -0.7825 -0.4756  0.8254
   9723SM  H16T13140   3.712   1.393   4.671  0.2198 -1.5231  0.7564
   9723SM  C17S13141   3.572   1.237   4.667  0.4714  0.0607 -0.3824
   9723SM  H17S13142   3.565   1.241   4.778  3.0164 -0.9636 -0.1058
   9723SM  H17T13143   3.657   1.168   4.647  1.7805  1.7428 -0.8277
   9723SM  C18S13144   3.437   1.180   4.603 -0.1837  0.2268  0.6160
   9723SM  H18S13145   3.457   1.174   4.494  2.5109  1.1378  0.9870
   9723SM  H18T13146   3.356   1.254   4.619  1.4487  2.1841  0.1635
   9723SM  H18U13147   3.425   1.077   4.645 -0.5115 -0.3218 -0.7548
   9723SM   C1F13148   3.466   1.654   3.189 -0.5704  0.2126  0.7017
   9723SM    OF13149   3.455   1.542   3.146  0.1675 -0.5527  0.1051
   9723SM   C2F13150   3.367   1.707   3.285 -0.3473 -0.1125  0.4249
   9723SM   H2F13151   3.265   1.704   3.240 -0.3105 -0.8460  0.3811
   9723SM   H2G13152   3.405   1.805   3.322 -0.1249 -0.3175  0.7505
   9723SM   C3F13153   3.370   1.614   3.406  0.3071 -0.5497  0.6227
   9723SM   H3F13154   3.473   1.597   3.444  0.9455 -1.3902 -1.3677
   9723SM   H3G13155   3.313   1.524   3.374  0.2987 -0.2494 -0.2150
   9723SM   C4F13156   3.297   1.672   3.533 -0.1886 -0.6901 -0.0292
   9723SM   H4F13157   3.193   1.699   3.505 -0.1601  0.9520  1.2796
   9723SM   H4G13158   3.341   1.766   3.571 -1.9805  0.1033  0.1806
   9723SM   C5F13159   3.287   1.559   3.634  0.0830  0.1782  0.1119
   9723SM   H5F13160   3.392   1.525   3.642  0.4930  1.5842  1.2204
   9723SM   H5G13161   3.222   1.478   3.595 -1.4350  1.4327 -0.0850
   9723SM   C6F13162   3.225   1.600   3.773 -0.1554 -0.3461 -0.1325
   9723SM   H6F13163   3.121   1.631   3.750  0.8091  2.7004 -0.7477
   9723SM   H6G13164   3.285   1.687   3.806 -0.1170 -0.2530 -0.4456
   9723SM   C7F13165   3.224   1.493   3.880 -0.1012  0.8786  0.4413
   9723SM   H7F13166   3.318   1.433   3.880  0.0250  1.0181 -1.3981
   9723SM   H7G13167   3.136   1.430   3.855  1.4097 -0.6634 -1.2428
   9723SM   C8F13168   3.213   1.550   4.019  0.7156  0.3251  0.3047
   9723SM   H8F13169   3.126   1.619   4.025  0.7139  0.3540 -0.0312
   9723SM   H8G13170   3.299   1.617   4.041  0.4618  1.1148 -0.9536
   9723SM   C9F13171   3.197   1.453   4.130  0.3227 -0.1742 -0.3264
   9723SM   H9F13172   3.269   1.368   4.126 -1.0218 -1.4503  1.0375
   9723SM   H9G13173   3.097   1.406   4.132  0.2165  0.0088 -1.1615
   9723SM  C10F13174   3.215   1.515   4.267  0.1879  0.0878  0.2837
   9723SM  H10F13175   3.153   1.607   4.263 -1.6564 -1.1251 -2.5975
   9723SM  H10G13176   3.321   1.546   4.277 -0.3776  2.8319 -1.3516
   9723SM  C11F13177   3.165   1.420   4.380 -0.1551 -0.4813 -0.1318
   9723SM  H11F13178   3.251   1.351   4.399  1.5576  1.7389  0.6762
   9723SM  H11G13179   3.077   1.361   4.347  1.3659 -2.5058 -0.8275
   9723SM  C12F13180   3.125   1.487   4.510 -0.3736  0.0912 -0.2395
   9723SM  H12F13181   3.077   1.415   4.579  1.0458  0.4740  1.1761
   9723SM  H12G13182   3.059   1.574   4.489 -0.5890 -0.0218 -0.0282
   9723SM  C13F13183   3.249   1.537   4.588 -0.7973  0.1237  0.1359
   9723SM  H13F13184   3.296   1.614   4.523 -0.9349  0.7507  0.7696
   9723SM  H13G13185   3.316   1.452   4.610 -0.5837  0.4262  0.6719
   9723SM  C14F13186   3.213   1.610   4.722 -0.1723 -0.1976  0.2717
   9723SM  H14F13187   3.154   1.536   4.781  2.0646 -2.7165 -0.4751
   9723SM  H14G13188   3.143   1.695   4.705 -1.8072 -0.9850  2.4728
   9723SM  C15F13189   3.335   1.643   4.814 -0.2493 -0.2999  1.1205
   9723SM  H15F13190   3.391   1.728   4.769  1.8736 -2.1426  0.0558
   9723SM  H15G13191   3.399   1.552   4.809 -2.3769 -1.8317  0.2740
   9723SM  C16F13192   3.298   1.670   4.959 -0.1976 -0.3083 -0.6231
   9723SM  H16F13193   3.263   1.574   5.002 -0.9929  0.7393  1.1765
   9723SM  H16G13194   3.215   1.743   4.967 -0.1552 -0.3534  0.4601
   9723SM  C17F13195   3.418   1.723   5.050 -0.1953  0.2820  0.2603
   9723SM  H17F13196   3.487   1.765   4.975  2.1648 -1.5865  1.2613
   9723SM  H17G13197   3.449   1.628   5.100 -0.9676 -0.7676 -1.1863
   9723SM  C18F13198   3.372   1.818   5.161 -0.0282  0.0171  0.5658
   9723SM  H18F13199   3.321   1.898   5.104 -1.3182 -0.2056  1.3617
   9723SM  H18G13200   3.459   1.864   5.212 -1.9623  1.5865  2.6645
   9723SM  C19F13201   3.267   1.762   5.265 -0.1255 -0.1904 -0.1411
   9723SM  H19F13202   3.172   1.729   5.217 -3.2993  0.9981  4.5590
   9723SM  H19G13203   3.230   1.852   5.319 -2.7437 -1.7913  0.9489
   9723SM  C20F13204   3.312   1.651   5.357  0.6330  0.5924  0.2720
   9723SM  H20F13205   3.392   1.586   5.315  0.3477  1.3368 -1.5122
   9723SM  H20G13206   3.222   1.598   5.394  0.0502  0.5151 -1.1862
   9723SM  C21F13207   3.375   1.713   5.484  0.4536  0.3500  0.0316
   9723SM  H21F13208   3.304   1.772   5.546 -1.2148 -2.5104  1.0226
   9723SM  H21G13209   3.463   1.774   5.454  1.8613 -1.9852 -0.8381
   9723SM  C22F13210   3.435   1.600   5.563 -0.6654 -0.0314 -0.5472
   9723SM  H22F13211   3.511   1.548   5.500 -0.0448  0.2548 -0.0495
   9723SM  H22G13212   3.369   1.517   5.597  1.1071 -1.3338 -0.1173
   9723SM  C23F13213   3.489   1.652   5.701  0.2315  0.0386 -0.4710
   9723SM  H23F13214   3.408   1.657   5.776  0.9425 -1.0339  0.4108
   9723SM  H23G13215   3.538   1.751   5.690 -1.9694  1.0794 -1.4777
   9723SM  H23H13216   3.560   1.576   5.741  2.4367  3.2981  2.4410
   9823SM     N13217   6.197   1.091   3.064  0.5156  0.0426  0.0391
   9823SM   C1513218   6.116   1.156   2.953  0.4559  0.1221  0.8318
   9823SM  H15A13219   6.104   1.090   2.869  0.6634  1.9698 -0.7111
   9823SM  H15B13220   6.155   1.252   2.923 -2.1702  1.8010  2.3882
   9823SM  H15C13221   6.017   1.176   2.991 -1.0665 -1.2286 -2.1142
   9823SM   C1413222   6.178   1.167   3.192 -0.0457 -0.0558 -0.3976
   9823SM  H14A13223   6.226   1.108   3.269  1.4718  0.9803 -0.5068
   9823SM  H14B13224   6.073   1.180   3.209  0.0062 -0.7924  0.5502
   9823SM  H14C13225   6.212   1.270   3.193 -1.4356  0.4064  0.0544
   9823SM   C1313226   6.133   0.955   3.080  0.0677 -0.1494 -0.0655
   9823SM  H13A13227   6.191   0.899   3.152 -0.3386  3.0805  3.0185
   9823SM  H13B13228   6.121   0.901   2.987  0.0657 -4.2169  2.0586
   9823SM  H13C13229   6.034   0.967   3.121  0.2880 -0.2102  0.4945
   9823SM   C1213230   6.337   1.084   3.016  0.4123 -0.3009 -0.2800
   9823SM  H12A13231   6.383   1.177   2.986  0.5309 -0.0986  0.5211
   9823SM  H12B13232   6.345   1.027   2.924  2.1496  2.5533 -2.0494
   9823SM   C1113233   6.438   1.037   3.117  0.1839 -0.2188  0.0866
   9823SM  H11A13234   6.438   1.101   3.208 -1.6305 -1.8918  1.3465
   9823SM  H11B13235   6.539   1.066   3.083 -0.4536  0.7942 -1.0032
   9823SM     P13236   6.461   0.784   3.044 -0.3831 -0.0132 -0.1601
   9823SM   O1313237   6.347   0.692   3.047 -0.0624 -0.4518 -0.9237
   9823SM   O1413238   6.489   0.855   2.919  0.4053 -0.4302 -0.0245
   9823SM   O1113239   6.586   0.709   3.099  0.4673 -0.4041 -0.3675
   9823SM   O1213240   6.433   0.895   3.152  0.0380  0.1266 -0.0131
   9823SM   C1S13241   6.709   0.783   3.121  0.7739 -0.0263  0.0214
   9823SM   H1S13242   6.703   0.891   3.097  0.0616  0.1576  0.9804
   9823SM   H1T13243   6.781   0.742   3.047 -1.3747 -1.7763 -1.2441
   9823SM    NF13244   6.895   0.833   3.269 -0.8893  0.2492  0.8342
   9823SM   HNF13245   6.967   0.767   3.250 -1.3158  0.0700 -0.2573
   9823SM   C2S13246   6.760   0.774   3.269 -0.2197 -0.5771  0.9179
   9823SM   H2S13247   6.699   0.842   3.333 -1.2997 -0.8419  0.1840
   9823SM   C3S13248   6.754   0.624   3.315 -0.6943  0.7784  0.2954
   9823SM   H3S13249   6.818   0.560   3.250 -2.0176  0.3499 -0.6272
   9823SM    O313250   6.619   0.571   3.313  0.2116 -0.0082  0.1046
   9823SM   HO313251   6.584   0.639   3.254  4.1037  2.2802  0.0446
   9823SM   C4S13252   6.814   0.609   3.451 -0.6130 -0.1887  0.0031
   9823SM   H4S13253   6.782   0.680   3.528  2.1490  1.5048 -0.3061
   9823SM   C5S13254   6.914   0.516   3.476  0.1297  0.5267 -0.3125
   9823SM   H5S13255   6.959   0.461   3.391 -1.9820 -1.0175 -0.4935
   9823SM   C6S13256   6.972   0.495   3.612 -0.2248  0.2947  0.0643
   9823SM   H6S13257   7.057   0.565   3.629  1.2447 -1.6558  1.1162
   9823SM   H6T13258   7.025   0.398   3.605  0.4709  0.7518 -1.4436
   9823SM   C7S13259   6.870   0.487   3.731 -0.6557  0.6000 -0.7263
   9823SM   H7S13260   6.798   0.404   3.716  0.5275 -0.6529  0.2277
   9823SM   H7T13261   6.811   0.581   3.733 -0.6017  0.6623 -1.6399
   9823SM   C8S13262   6.940   0.463   3.863  0.6847 -0.7126  0.2441
   9823SM   H8S13263   7.008   0.551   3.870 -0.4054  0.2886 -1.1555
   9823SM   H8T13264   6.992   0.365   3.865 -1.3044 -1.8087  0.9337
   9823SM   C9S13265   6.836   0.457   3.974 -0.6048  0.1280 -0.6784
   9823SM   H9S13266   6.754   0.392   3.937 -0.8790 -0.2518  0.5759
   9823SM   H9T13267   6.803   0.561   3.994 -0.0811  0.3219 -0.8187
   9823SM  C10S13268   6.885   0.395   4.104 -0.3021 -0.2655 -0.9688
   9823SM  H10S13269   6.970   0.456   4.140 -0.5708  0.0974 -0.9490
   9823SM  H10T13270   6.923   0.291   4.094  1.2243  0.2146 -0.4229
   9823SM  C11S13271   6.785   0.409   4.219  0.1171  0.2979  0.8125
   9823SM  H11S13272   6.709   0.329   4.227 -0.7236  0.8356 -1.1050
   9823SM  H11T13273   6.722   0.499   4.200  1.3372  0.7947 -1.1018
   9823SM  C12S13274   6.848   0.449   4.352 -0.0930 -0.5389 -0.2609
   9823SM  H12S13275   6.766   0.475   4.422  0.5933 -0.4525  0.5218
   9823SM  H12T13276   6.910   0.540   4.359 -0.4138 -0.4234  1.4665
   9823SM  C13S13277   6.921   0.331   4.417 -0.0808  0.3337  0.1166
   9823SM  H13S13278   6.979   0.286   4.334 -2.4392  0.8196 -1.9168
   9823SM  H13T13279   6.843   0.257   4.445  2.8952 -3.3740 -0.5505
   9823SM  C14S13280   6.991   0.370   4.548 -0.1854 -0.5487 -0.0594
   9823SM  H14S13281   6.914   0.376   4.628 -0.6917 -0.0967 -0.5685
   9823SM  H14T13282   7.052   0.462   4.543  1.5433 -1.7126 -2.2512
   9823SM  C15S13283   7.099   0.279   4.581 -0.1244  0.1059 -0.3443
   9823SM  H15S13284   7.184   0.285   4.509  0.4218  1.3091  0.3862
   9823SM  H15T13285   7.063   0.175   4.564 -0.0540  0.3056 -1.8783
   9823SM  C16S13286   7.158   0.317   4.714  0.8129  1.1551 -0.2947
   9823SM  H16S13287   7.092   0.281   4.795  0.9313  0.4104 -0.5240
   9823SM  H16T13288   7.175   0.427   4.719  0.3043  1.1946  0.8294
   9823SM  C17S13289   7.304   0.262   4.722 -0.1987 -0.7414  0.0239
   9823SM  H17S13290   7.343   0.296   4.821 -3.0004 -0.8377  1.2726
   9823SM  H17T13291   7.367   0.324   4.655  0.8913 -1.2571  0.5348
   9823SM  C18S13292   7.331   0.119   4.672  0.0031  0.9354 -0.0554
   9823SM  H18S13293   7.298   0.119   4.566 -1.8994  2.0857  0.4699
   9823SM  H18T13294   7.262   0.048   4.723 -2.7941 -0.0127 -4.5734
   9823SM  H18U13295   7.438   0.092   4.684 -0.0091 -0.1166 -1.9320
   9823SM   C1F13296   6.914   0.964   3.251  0.4038 -0.8177  0.3978
   9823SM    OF13297   6.831   1.057   3.265 -0.0829  0.4752 -0.6365
   9823SM   C2F13298   7.055   1.004   3.218  0.4966  0.4492 -0.2140
   9823SM   H2F13299   7.066   0.987   3.108  1.5302  1.3309 -0.2648
   9823SM   H2G13300   7.125   0.932   3.264 -0.4570 -0.9115 -0.8206
   9823SM   C3F13301   7.077   1.156   3.258  0.2628  0.1162  0.1098
   9823SM   H3F13302   7.057   1.172   3.367  1.6403  0.1319  0.3704
   9823SM   H3G13303   7.017   1.221   3.190 -0.2922 -1.5693 -1.0650
   9823SM   C4F13304   7.223   1.202   3.229  0.3715  0.0202  0.0323
   9823SM   H4F13305   7.246   1.200   3.121  0.9257 -1.0407  0.1616
   9823SM   H4G13306   7.288   1.129   3.282  1.3469  1.9248  1.6531
   9823SM   C5F13307   7.253   1.351   3.276  0.2147 -1.0089  0.2152
   9823SM   H5F13308   7.167   1.413   3.245  1.4441  0.0873 -1.1893
   9823SM   H5G13309   7.339   1.382   3.213 -0.9941  0.7276 -0.6622
   9823SM   C6F13310   7.293   1.367   3.421 -0.2935 -0.2419  0.4094
   9823SM   H6F13311   7.385   1.311   3.448  1.7269  1.9903 -1.3707
   9823SM   H6G13312   7.204   1.334   3.478 -2.0880  2.9206 -0.3385
   9823SM   C7F13313   7.335   1.512   3.465 -1.2037 -0.5392  0.0519
   9823SM   H7F13314   7.245   1.577   3.464  0.0895  1.3256  0.5006
   9823SM   H7G13315   7.417   1.555   3.404  1.3839 -2.0551  2.2580
   9823SM   C8F13316   7.369   1.512   3.611 -0.6906 -0.4728 -0.2642
   9823SM   H8F13317   7.458   1.446   3.629 -0.9489 -0.7844 -0.1143
   9823SM   H8G13318   7.281   1.478   3.669  1.0386 -2.4353  1.3954
   9823SM   C9F13319   7.426   1.650   3.655  0.4189  0.2260 -0.2238
   9823SM   H9F13320   7.379   1.736   3.604 -2.4090 -2.2637 -2.1325
   9823SM   H9G13321   7.528   1.656   3.611  0.1189 -0.7090 -1.0903
   9823SM  C10F13322   7.443   1.672   3.806 -0.1909 -0.3924  0.2257
   9823SM  H10F13323   7.345   1.684   3.856 -0.3700 -2.3532  0.4201
   9823SM  H10G13324   7.498   1.768   3.806 -1.6731  0.5044 -1.0084
   9823SM  C11F13325   7.517   1.564   3.882  0.2185 -0.1759 -0.2692
   9823SM  H11F13326   7.615   1.541   3.836  1.1881  1.3459  0.9413
   9823SM  H11G13327   7.466   1.466   3.875  1.8731 -1.0942 -0.0140
   9823SM  C12F13328   7.535   1.610   4.029  0.5061  0.4466  0.3301
   9823SM  H12F13329   7.436   1.636   4.074  0.1606 -0.4707  0.1251
   9823SM  H12G13330   7.607   1.695   4.032  0.6605  0.3004  0.8162
   9823SM  C13F13331   7.587   1.504   4.123  0.0027 -0.1027  0.3102
   9823SM  H13F13332   7.691   1.480   4.092 -0.5909 -0.8456 -1.1851
   9823SM  H13G13333   7.519   1.416   4.117 -1.2697  0.7483  1.5815
   9823SM  C14F13334   7.594   1.553   4.271 -0.8729  0.0449  0.8574
   9823SM  H14F13335   7.675   1.628   4.285 -1.0601  0.4890 -0.3317
   9823SM  H14G13336   7.610   1.461   4.332  0.1130 -0.4411 -0.0971
   9823SM  C15F13337   7.463   1.617   4.327 -0.2445 -0.5871  0.0506
   9823SM  H15F13338   7.379   1.544   4.327  0.7912 -1.8163 -0.6481
   9823SM  H15G13339   7.448   1.694   4.248  0.0293 -1.8959 -1.3311
   9823SM  C16F13340   7.474   1.679   4.466  0.3973 -0.0449 -0.0109
   9823SM  H16F13341   7.370   1.688   4.504 -0.2303 -0.1590 -1.6452
   9823SM  H16G13342   7.519   1.781   4.458  0.4630 -0.1343 -0.8666
   9823SM  C17F13343   7.560   1.590   4.559  0.9166  0.0094  0.3114
   9823SM  H17F13344   7.663   1.611   4.524  1.3688 -3.9390 -1.1434
   9823SM  H17G13345   7.532   1.484   4.545 -1.1275  0.2737  1.8557
   9823SM  C18F13346   7.533   1.619   4.709 -0.4909 -0.9457  0.2337
   9823SM  H18F13347   7.423   1.615   4.722 -0.4235  0.0211  1.2803
   9823SM  H18G13348   7.555   1.724   4.739 -0.9829 -0.0495 -2.3054
   9823SM  C19F13349   7.605   1.519   4.803 -0.3702  0.0090 -0.4387
   9823SM  H19F13350   7.715   1.513   4.786  0.1459 -1.4687  2.6672
   9823SM  H19G13351   7.574   1.413   4.789  1.8089 -0.5798 -1.2716
   9823SM  C20F13352   7.592   1.548   4.959  0.6293 -0.2033 -0.2837
   9823SM  H20F13353   7.614   1.655   4.977 -0.3992  0.0270 -0.3454
   9823SM  H20G13354   7.662   1.480   5.012  2.8122  0.8207 -1.7184
   9823SM  C21F13355   7.446   1.531   5.011  0.0012 -0.0534 -0.3933
   9823SM  H21F13356   7.405   1.428   5.005  2.0249 -1.0295  1.0788
   9823SM  H21G13357   7.377   1.591   4.949 -0.2813 -0.8351 -0.8441
   9823SM  C22F13358   7.430   1.571   5.157  0.2993  0.1146 -0.4859
   9823SM  H22F13359   7.457   1.678   5.159 -1.9639  0.7427 -0.2816
   9823SM  H22G13360   7.500   1.516   5.223 -2.2994 -1.4533  1.1732
   9823SM  C23F13361   7.290   1.562   5.222 -0.4092  0.1224  0.2452
   9823SM  H23F13362   7.262   1.461   5.260  1.0822 -1.2263 -2.0531
   9823SM  H23G13363   7.215   1.597   5.149  0.5979 -0.5699 -1.1634
   9823SM  H23H13364   7.286   1.636   5.305 -0.6221  2.7066 -1.9556
   9923SM     N13365   6.829   6.678   2.669 -0.2316 -0.1175  0.1802
   9923SM   C1513366   6.894   6.544   2.676  0.1594 -0.1681  0.7265
   9923SM  H15A13367   6.838   6.474   2.616 -0.7446 -0.6867  2.1021
   9923SM  H15B13368   6.886   6.511   2.779 -0.5770 -1.5616  0.2490
   9923SM  H15C13369   6.996   6.550   2.643  0.5055  2.0485  1.9759
   9923SM   C1413370   6.794   6.706   2.526 -0.4343 -0.6814 -0.5819
   9923SM  H14A13371   6.710   6.648   2.491 -0.1984 -1.1223 -0.4230
   9923SM  H14B13372   6.879   6.672   2.468 -1.3993 -0.7471 -2.0131
   9923SM  H14C13373   6.766   6.810   2.513 -1.1946 -0.2044  3.6508
   9923SM   C1313374   6.695   6.684   2.743 -0.4811  0.2264  0.3274
   9923SM  H13A13375   6.622   6.617   2.699 -0.9020  0.1447  1.1173
   9923SM  H13B13376   6.650   6.782   2.745 -1.8946 -0.4041  0.8592
   9923SM  H13C13377   6.693   6.656   2.848 -2.1234  2.4228  0.9455
   9923SM   C1213378   6.925   6.795   2.712  0.1157 -0.2400  0.1841
   9923SM  H12A13379   6.876   6.891   2.698 -0.3745  0.0778  3.3309
   9923SM  H12B13380   7.017   6.796   2.654 -0.1914  0.3187 -0.3108
   9923SM   C1113381   6.957   6.810   2.858 -0.1553  0.2835  0.4970
   9923SM  H11A13382   6.860   6.820   2.910 -0.2377  0.7002  0.2758
   9923SM  H11B13383   7.017   6.899   2.887 -0.1159  0.3965  0.0753
   9923SM     P13384   7.180   6.683   2.927  0.1737  0.0633  0.3444
   9923SM   O1313385   7.199   6.557   3.001  0.0076  0.1058  0.4840
   9923SM   O1413386   7.250   6.687   2.795  0.7667 -0.3416 -0.6967
   9923SM   O1113387   7.224   6.807   3.017  0.1167 -0.2602  0.3521
   9923SM   O1213388   7.029   6.694   2.902 -0.2402  0.4930 -0.2090
   9923SM   C1S13389   7.144   6.844   3.131  0.2327  0.2825  0.0113
   9923SM   H1S13390   7.043   6.797   3.125  0.8040 -0.9061 -0.5940
   9923SM   H1T13391   7.128   6.954   3.140 -2.2050 -0.1018  1.3169
   9923SM    NF13392   7.133   6.821   3.381  0.7237  0.6532 -0.6393
   9923SM   HNF13393   7.143   6.906   3.431 -3.1141  2.7923 -2.9991
   9923SM   C2S13394   7.219   6.805   3.261  1.1545  0.2712 -0.2584
   9923SM   H2S13395   7.242   6.696   3.257  0.3554  0.1001 -0.4054
   9923SM   C3S13396   7.348   6.882   3.272  0.1599  0.0549 -0.0419
   9923SM   H3S13397   7.329   6.991   3.286  1.8154  0.1171  2.3235
   9923SM    O313398   7.435   6.868   3.156 -0.4279 -0.0622 -0.4824
   9923SM   HO313399   7.376   6.833   3.089 -0.2239 -0.7270 -0.3230
   9923SM   C4S13400   7.430   6.831   3.393  0.0143  0.3736 -0.0016
   9923SM   H4S13401   7.479   6.734   3.374  2.7230  1.3530  1.5665
   9923SM   C5S13402   7.463   6.901   3.500  0.4218  0.6708 -0.2211
   9923SM   H5S13403   7.425   7.003   3.515 -0.1391  0.2989  0.9777
   9923SM   C6S13404   7.538   6.849   3.619 -0.1933  0.1382 -0.6566
   9923SM   H6S13405   7.624   6.919   3.627 -1.0504  1.0046  3.0364
   9923SM   H6T13406   7.586   6.749   3.608 -0.1676  0.1206 -0.3911
   9923SM   C7S13407   7.453   6.855   3.749 -0.3034  0.1953  0.0834
   9923SM   H7S13408   7.506   6.828   3.843  1.4448  2.1775 -0.2631
   9923SM   H7T13409   7.360   6.798   3.730  0.5657 -0.6443 -2.0068
   9923SM   C8S13410   7.392   6.992   3.791  0.0190  0.1714  0.5121
   9923SM   H8S13411   7.328   7.031   3.708 -0.6867  2.0655  1.8639
   9923SM   H8T13412   7.478   7.058   3.818  0.9893 -1.2485  0.9618
   9923SM   C9S13413   7.301   6.996   3.911  0.1439  0.2305 -0.0712
   9923SM   H9S13414   7.365   6.983   4.000 -0.9227  0.8594  0.8198
   9923SM   H9T13415   7.232   6.909   3.907  1.0831 -0.4920 -1.0790
   9923SM  C10S13416   7.213   7.118   3.912  0.1045 -0.3310 -0.3470
   9923SM  H10S13417   7.125   7.100   3.847  0.0662 -0.9391 -0.1314
   9923SM  H10T13418   7.261   7.202   3.858  0.3228 -0.9874 -1.1905
   9923SM  C11S13419   7.165   7.160   4.051 -0.3692  0.1586  0.4203
   9923SM  H11S13420   7.244   7.203   4.116 -0.4709 -1.3821  1.6349
   9923SM  H11T13421   7.127   7.069   4.102 -0.7010 -0.7351 -1.3411
   9923SM  C12S13422   7.062   7.270   4.029  0.2406  0.6715 -0.1369
   9923SM  H12S13423   7.090   7.342   3.949  0.4551  0.6691 -0.0654
   9923SM  H12T13424   7.055   7.333   4.120  1.3666 -0.1284  0.5308
   9923SM  C13S13425   6.915   7.224   4.010  0.2888  0.4630 -0.2304
   9923SM  H13S13426   6.910   7.170   3.913  0.9457 -0.4045  0.2040
   9923SM  H13T13427   6.843   7.308   4.018 -0.8500 -0.6102  1.4907
   9923SM  C14S13428   6.880   7.120   4.119  0.1315 -0.0488  0.6206
   9923SM  H14S13429   6.928   7.142   4.217  0.8140  2.0906 -0.1245
   9923SM  H14T13430   6.911   7.020   4.084 -0.8233 -0.3201  0.5228
   9923SM  C15S13431   6.725   7.114   4.138 -0.4786 -0.2933 -0.0690
   9923SM  H15S13432   6.689   7.071   4.042  1.2486  0.0406 -0.9226
   9923SM  H15T13433   6.695   7.221   4.144  0.9557  0.0960  0.6211
   9923SM  C16S13434   6.678   7.035   4.258  0.2601 -0.6326 -0.4258
   9923SM  H16S13435   6.750   7.029   4.342  0.5522  1.1344 -0.5074
   9923SM  H16T13436   6.657   6.929   4.232  0.7218 -1.0216  0.7173
   9923SM  C17S13437   6.548   7.106   4.318 -1.1104  0.4641 -0.4103
   9923SM  H17S13438   6.468   7.107   4.241 -0.3188 -0.1510 -1.2785
   9923SM  H17T13439   6.568   7.214   4.337  0.0079  0.0013  1.2636
   9923SM  C18S13440   6.499   7.035   4.443 -0.4326 -1.4407 -0.4360
   9923SM  H18S13441   6.585   7.041   4.513  0.1303 -0.2993 -1.1767
   9923SM  H18T13442   6.469   6.929   4.431  0.3854 -2.1235  2.7777
   9923SM  H18U13443   6.408   7.088   4.478  0.8102  0.4423  0.1514
   9923SM   C1F13444   7.019   6.749   3.389 -0.2875  0.0488  0.2441
   9923SM    OF13445   6.998   6.647   3.326 -0.1975  0.6829  0.7152
   9923SM   C2F13446   6.896   6.822   3.454 -0.5758  0.4497  0.0337
   9923SM   H2F13447   6.802   6.791   3.403  0.0126 -1.9278  0.2819
   9923SM   H2G13448   6.897   6.933   3.446  1.0117  0.6362  2.0746
   9923SM   C3F13449   6.874   6.782   3.598  0.2691  0.2439 -0.1362
   9923SM   H3F13450   6.871   6.671   3.606  0.2837  0.2762  0.3871
   9923SM   H3G13451   6.776   6.826   3.626  0.2046  0.7605 -1.1444
   9923SM   C4F13452   6.972   6.831   3.698 -0.2204  0.2319 -0.4258
   9923SM   H4F13453   6.997   6.936   3.672  0.7764  0.0280 -0.3152
   9923SM   H4G13454   7.067   6.774   3.689  0.3853  0.8742  1.4375
   9923SM   C5F13455   6.924   6.824   3.845  0.8937  0.0996 -0.2155
   9923SM   H5F13456   6.840   6.895   3.858 -0.1971 -1.4517  1.9918
   9923SM   H5G13457   7.008   6.858   3.909  2.1137 -1.1184 -1.1032
   9923SM   C6F13458   6.874   6.693   3.898  0.1696 -0.3700  0.9379
   9923SM   H6F13459   6.957   6.621   3.887  0.5464  0.3792 -1.7186
   9923SM   H6G13460   6.775   6.655   3.863  0.0207 -0.2232  1.1979
   9923SM   C7F13461   6.848   6.721   4.051  0.5421  0.3134 -0.0699
   9923SM   H7F13462   6.767   6.797   4.056  1.0324  0.8985 -0.8222
   9923SM   H7G13463   6.924   6.782   4.104 -1.0454  1.1941  1.2690
   9923SM   C8F13464   6.809   6.595   4.134  0.7670 -0.3048  0.0211
   9923SM   H8F13465   6.908   6.548   4.149  1.3699  0.9585  0.1152
   9923SM   H8G13466   6.739   6.526   4.082 -1.2198  0.5084  1.5109
   9923SM   C9F13467   6.750   6.635   4.266 -1.3272  0.0952 -0.4988
   9923SM   H9F13468   6.666   6.706   4.247 -2.0321  0.3903  3.0608
   9923SM   H9G13469   6.826   6.688   4.327  0.4545 -0.1186 -2.4482
   9923SM  C10F13470   6.689   6.523   4.342 -0.3579  0.2706 -0.4222
   9923SM  H10F13471   6.602   6.486   4.284 -0.1003 -2.9049  1.0196
   9923SM  H10G13472   6.639   6.563   4.433 -0.0728  1.3172 -0.7205
   9923SM  C11F13473   6.778   6.408   4.395  0.4171 -0.2763  0.2368
   9923SM  H11F13474   6.847   6.436   4.477 -0.2854  1.0324  0.4047
   9923SM  H11G13475   6.830   6.363   4.308 -2.3138 -2.0490 -0.6070
   9923SM  C12F13476   6.690   6.303   4.451 -0.3954 -0.2817 -0.3445
   9923SM  H12F13477   6.744   6.206   4.450  1.5063  0.6983  0.8459
   9923SM  H12G13478   6.595   6.285   4.397 -0.3602 -2.8523  0.3272
   9923SM  C13F13479   6.659   6.319   4.598 -0.0849  0.1391 -0.6094
   9923SM  H13F13480   6.613   6.418   4.620 -0.6953 -0.3326  0.3429
   9923SM  H13G13481   6.759   6.304   4.644 -0.1759  0.8064 -0.1669
   9923SM  C14F13482   6.568   6.202   4.648 -0.2713 -0.2648 -0.0794
   9923SM  H14F13483   6.622   6.110   4.616  3.4085  1.8674 -0.6732
   9923SM  H14G13484   6.473   6.228   4.596 -0.1067  1.2838  0.3272
   9923SM  C15F13485   6.551   6.201   4.802 -0.7291  0.5011 -0.4148
   9923SM  H15F13486   6.483   6.285   4.826  1.1814  2.5310 -1.6446
   9923SM  H15G13487   6.653   6.222   4.842 -1.7698  2.5311  1.2979
   9923SM  C16F13488   6.495   6.073   4.862  0.0702 -0.6355  0.0336
   9923SM  H16F13489   6.530   5.986   4.802 -0.5255 -1.8268  1.3543
   9923SM  H16G13490   6.386   6.069   4.841 -0.1381  1.0558  0.6802
   9923SM  C17F13491   6.510   6.044   5.015 -0.4111 -0.2191 -0.0370
   9923SM  H17F13492   6.490   6.134   5.078  1.9315  0.5571 -0.2767
   9923SM  H17G13493   6.616   6.019   5.040 -0.1390 -0.3138 -1.2595
   9923SM  C18F13494   6.425   5.928   5.055  0.5193  0.1417 -0.6681
   9923SM  H18F13495   6.427   5.839   4.989 -0.6459 -1.1803  0.9579
   9923SM  H18G13496   6.319   5.962   5.052  1.2489  2.4483 -2.2967
   9923SM  C19F13497   6.452   5.891   5.207 -0.5370  0.1692  0.1306
   9923SM  H19F13498   6.437   5.978   5.275  0.0362 -0.8670  1.6508
   9923SM  H19G13499   6.561   5.869   5.215 -0.5823 -0.4960 -0.9214
   9923SM  C20F13500   6.365   5.774   5.266  0.8051 -0.3724 -0.4130
   9923SM  H20F13501   6.425   5.680   5.268  1.7497  0.1336 -2.2799
   9923SM  H20G13502   6.270   5.772   5.207  1.1612  0.8993 -1.0673
   9923SM  C21F13503   6.318   5.802   5.408 -0.5224  0.1361 -0.9181
   9923SM  H21F13504   6.234   5.874   5.403 -0.9074 -0.0513  1.4603
   9923SM  H21G13505   6.400   5.844   5.470 -1.5252  1.7066 -0.6053
   9923SM  C22F13506   6.271   5.671   5.490 -0.3264  0.1184  0.3946
   9923SM  H22F13507   6.190   5.621   5.434 -0.7826  2.1173 -0.8085
   9923SM  H22G13508   6.227   5.706   5.586  1.0812  0.3548  0.9774
   9923SM  C23F13509   6.377   5.568   5.524  0.0299 -0.0903  0.3103
   9923SM  H23F13510   6.318   5.495   5.583  0.5299  0.6052  1.7295
   9923SM  H23G13511   6.452   5.616   5.592 -1.5559 -0.1529  2.2037
   9923SM  H23H13512   6.421   5.506   5.443  1.0358  0.6301  0.2840
  10023SM     N13513   7.138   7.553   2.777 -0.4527  0.1709  0.1085
  10023SM   C1513514   7.056   7.516   2.654 -0.7739  0.1718  0.0783
  10023SM  H15A13515   7.122   7.499   2.570 -1.4421 -5.5590  0.3108
  10023SM  H15B13516   6.979   7.587   2.629 -0.9161 -0.5765 -1.8026
  10023SM  H15C13517   7.010   7.420   2.671  0.9818 -0.5292  1.2234
  10023SM   C1413518   7.250   7.458   2.797 -0.6728 -0.1124  0.2377
  10023SM  H14A13519   7.329   7.483   2.866 -0.9829  0.6666  0.3235
  10023SM  H14B13520   7.311   7.435   2.711 -0.0699 -1.5491  1.0067
  10023SM  H14C13521   7.210   7.361   2.824 -0.5434  0.3119  2.0778
  10023SM   C1313522   7.205   7.689   2.753  0.5315  0.8866  0.0168
  10023SM  H13A13523   7.273   7.681   2.669  0.6640 -0.4363  0.2313
  10023SM  H13B13524   7.257   7.731   2.839  1.0217 -1.8059  1.1213
  10023SM  H13C13525   7.133   7.763   2.722 -1.0771 -0.9270 -0.7741
  10023SM   C1213526   7.051   7.551   2.904  0.0097 -0.0846 -0.0396
  10023SM  H12A13527   6.970   7.621   2.892  1.6871  1.8807 -0.3035
  10023SM  H12B13528   7.107   7.576   2.992  1.0019 -0.4495 -0.5490
  10023SM   C1113529   6.985   7.414   2.948 -0.0571  0.8433 -0.0292
  10023SM  H11A13530   6.905   7.392   2.874 -0.1265 -0.9676  0.5369
  10023SM  H11B13531   6.917   7.448   3.030 -1.2474  0.8856 -1.0097
  10023SM     P13532   7.163   7.307   3.115  0.0288  0.5033 -0.0423
  10023SM   O1313533   7.109   7.201   3.192 -0.1412  0.0094 -0.4054
  10023SM   O1413534   7.309   7.302   3.084  0.0046 -0.2944 -0.6579
  10023SM   O1113535   7.129   7.444   3.179 -0.5895 -0.0079 -0.2929
  10023SM   O1213536   7.075   7.310   2.978 -0.9823  0.2838  0.2484
  10023SM   C1S13537   7.017   7.477   3.253  0.2272 -0.7474 -0.1834
  10023SM   H1S13538   6.939   7.398   3.249 -0.1102 -0.4202 -0.0703
  10023SM   H1T13539   6.981   7.579   3.229  0.6649  0.3921  3.4998
  10023SM    NF13540   6.933   7.464   3.490 -0.7781 -0.0204  0.1271
  10023SM   HNF13541   6.889   7.539   3.539 -1.0887 -0.4560  0.5316
  10023SM   C2S13542   7.050   7.477   3.406 -0.3164 -0.2571 -0.6066
  10023SM   H2S13543   7.115   7.390   3.429  1.5876  1.2144 -0.1202
  10023SM   C3S13544   7.129   7.614   3.437 -0.7193  0.5574  0.6615
  10023SM   H3S13545   7.074   7.708   3.412  0.3652  0.8343 -0.7759
  10023SM    O313546   7.241   7.615   3.353  0.2663  0.3815  0.0845
  10023SM   HO313547   7.205   7.560   3.283 -0.0123 -0.1697  0.6443
  10023SM   C4S13548   7.184   7.614   3.571 -0.4606  0.9567  0.1183
  10023SM   H4S13549   7.238   7.520   3.588 -1.5937 -0.2219 -2.2190
  10023SM   C5S13550   7.176   7.709   3.663 -0.9761 -0.6499 -0.6268
  10023SM   H5S13551   7.120   7.803   3.652  0.8740  0.5508 -0.1769
  10023SM   C6S13552   7.237   7.693   3.800  0.5204  1.0246  0.6710
  10023SM   H6S13553   7.305   7.776   3.830 -0.6676  1.9264  0.9421
  10023SM   H6T13554   7.305   7.606   3.791 -1.1737 -0.1752 -1.2660
  10023SM   C7S13555   7.136   7.646   3.910  0.1519  0.8697 -0.2908
  10023SM   H7S13556   7.067   7.570   3.867 -0.2567  1.5300 -0.8280
  10023SM   H7T13557   7.066   7.728   3.938  0.2525  1.3278 -1.3431
  10023SM   C8S13558   7.212   7.595   4.034  0.0752  0.4902  0.4783
  10023SM   H8S13559   7.293   7.529   3.996  0.0424 -0.7427  2.3968
  10023SM   H8T13560   7.149   7.526   4.095 -1.6349  1.3756 -0.1945
  10023SM   C9S13561   7.277   7.699   4.127 -0.4599 -0.4625  0.8134
  10023SM   H9S13562   7.204   7.764   4.180  1.8953  2.3881  0.8473
  10023SM   H9T13563   7.337   7.756   4.053  0.0131  0.7686  2.0865
  10023SM  C10S13564   7.376   7.644   4.233 -0.5784  0.1919 -0.6124
  10023SM  H10S13565   7.447   7.578   4.179 -1.1559 -2.5118  1.6842
  10023SM  H10T13566   7.323   7.578   4.305 -0.2693 -1.3333 -1.7178
  10023SM  C11S13567   7.457   7.750   4.304  0.1809  0.0642 -0.1252
  10023SM  H11S13568   7.393   7.804   4.378 -0.7316 -2.2309  0.8539
  10023SM  H11T13569   7.487   7.819   4.222  0.2696 -2.3362 -2.2279
  10023SM  C12S13570   7.573   7.696   4.384 -0.3777  0.6123 -0.2498
  10023SM  H12S13571   7.615   7.607   4.333  1.5513  1.8036 -0.8578
  10023SM  H12T13572   7.544   7.652   4.482  0.3254 -1.4480 -0.9129
  10023SM  C13S13573   7.688   7.794   4.413  0.1920 -0.4767  0.4562
  10023SM  H13S13574   7.738   7.829   4.320  0.7741  0.9976  1.2884
  10023SM  H13T13575   7.772   7.747   4.467  1.1071  1.1081  0.4750
  10023SM  C14S13576   7.643   7.922   4.489 -0.3886 -0.4103 -0.3721
  10023SM  H14S13577   7.610   7.881   4.586 -1.4759 -1.2748 -1.0775
  10023SM  H14T13578   7.557   7.960   4.429 -0.6037  0.5908  0.5400
  10023SM  C15S13579   7.758   8.028   4.496  0.0454 -0.1228  0.1834
  10023SM  H15S13580   7.836   7.985   4.430 -0.9585 -0.8549 -0.5481
  10023SM  H15T13581   7.806   8.026   4.597  0.9862 -2.4777 -0.2613
  10023SM  C16S13582   7.721   8.170   4.448 -0.2926 -0.3663  0.8390
  10023SM  H16S13583   7.623   8.212   4.479 -1.8151 -1.8400 -1.5523
  10023SM  H16T13584   7.715   8.164   4.337  0.3385 -2.1876  0.8652
  10023SM  C17S13585   7.830   8.276   4.478 -0.3554 -0.0070 -0.5817
  10023SM  H17S13586   7.926   8.226   4.453  0.1902  0.8703 -0.3098
  10023SM  H17T13587   7.828   8.293   4.588 -1.9986  1.3470 -0.7765
  10023SM  C18S13588   7.819   8.419   4.416  0.5464  0.0849 -0.3696
  10023SM  H18S13589   7.814   8.413   4.305 -0.0105 -2.4175 -0.2700
  10023SM  H18T13590   7.899   8.486   4.454 -2.3892  2.1917  2.6009
  10023SM  H18U13591   7.725   8.472   4.444  0.5328  1.5346 -2.8979
  10023SM   C1F13592   6.871   7.346   3.507 -0.0834  0.6604  0.5648
  10023SM    OF13593   6.907   7.244   3.448  0.1638 -0.4451  0.5124
  10023SM   C2F13594   6.757   7.345   3.607  0.3500 -0.1950  0.2885
  10023SM   H2F13595   6.679   7.415   3.569 -2.4271 -1.7289  2.7642
  10023SM   H2G13596   6.794   7.373   3.708 -0.5246  1.0360  0.2904
  10023SM   C3F13597   6.691   7.206   3.620  0.5358  0.0584 -0.2986
  10023SM   H3F13598   6.754   7.122   3.657  0.8735  0.5232  0.2058
  10023SM   H3G13599   6.639   7.181   3.525 -2.6400 -0.5701  1.4392
  10023SM   C4F13600   6.565   7.209   3.713 -0.2176  0.1109 -0.6548
  10023SM   H4F13601   6.477   7.249   3.660 -1.4701 -0.7919  0.6778
  10023SM   H4G13602   6.588   7.288   3.787  1.7831  0.7585 -1.8665
  10023SM   C5F13603   6.526   7.073   3.772 -0.1394  0.4157  0.0898
  10023SM   H5F13604   6.436   7.088   3.836  1.2600  0.5526  2.1195
  10023SM   H5G13605   6.607   7.029   3.834 -0.5162  0.5318  0.6659
  10023SM   C6F13606   6.495   6.967   3.662  0.4014  0.6691  0.2194
  10023SM   H6F13607   6.581   6.956   3.592  0.4712 -0.5219  0.4749
  10023SM   H6G13608   6.406   7.012   3.612  0.4269  2.1091  1.3853
  10023SM   C7F13609   6.460   6.841   3.729 -0.0814 -1.0816  0.2528
  10023SM   H7F13610   6.384   6.858   3.808  1.6638  0.7918  1.6210
  10023SM   H7G13611   6.548   6.801   3.783 -0.0151 -0.8738  0.2990
  10023SM   C8F13612   6.419   6.720   3.646 -0.0341 -0.2237  0.4764
  10023SM   H8F13613   6.493   6.705   3.565 -3.0085  0.7991 -2.6457
  10023SM   H8G13614   6.321   6.738   3.598 -0.2945  0.8232  1.3467
  10023SM   C9F13615   6.392   6.601   3.728 -0.8614  0.2532  0.1568
  10023SM   H9F13616   6.370   6.519   3.655  1.0973  0.6242 -0.9230
  10023SM   H9G13617   6.297   6.607   3.785  0.7225 -0.7968  3.1370
  10023SM  C10F13618   6.501   6.555   3.823 -0.4882  0.4263  0.0991
  10023SM  H10F13619   6.506   6.632   3.903 -2.6072  1.1738 -0.4263
  10023SM  H10G13620   6.598   6.546   3.771 -0.3883  2.2295 -0.0683
  10023SM  C11F13621   6.468   6.426   3.891  0.4774  0.0158  0.0494
  10023SM  H11F13622   6.550   6.392   3.957 -1.8596 -2.0174  2.0944
  10023SM  H11G13623   6.453   6.358   3.804 -0.5043  1.9888 -1.4101
  10023SM  C12F13624   6.343   6.420   3.978 -0.2984 -0.2443  0.3400
  10023SM  H12F13625   6.249   6.423   3.919 -1.5648  0.4436  2.2885
  10023SM  H12G13626   6.346   6.512   4.041  1.1069  1.1176 -1.6027
  10023SM  C13F13627   6.347   6.296   4.064  0.0288  0.2254 -0.2860
  10023SM  H13F13628   6.441   6.287   4.123 -0.2678 -1.0888  0.0345
  10023SM  H13G13629   6.345   6.205   4.000 -0.0760  1.2156 -1.7262
  10023SM  C14F13630   6.224   6.284   4.162  0.5393 -0.3346  0.1844
  10023SM  H14F13631   6.190   6.378   4.212 -1.4438  0.2364 -2.0524
  10023SM  H14G13632   6.254   6.213   4.242  1.2122 -0.4852 -0.1974
  10023SM  C15F13633   6.101   6.223   4.093 -0.2019 -0.2518 -0.3077
  10023SM  H15F13634   6.113   6.113   4.091  0.1657 -0.2138 -0.3657
  10023SM  H15G13635   6.096   6.259   3.988  1.4885 -1.4219 -0.8449
  10023SM  C16F13636   5.968   6.266   4.159 -0.6453 -0.3908 -0.6354
  10023SM  H16F13637   5.957   6.376   4.172 -0.0483 -0.0944 -2.4047
  10023SM  H16G13638   5.965   6.219   4.260  1.0781  2.1630  0.7254
  10023SM  C17F13639   5.856   6.189   4.088 -0.2751 -0.5806  0.7097
  10023SM  H17F13640   5.883   6.083   4.108  0.4026 -0.4087  0.7393
  10023SM  H17G13641   5.851   6.215   3.980  1.2782 -1.3066  0.4375
  10023SM  C18F13642   5.723   6.208   4.162  0.4009 -0.8349 -0.4824
  10023SM  H18F13643   5.645   6.155   4.103 -1.0711 -0.0358  0.6772
  10023SM  H18G13644   5.707   6.318   4.165 -0.0296 -0.9008  2.2344
  10023SM  C19F13645   5.710   6.154   4.302 -0.2393  0.1682  0.2946
  10023SM  H19F13646   5.797   6.172   4.368 -0.6151 -0.6558  1.0370
  10023SM  H19G13647   5.703   6.043   4.302 -1.2548  0.1472 -2.2190
  10023SM  C20F13648   5.601   6.223   4.381  0.2649  0.1909  0.7288
  10023SM  H20F13649   5.504   6.213   4.328  1.2279 -0.6152 -0.9790
  10023SM  H20G13650   5.628   6.330   4.377 -1.3886  0.5908 -0.9996
  10023SM  C21F13651   5.587   6.177   4.524 -0.5160 -0.3626  0.0014
  10023SM  H21F13652   5.683   6.170   4.580 -1.6589 -1.0383  1.9693
  10023SM  H21G13653   5.533   6.080   4.522 -1.1302 -0.0212 -1.3071
  10023SM  C22F13654   5.497   6.262   4.604 -0.1301  1.0021  0.3566
  10023SM  H22F13655   5.399   6.283   4.556 -1.7153 -1.0473  2.4369
  10023SM  H22G13656   5.549   6.358   4.624  0.3203  0.7700  0.3167
  10023SM  C23F13657   5.461   6.197   4.735 -0.9831 -0.3348 -0.0266
  10023SM  H23F13658   5.409   6.268   4.803 -2.9184 -1.4230 -0.3199
  10023SM  H23G13659   5.551   6.162   4.791 -2.0995 -0.2150  1.9474
  10023SM  H23H13660   5.388   6.116   4.718 -1.2143 -0.1738  0.1873
  101CHL1    C313661   3.572   3.620   6.560 -0.1623  0.4155 -0.4843
  101CHL1    H313662   3.520   3.553   6.487 -0.0436  0.5746 -0.7157
  101CHL1    O313663   3.476   3.625   6.666 -0.3023  0.2600 -0.1453
  101CHL1   H3'13664   3.509   3.706   6.706  2.2249 -0.6689 -0.2119
  101CHL1    C413665   3.694   3.538   6.605  0.5559 -0.3586 -0.3664
  101CHL1   H4A13666   3.729   3.582   6.702 -0.0105 -0.8189  0.0541
  101CHL1   H4B13667   3.659   3.437   6.634  1.0682 -0.9375 -1.7244
  101CHL1    C513668   3.801   3.536   6.499  0.9704 -0.1804 -0.3282
  101CHL1    C613669   3.862   3.419   6.471  0.1779  1.0404 -0.4156
  101CHL1    H613670   3.837   3.332   6.535 -0.2165  2.6168  1.6963
  101CHL1    C713671   3.966   3.398   6.369 -1.0206 -0.1917  0.3689
  101CHL1   H7A13672   4.051   3.338   6.408  0.4251  0.1630 -2.0209
  101CHL1   H7B13673   3.919   3.335   6.290 -2.2133 -0.4422  1.2534
  101CHL1    C813674   4.015   3.528   6.312  0.3672 -0.1826  0.3300
  101CHL1    H813675   4.085   3.574   6.385  2.3067 -0.9828 -0.9328
  101CHL1   C1413676   4.091   3.503   6.179 -0.0106  0.1414  0.3245
  101CHL1   H1413677   4.016   3.478   6.101  0.8115  1.6542 -1.0207
  101CHL1   C1513678   4.206   3.407   6.190 -0.4624  0.9048  0.0261
  101CHL1  H15A13679   4.251   3.415   6.291 -1.6198  1.7030  0.5031
  101CHL1  H15B13680   4.174   3.300   6.190 -2.2782  1.3946 -1.1055
  101CHL1   C1613681   4.296   3.442   6.068 -0.2210 -0.2583  0.2499
  101CHL1  H16A13682   4.397   3.456   6.112 -0.4009 -0.5558  0.7571
  101CHL1  H16B13683   4.294   3.362   5.992 -0.7490  1.2141 -1.3676
  101CHL1   C1713684   4.233   3.567   5.997  0.2158  0.9371 -0.0671
  101CHL1   H1713685   4.158   3.543   5.918 -0.5757 -1.5040  1.3166
  101CHL1   C1313686   4.156   3.633   6.122 -0.2012 -0.3840 -0.2184
  101CHL1   C1813687   4.257   3.704   6.215 -0.3909 -0.1352 -0.0936
  101CHL1  H18A13688   4.347   3.642   6.235 -1.0227 -0.6501  1.3009
  101CHL1  H18B13689   4.282   3.806   6.180  0.5155  1.0730  3.6064
  101CHL1  H18C13690   4.205   3.721   6.312  0.0094 -0.0715  0.1121
  101CHL1   C1213691   4.033   3.722   6.085 -0.4354 -0.1129 -0.2747
  101CHL1  H12A13692   4.067   3.816   6.035 -0.5970 -0.8470 -1.7970
  101CHL1  H12B13693   3.970   3.679   6.005 -1.6806 -0.2373  0.7365
  101CHL1   C1113694   3.958   3.753   6.208  0.5486  0.3828  0.2519
  101CHL1  H11A13695   4.017   3.811   6.283  1.3170  0.4776 -0.4183
  101CHL1  H11B13696   3.869   3.814   6.183  0.0542 -0.0235  0.9740
  101CHL1    C913697   3.900   3.626   6.292 -0.0514  0.3409 -0.2161
  101CHL1    H913698   3.828   3.577   6.224 -0.7339  0.5482  0.3360
  101CHL1   C1013699   3.823   3.665   6.422 -0.3576 -0.1489 -0.9930
  101CHL1   C1913700   3.914   3.747   6.520  0.2321 -0.3322  0.5214
  101CHL1  H19A13701   4.017   3.706   6.530 -0.0692 -0.9396  1.2241
  101CHL1  H19B13702   3.917   3.850   6.480 -0.2850 -1.1163 -1.6908
  101CHL1  H19C13703   3.872   3.759   6.622 -2.0027  1.4599 -0.5117
  101CHL1    C113704   3.689   3.744   6.384 -0.1625  0.5179  0.7550
  101CHL1   H1A13705   3.712   3.846   6.346 -0.1257 -0.0580 -0.8024
  101CHL1   H1B13706   3.647   3.675   6.308  3.3235 -1.3054  0.2707
  101CHL1    C213707   3.593   3.758   6.501  0.2255 -0.7099  0.3975
  101CHL1   H2A13708   3.497   3.792   6.456  0.2775  2.0744  2.1672
  101CHL1   H2B13709   3.626   3.828   6.581  2.4012 -1.8434  0.5571
  101CHL1   C2013710   4.338   3.655   5.930 -0.4457 -0.1200  0.2594
  101CHL1   H2013711   4.393   3.718   6.003 -2.9420  2.0832  0.3894
  101CHL1   C2113712   4.258   3.747   5.833  0.9747  0.3781 -0.3128
  101CHL1  H21A13713   4.321   3.812   5.768  0.9699  0.9905  0.2926
  101CHL1  H21B13714   4.180   3.814   5.874  1.4842  0.2183  0.9386
  101CHL1  H21C13715   4.216   3.681   5.753 -0.9636  0.3977  0.6352
  101CHL1   C2213716   4.443   3.575   5.855  0.0476 -0.0218  0.3616
  101CHL1  H22A13717   4.515   3.538   5.931 -1.3555 -0.6602  1.4289
  101CHL1  H22B13718   4.392   3.492   5.802 -0.4601  1.7310 -2.1002
  101CHL1   C2313719   4.530   3.657   5.760 -0.0676 -0.2232 -1.0363
  101CHL1  H23A13720   4.475   3.699   5.673 -0.1777  2.0505  0.0624
  101CHL1  H23B13721   4.570   3.746   5.813 -0.5697 -1.0553  0.8070
  101CHL1   C2413722   4.666   3.587   5.731  0.0703  0.3029 -0.0100
  101CHL1  H24A13723   4.731   3.569   5.819  1.0848  1.7825 -0.4242
  101CHL1  H24B13724   4.641   3.492   5.677 -0.1846  1.0764 -1.2937
  101CHL1   C2513725   4.753   3.667   5.630 -0.1830 -0.2192  0.2278
  101CHL1   H2513726   4.742   3.776   5.648 -1.1003 -0.2108 -0.3003
  101CHL1   C2613727   4.900   3.635   5.637  0.1791  0.2226  0.3068
  101CHL1  H26A13728   4.942   3.674   5.732  0.2512 -1.1736  0.8822
  101CHL1  H26B13729   4.917   3.528   5.612 -0.5295 -0.0823  1.1020
  101CHL1  H26C13730   4.956   3.689   5.558 -1.1286  1.4120  0.1538
  101CHL1   C2713731   4.699   3.639   5.486 -0.1226 -0.7294 -0.4238
  101CHL1  H27A13732   4.595   3.679   5.485  0.3124  0.4369 -0.6676
  101CHL1  H27B13733   4.762   3.685   5.407  0.4471 -3.6296 -1.7934
  101CHL1  H27C13734   4.712   3.531   5.461  2.2352 -0.3866 -0.8493
  102CHL1    C313735   1.831   3.450   6.480  0.0056  0.2393 -0.7947
  102CHL1    H313736   1.825   3.346   6.520 -0.8562  1.7853  3.6055
  102CHL1    O313737   1.815   3.534   6.597 -0.0010  0.1940 -0.4702
  102CHL1   H3'13738   1.790   3.621   6.564 -2.3059 -0.3467 -0.3593
  102CHL1    C413739   1.965   3.488   6.411  0.7250  0.3615 -0.1006
  102CHL1   H4A13740   1.971   3.598   6.397 -1.4186  0.3695 -1.4321
  102CHL1   H4B13741   2.053   3.461   6.472  0.8976  1.2744  0.0762
  102CHL1    C513742   1.977   3.415   6.277  0.0762 -0.5413  0.7229
  102CHL1    C613743   2.090   3.355   6.246  0.0793  0.5778  0.4936
  102CHL1    H613744   2.168   3.342   6.322  0.4193  1.6554  0.3565
  102CHL1    C713745   2.120   3.282   6.123  0.4616 -0.1743  0.4278
  102CHL1   H7A13746   2.220   3.316   6.090 -0.2239  2.6810  1.0187
  102CHL1   H7B13747   2.112   3.173   6.145 -2.2179 -0.2138 -0.3777
  102CHL1    C813748   2.023   3.331   6.011  0.1151 -0.1846 -0.0953
  102CHL1    H813749   2.053   3.433   5.983 -2.2801  0.5719 -0.1757
  102CHL1   C1413750   2.053   3.241   5.893 -1.1207 -0.1304  0.1270
  102CHL1   H1413751   2.021   3.139   5.922 -1.0980 -0.6760 -1.6759
  102CHL1   C1513752   2.196   3.233   5.836 -0.3645  0.4450  0.2461
  102CHL1  H15A13753   2.242   3.329   5.804  2.1058 -0.7993 -0.1823
  102CHL1  H15B13754   2.269   3.163   5.881  0.8121  0.8037 -1.0558
  102CHL1   C1613755   2.169   3.163   5.699  0.5489  0.1989  0.2941
  102CHL1  H16A13756   2.225   3.217   5.620 -1.2074  1.2287 -0.3265
  102CHL1  H16B13757   2.208   3.060   5.708  0.3869  0.2861  2.9297
  102CHL1   C1713758   2.012   3.162   5.668 -0.8436  0.3543  0.3252
  102CHL1   H1713759   1.979   3.059   5.694  0.7580 -0.4934 -0.8637
  102CHL1   C1313760   1.959   3.264   5.771  0.0930 -0.6672 -0.2641
  102CHL1   C1813761   1.991   3.403   5.720 -0.0000  0.0959 -0.4202
  102CHL1  H18A13762   2.090   3.418   5.672 -0.6515  1.7670 -1.3079
  102CHL1  H18B13763   1.921   3.423   5.636 -0.1958  0.3322 -0.1994
  102CHL1  H18C13764   1.966   3.488   5.786 -0.3369 -0.7118  0.5304
  102CHL1   C1213765   1.813   3.250   5.811  0.2328  0.9208 -0.1475
  102CHL1  H12A13766   1.746   3.293   5.733 -2.8479 -0.6064  1.4659
  102CHL1  H12B13767   1.786   3.143   5.821 -1.9239  1.4003 -0.1455
  102CHL1   C1113768   1.776   3.338   5.932 -0.3458 -0.1926 -0.2352
  102CHL1  H11A13769   1.770   3.444   5.899  1.6244 -0.0198 -0.1889
  102CHL1  H11B13770   1.673   3.312   5.965 -0.6982 -0.4558 -1.5036
  102CHL1    C913771   1.880   3.323   6.048 -0.0492 -0.0023 -0.4463
  102CHL1    H913772   1.864   3.219   6.085  0.4464  0.2695  0.5538
  102CHL1   C1013773   1.859   3.423   6.176  0.4963  0.6097  0.6026
  102CHL1   C1913774   1.856   3.568   6.125  0.1590 -0.2153 -0.0707
  102CHL1  H19A13775   1.839   3.638   6.210  3.4602 -0.4562  0.9578
  102CHL1  H19B13776   1.957   3.589   6.084  0.3650 -1.0484 -0.0087
  102CHL1  H19C13777   1.782   3.590   6.046 -2.7790 -0.8703  2.3380
  102CHL1    C113778   1.730   3.387   6.252  0.2981  0.4769 -0.1241
  102CHL1   H1A13779   1.647   3.419   6.185 -0.2958 -1.7674 -0.5774
  102CHL1   H1B13780   1.727   3.278   6.277 -0.5682  0.2623 -1.1070
  102CHL1    C213781   1.711   3.463   6.387 -0.0911  0.3813  0.8265
  102CHL1   H2A13782   1.614   3.433   6.432 -1.3528 -0.9637 -2.4491
  102CHL1   H2B13783   1.701   3.570   6.359  0.0520  0.2445  0.2345
  102CHL1   C2013784   1.985   3.182   5.516 -0.9694  0.0203  0.5795
  102CHL1   H2013785   2.039   3.274   5.486  0.5741 -1.6772 -2.3100
  102CHL1   C2113786   1.833   3.203   5.487 -0.3110 -0.3567 -0.2214
  102CHL1  H21A13787   1.815   3.183   5.379 -1.4272  1.5218 -0.4306
  102CHL1  H21B13788   1.792   3.303   5.514  1.3544  0.3136 -0.0592
  102CHL1  H21C13789   1.764   3.143   5.550 -2.6222  2.8791  0.5878
  102CHL1   C2213790   2.062   3.077   5.430 -0.2148 -0.2249 -0.8298
  102CHL1  H22A13791   2.168   3.095   5.456 -0.8769  1.7548  0.6867
  102CHL1  H22B13792   2.024   2.979   5.466  0.5527 -0.6081 -1.0369
  102CHL1   C2313793   2.035   3.095   5.280 -0.0528 -0.2970  0.4442
  102CHL1  H23A13794   1.936   3.051   5.259 -0.5826  0.9820  0.1576
  102CHL1  H23B13795   2.029   3.203   5.254 -0.0675 -0.5315 -0.5958
  102CHL1   C2413796   2.146   3.031   5.198 -0.6585 -0.7163  0.4078
  102CHL1  H24A13797   2.246   3.071   5.224 -1.1104  0.5075  0.3149
  102CHL1  H24B13798   2.150   2.922   5.218 -0.6700 -0.8742 -0.4289
  102CHL1   C2513799   2.136   3.063   5.052 -0.2702  0.2404 -0.1069
  102CHL1   H2513800   2.163   3.171   5.050  0.9456 -0.0235  1.0721
  102CHL1   C2613801   2.241   2.984   4.972 -0.5926  0.0134 -0.2200
  102CHL1  H26A13802   2.215   2.998   4.865 -2.5683  0.4385  0.2866
  102CHL1  H26B13803   2.338   3.035   4.990  0.4245 -1.6097 -0.8769
  102CHL1  H26C13804   2.244   2.877   5.005 -1.1650 -0.2963 -1.1261
  102CHL1   C2713805   1.997   3.047   4.987  0.3086  0.5533 -0.1192
  102CHL1  H27A13806   2.009   3.041   4.877 -0.0932 -0.1196 -0.1300
  102CHL1  H27B13807   1.955   2.953   5.028 -0.9985  1.2660  0.2220
  102CHL1  H27C13808   1.928   3.132   5.005 -0.0253  0.2990 -0.1869
  103CHL1    C313809   2.578   2.561   6.362 -0.2038  0.3601  0.2997
  103CHL1    H313810   2.595   2.667   6.336  0.6933  0.1001 -0.2360
  103CHL1    O313811   2.501   2.558   6.479 -0.2868 -0.7950 -1.4760
  103CHL1   H3'13812   2.476   2.467   6.495  0.2127 -0.6972  0.1148
  103CHL1    C413813   2.504   2.494   6.240 -0.6521  0.2181  0.8445
  103CHL1   H4A13814   2.496   2.386   6.267  0.8313  0.2599  1.5874
  103CHL1   H4B13815   2.405   2.541   6.224 -1.1236 -1.3352 -1.3089
  103CHL1    C513816   2.592   2.505   6.113  0.1645  0.7060  0.0625
  103CHL1    C613817   2.541   2.564   6.003 -0.6025  0.0309 -0.5763
  103CHL1    H613818   2.435   2.589   6.003 -1.2647 -2.2154  2.0250
  103CHL1    C713819   2.628   2.586   5.881 -0.5633  0.4845  0.6251
  103CHL1   H7A13820   2.567   2.548   5.796 -0.1735  1.7109 -0.2198
  103CHL1   H7B13821   2.649   2.695   5.873 -2.5765  0.8798  0.0567
  103CHL1    C813822   2.764   2.510   5.877  0.4880 -0.7554  0.5372
  103CHL1    H813823   2.746   2.404   5.848  0.3737 -1.2589  2.3388
  103CHL1   C1413824   2.846   2.579   5.764  0.1661  0.2520 -0.1037
  103CHL1   H1413825   2.865   2.682   5.800  0.6212 -0.7760  2.8253
  103CHL1   C1513826   2.789   2.590   5.617 -0.2048  0.3833 -0.4824
  103CHL1  H15A13827   2.749   2.491   5.588 -0.6885 -0.7228  3.4082
  103CHL1  H15B13828   2.711   2.669   5.610  0.7395  1.3188 -0.8135
  103CHL1   C1613829   2.914   2.622   5.541  0.7970  0.1063 -0.2731
  103CHL1  H16A13830   2.911   2.554   5.453  1.0136  1.0333 -1.0201
  103CHL1  H16B13831   2.897   2.729   5.514 -1.3132  0.3671  1.7224
  103CHL1   C1713832   3.044   2.604   5.627  0.1035  0.0235 -0.0963
  103CHL1   H1713833   3.067   2.703   5.671  0.4910 -0.2372  0.2942
  103CHL1   C1313834   2.992   2.525   5.746  0.6436 -0.2289 -1.1330
  103CHL1   C1813835   2.991   2.370   5.711  0.8313 -0.1450  0.5264
  103CHL1  H18A13836   2.935   2.366   5.615  2.7425  1.3032 -0.7247
  103CHL1  H18B13837   3.097   2.338   5.696  1.1515  0.6299  1.0844
  103CHL1  H18C13838   2.941   2.300   5.781  1.8100 -0.6884  0.7032
  103CHL1   C1213839   3.058   2.539   5.882 -0.6067  0.4003 -0.1918
  103CHL1  H12A13840   3.157   2.489   5.884 -0.9150 -0.2854 -1.2500
  103CHL1  H12B13841   3.073   2.645   5.913  1.6747  0.1721 -0.3156
  103CHL1   C1113842   2.982   2.470   5.994  0.7189  0.2583  0.1338
  103CHL1  H11A13843   2.971   2.359   5.984 -0.2663  0.2217  1.3942
  103CHL1  H11B13844   3.040   2.486   6.087  0.6599  0.1986  0.1813
  103CHL1    C913845   2.829   2.524   6.008  0.3886  0.0735  0.9222
  103CHL1    H913846   2.844   2.633   6.022 -2.6272  0.5660  1.0203
  103CHL1   C1013847   2.742   2.473   6.129  0.2527 -0.1299  0.2598
  103CHL1   C1913848   2.749   2.314   6.125 -0.1724 -0.0856 -0.0401
  103CHL1  H19A13849   2.732   2.275   6.022 -0.2118 -2.0366  0.6570
  103CHL1  H19B13850   2.848   2.277   6.162 -0.0333 -0.7804 -1.0658
  103CHL1  H19C13851   2.666   2.268   6.183  1.3225 -0.0461  2.2973
  103CHL1    C113852   2.801   2.524   6.262 -0.1272  0.1448  0.1620
  103CHL1   H1A13853   2.895   2.466   6.278  0.2535  0.7989  0.3354
  103CHL1   H1B13854   2.811   2.635   6.255 -1.1469  0.2236 -0.1457
  103CHL1    C213855   2.713   2.498   6.383 -0.3530  0.2377  0.3656
  103CHL1   H2A13856   2.761   2.542   6.473  2.2002 -1.6647  0.0348
  103CHL1   H2B13857   2.693   2.390   6.397 -0.2078 -0.0550 -1.4773
  103CHL1   C2013858   3.167   2.567   5.540  0.7890 -0.1223 -0.8144
  103CHL1   H2013859   3.147   2.475   5.482  3.6487  0.4084 -2.8682
  103CHL1   C2113860   3.286   2.548   5.632  0.2571 -0.4626 -0.2859
  103CHL1  H21A13861   3.295   2.639   5.695 -0.1232 -0.8359  0.3209
  103CHL1  H21B13862   3.377   2.526   5.573 -1.4285 -2.3140 -2.3675
  103CHL1  H21C13863   3.267   2.467   5.707 -2.4514 -0.2837 -0.6869
  103CHL1   C2213864   3.208   2.678   5.436 -0.1722  0.1174 -0.4590
  103CHL1  H22A13865   3.115   2.715   5.387 -0.7010  0.0420  0.4606
  103CHL1  H22B13866   3.246   2.769   5.489  0.7192  0.7381 -2.0909
  103CHL1   C2313867   3.295   2.619   5.327 -0.3570  0.3149  0.1874
  103CHL1  H23A13868   3.384   2.574   5.375  0.3539  1.0904 -0.3700
  103CHL1  H23B13869   3.234   2.534   5.290  1.1664 -0.4880 -0.5922
  103CHL1   C2413870   3.329   2.719   5.215  0.1572  1.5420 -0.3328
  103CHL1  H24A13871   3.236   2.754   5.165 -1.6688 -1.3598  0.7573
  103CHL1  H24B13872   3.388   2.801   5.260 -0.1944  0.7851  1.6194
  103CHL1   C2513873   3.422   2.653   5.119  0.4940  0.2074 -0.5535
  103CHL1   H2513874   3.499   2.607   5.184  0.7957  2.8220  1.0538
  103CHL1   C2613875   3.337   2.572   5.012  0.2767 -0.2008 -0.0128
  103CHL1  H26A13876   3.284   2.625   4.930  0.5532 -2.1265 -1.4930
  103CHL1  H26B13877   3.408   2.500   4.966  1.1273  1.0398 -0.7127
  103CHL1  H26C13878   3.266   2.509   5.069  1.8781 -2.1748 -0.0784
  103CHL1   C2713879   3.507   2.757   5.041  0.3647  1.4127 -0.7256
  103CHL1  H27A13880   3.578   2.813   5.106  1.5759 -1.7203  0.8701
  103CHL1  H27B13881   3.563   2.702   4.963 -1.4319 -1.3559 -0.2052
  103CHL1  H27C13882   3.439   2.831   4.993 -1.8219  0.3932  0.6177
  104CHL1    C313883   6.409   4.954   6.525  0.0746  0.1849  0.3780
  104CHL1    H313884   6.300   4.949   6.507  0.0390  1.9432 -0.1020
  104CHL1    O313885   6.440   4.935   6.661  0.3488 -0.3980  0.1004
  104CHL1   H3'13886   6.532   4.909   6.663  0.4132 -0.1747  0.0693
  104CHL1    C413887   6.467   4.829   6.448 -0.4867 -0.7137  0.3310
  104CHL1   H4A13888   6.575   4.821   6.473  0.2025  3.2364 -0.5925
  104CHL1   H4B13889   6.414   4.743   6.494 -0.3611 -0.7881  0.3370
  104CHL1    C513890   6.452   4.839   6.295 -0.2702 -0.8353  0.2460
  104CHL1    C613891   6.391   4.749   6.221 -0.0399 -0.4173 -0.3090
  104CHL1    H613892   6.339   4.660   6.261 -0.3482 -0.1433 -0.0922
  104CHL1    C713893   6.380   4.757   6.073 -0.0775  0.1418 -0.3707
  104CHL1   H7A13894   6.404   4.661   6.023  0.2597 -0.3922  0.7888
  104CHL1   H7B13895   6.274   4.784   6.059 -0.2646 -0.5143 -0.2729
  104CHL1    C813896   6.461   4.867   6.001 -0.1879 -0.0055 -0.0215
  104CHL1    H813897   6.565   4.830   5.993 -0.5888 -0.7118 -3.7739
  104CHL1   C1413898   6.402   4.889   5.863 -0.5161 -0.2680 -0.2548
  104CHL1   H1413899   6.297   4.922   5.882  0.0619  0.1491  2.6768
  104CHL1   C1513900   6.395   4.765   5.776 -1.1959 -0.2206 -0.6953
  104CHL1  H15A13901   6.492   4.712   5.784 -0.1559  1.8455  1.4156
  104CHL1  H15B13902   6.317   4.698   5.818 -1.0482  0.5984  0.9784
  104CHL1   C1613903   6.357   4.833   5.646 -0.1926 -0.2295  0.2167
  104CHL1  H16A13904   6.426   4.786   5.572 -0.9074  2.5300 -2.3796
  104CHL1  H16B13905   6.250   4.816   5.622 -0.2212 -1.6566  1.2082
  104CHL1   C1713906   6.379   4.987   5.661 -0.3107  0.1011 -0.2908
  104CHL1   H1713907   6.286   5.033   5.700  0.9969 -0.5256  4.2668
  104CHL1   C1313908   6.470   4.999   5.780 -0.4101  0.0668  0.0711
  104CHL1   C1813909   6.616   4.972   5.753 -0.1229 -0.1805 -0.4306
  104CHL1  H18A13910   6.668   4.934   5.843  1.8999 -0.7650 -1.7790
  104CHL1  H18B13911   6.627   4.884   5.686  3.8624  1.2389 -1.9288
  104CHL1  H18C13912   6.677   5.056   5.714  0.3797 -0.4282 -0.1848
  104CHL1   C1213913   6.470   5.129   5.862  0.1169 -0.3259 -0.2718
  104CHL1  H12A13914   6.535   5.205   5.815  0.8710  1.2827  3.0233
  104CHL1  H12B13915   6.365   5.166   5.856  0.6116  1.2396  0.3228
  104CHL1   C1113916   6.519   5.115   6.007 -0.0515  0.1485 -0.8274
  104CHL1  H11A13917   6.629   5.101   5.994  0.6411  2.9291  1.0815
  104CHL1  H11B13918   6.506   5.219   6.044  1.1498 -0.4935  1.5723
  104CHL1    C913919   6.452   4.997   6.086 -0.4682  0.3390  0.1248
  104CHL1    H913920   6.343   5.021   6.081 -0.4655  0.4045  0.3496
  104CHL1   C1013921   6.497   4.976   6.235  0.5338  0.2181  0.0362
  104CHL1   C1913922   6.653   4.980   6.229 -0.1586 -0.3832  0.4679
  104CHL1  H19A13923   6.688   5.085   6.218 -2.0154  0.0412 -2.3739
  104CHL1  H19B13924   6.708   4.948   6.320  0.7060 -0.4903 -0.0714
  104CHL1  H19C13925   6.701   4.921   6.147  3.2284 -0.6166  2.4347
  104CHL1    C113926   6.438   5.098   6.311  0.2679  0.5177 -0.2164
  104CHL1   H1A13927   6.482   5.193   6.272  0.8427  0.5236  0.4192
  104CHL1   H1B13928   6.329   5.098   6.292  0.5283  2.2623 -2.0859
  104CHL1    C213929   6.466   5.086   6.467  0.2731 -0.7461 -0.4863
  104CHL1   H2A13930   6.433   5.177   6.521 -1.4993  0.5708 -3.5356
  104CHL1   H2B13931   6.577   5.086   6.467  0.2741 -0.5048  0.0988
  104CHL1   C2013932   6.410   5.057   5.521  0.1473  0.1785 -0.2712
  104CHL1   H2013933   6.511   5.024   5.485 -0.1882  0.4702 -1.5216
  104CHL1   C2113934   6.413   5.215   5.538  0.2472 -0.3297  0.4705
  104CHL1  H21A13935   6.508   5.233   5.593  0.2001 -0.9213  0.7555
  104CHL1  H21B13936   6.322   5.238   5.598 -0.7175 -2.2425 -0.1550
  104CHL1  H21C13937   6.419   5.268   5.441  0.1203 -1.9292 -0.4406
  104CHL1   C2213938   6.314   5.010   5.405  0.1556 -0.0527  0.1799
  104CHL1  H22A13939   6.309   4.899   5.415 -0.1896 -0.0457  0.1088
  104CHL1  H22B13940   6.213   5.054   5.420 -0.1851 -0.8037  0.1349
  104CHL1   C2313941   6.361   5.061   5.268  0.0271 -0.2124 -0.0290
  104CHL1  H23A13942   6.348   5.172   5.268 -0.5616 -0.2550 -1.4308
  104CHL1  H23B13943   6.463   5.019   5.255 -0.3297 -1.4786  1.0622
  104CHL1   C2413944   6.267   5.008   5.159 -0.7709  0.2512 -0.1709
  104CHL1  H24A13945   6.265   4.898   5.150 -1.8476  0.3701 -1.6266
  104CHL1  H24B13946   6.167   5.047   5.186 -0.8060  1.1738 -1.5242
  104CHL1   C2513947   6.302   5.066   5.021 -0.8222  0.1092 -0.0685
  104CHL1   H2513948   6.248   4.999   4.950  0.5411 -0.9281 -0.1590
  104CHL1   C2613949   6.254   5.208   5.007 -0.1414 -0.0389  0.0355
  104CHL1  H26A13950   6.262   5.244   4.902 -0.4458  3.7202  1.1608
  104CHL1  H26B13951   6.151   5.214   5.049  0.1358  0.4265  0.6598
  104CHL1  H26C13952   6.312   5.283   5.065 -2.8875  0.7101  1.9911
  104CHL1   C2713953   6.454   5.051   4.988  0.3075  0.0451  0.2497
  104CHL1  H27A13954   6.473   5.039   4.879  1.4348  0.7262  0.3536
  104CHL1  H27B13955   6.524   5.129   5.025 -0.2971  0.8863 -0.3494
  104CHL1  H27C13956   6.482   4.952   5.030 -2.4297 -0.7987  0.2479
  105CHL1    C313957   6.383   4.349   6.214  0.4623  0.1382 -0.2696
  105CHL1    H313958   6.432   4.438   6.169 -1.0871  2.9001  2.9426
  105CHL1    O313959   6.420   4.343   6.349  0.0297 -1.0876 -0.3761
  105CHL1   H3'13960   6.371   4.273   6.393 -1.6487  1.3260  1.9710
  105CHL1    C413961   6.229   4.374   6.217 -0.4678  0.4385  0.2839
  105CHL1   H4A13962   6.185   4.283   6.262  0.1877  0.1037  0.2684
  105CHL1   H4B13963   6.206   4.460   6.283  1.4979  1.1563  0.1071
  105CHL1    C513964   6.182   4.393   6.076  0.0110  0.1215  0.3647
  105CHL1    C613965   6.116   4.506   6.039 -0.6324 -0.1742 -0.1992
  105CHL1    H613966   6.084   4.568   6.123  0.4794  0.4908 -0.2509
  105CHL1    C713967   6.066   4.539   5.901 -0.4423  0.4308 -0.1269
  105CHL1   H7A13968   5.960   4.574   5.892 -0.2449  1.2444  0.6275
  105CHL1   H7B13969   6.118   4.629   5.860 -0.5830 -0.5565 -2.6616
  105CHL1    C813970   6.080   4.420   5.806 -1.0561  0.1902  0.4282
  105CHL1    H813971   6.000   4.344   5.816  0.4522 -1.5396  0.0309
  105CHL1   C1413972   6.071   4.478   5.660  0.0445 -0.4092  0.2904
  105CHL1   H1413973   6.156   4.547   5.638 -0.4716 -0.3684 -1.6671
  105CHL1   C1513974   5.942   4.558   5.631 -0.3392  0.8643  0.5099
  105CHL1  H15A13975   5.851   4.514   5.677  1.0318 -0.6248  1.9437
  105CHL1  H15B13976   5.962   4.663   5.661  1.4251  1.9846 -3.7417
  105CHL1   C1613977   5.937   4.552   5.478 -0.4032 -0.7842  0.6200
  105CHL1  H16A13978   5.833   4.519   5.453 -1.0013  1.5794 -0.2755
  105CHL1  H16B13979   5.951   4.654   5.437  1.0706 -1.1244  0.2332
  105CHL1   C1713980   6.053   4.457   5.431 -0.2840 -0.1489 -0.0549
  105CHL1   H1713981   6.145   4.516   5.412 -2.2587  2.5861 -1.9816
  105CHL1   C1313982   6.077   4.369   5.551  0.1156  0.5317 -0.6824
  105CHL1   C1813983   5.965   4.267   5.563 -0.7567  0.6298 -0.1208
  105CHL1  H18A13984   5.999   4.183   5.499 -1.1943 -0.0526  0.5262
  105CHL1  H18B13985   5.962   4.216   5.663  0.7726  0.5180 -0.1065
  105CHL1  H18C13986   5.864   4.307   5.540 -1.4790 -0.8494  0.3455
  105CHL1   C1213987   6.216   4.299   5.560 -0.1724 -0.0323  0.3873
  105CHL1  H12A13988   6.218   4.221   5.480 -0.8427  2.2237 -1.9568
  105CHL1  H12B13989   6.302   4.368   5.549  1.3425 -1.2617  3.3068
  105CHL1   C1113990   6.245   4.239   5.702 -0.2140 -0.1620  0.5363
  105CHL1  H11A13991   6.178   4.151   5.713 -0.1999 -0.1941  0.3672
  105CHL1  H11B13992   6.352   4.208   5.714  0.0765  0.7468  0.3376
  105CHL1    C913993   6.214   4.341   5.826  0.3641  0.1234 -0.4291
  105CHL1    H913994   6.290   4.421   5.815 -1.1202  1.5843 -0.4862
  105CHL1   C1013995   6.231   4.283   5.970 -0.4733  0.1973  0.2845
  105CHL1   C1913996   6.137   4.159   5.992  0.5587 -0.2952 -0.5829
  105CHL1  H19A13997   6.031   4.189   5.986  1.0433  1.5410 -0.6309
  105CHL1  H19B13998   6.153   4.087   5.909 -0.7367 -0.9142 -0.3069
  105CHL1  H19C13999   6.166   4.111   6.088  0.8181  1.6545  0.3595
  105CHL1    C114000   6.377   4.244   5.988  0.0355 -0.1075 -0.1686
  105CHL1   H1A14001   6.410   4.161   5.922 -0.3149  0.3770 -0.9646
  105CHL1   H1B14002   6.439   4.330   5.953 -0.5809  1.8296  3.1493
  105CHL1    C214003   6.418   4.222   6.138  0.3368 -0.1696  0.6145
  105CHL1   H2A14004   6.529   4.215   6.146  0.2995 -2.7007 -0.2561
  105CHL1   H2B14005   6.371   4.136   6.189 -2.7851  1.8396  1.3930
  105CHL1   C2014006   6.022   4.399   5.294  0.3619  0.1299  0.2235
  105CHL1   H2014007   5.933   4.332   5.293 -0.4174  1.1226  0.9275
  105CHL1   C2114008   6.143   4.312   5.252 -0.1855  0.4633  0.3342
  105CHL1  H21A14009   6.143   4.208   5.290 -2.8111  0.0477 -0.6638
  105CHL1  H21B14010   6.238   4.364   5.277  0.2074 -0.0281 -0.1146
  105CHL1  H21C14011   6.139   4.308   5.142 -1.4751  0.5950  0.3716
  105CHL1   C2214012   5.991   4.506   5.189  0.1770 -0.7434  0.3518
  105CHL1  H22A14013   5.922   4.585   5.227  0.6178 -0.8725  1.4310
  105CHL1  H22B14014   6.086   4.553   5.156 -0.1522  0.1346  0.6235
  105CHL1   C2314015   5.920   4.442   5.067  0.1624 -0.6037 -0.1870
  105CHL1  H23A14016   5.989   4.380   5.007  1.2339 -0.4499  0.8569
  105CHL1  H23B14017   5.832   4.382   5.100 -0.0650  0.8743  2.1801
  105CHL1   C2414018   5.860   4.554   4.977  0.0844  0.5544  0.3780
  105CHL1  H24A14019   5.778   4.599   5.036 -2.1448 -0.5726 -1.6717
  105CHL1  H24B14020   5.946   4.624   4.970  1.1884 -0.8413 -0.9657
  105CHL1   C2514021   5.794   4.513   4.838 -0.4590  0.0270  0.6934
  105CHL1   H2514022   5.767   4.609   4.789  0.1480 -0.3174 -0.3410
  105CHL1   C2614023   5.897   4.444   4.742 -0.9526  0.3318 -0.2118
  105CHL1  H26A14024   5.991   4.500   4.724 -0.0402 -0.8627  0.6214
  105CHL1  H26B14025   5.930   4.350   4.792 -0.4195  1.0689  0.8606
  105CHL1  H26C14026   5.859   4.406   4.645  0.2460 -1.9079  0.1375
  105CHL1   C2714027   5.665   4.428   4.864 -1.0377 -0.5641  0.1808
  105CHL1  H27A14028   5.696   4.325   4.893  1.2164 -0.4878 -1.6234
  105CHL1  H27B14029   5.600   4.471   4.942 -0.9693 -2.1511  1.1601
  105CHL1  H27C14030   5.609   4.423   4.768 -0.8735  1.9371 -0.1073
  106CHL1    C314031   1.229   0.977   6.244 -0.3119  0.9673  0.2913
  106CHL1    H314032   1.251   1.080   6.210  0.4515  0.9181  0.6273
  106CHL1    O314033   1.185   0.987   6.375 -0.7318 -0.1020 -0.4020
  106CHL1   H3'14034   1.235   1.047   6.431 -1.8526 -0.7202  1.3466
  106CHL1    C414035   1.120   0.899   6.170  0.2715 -0.0849  0.2439
  106CHL1   H4A14036   1.094   0.809   6.230 -0.3401 -1.3734 -1.8498
  106CHL1   H4B14037   1.035   0.971   6.166 -1.4484 -2.0279  0.4542
  106CHL1    C514038   1.156   0.861   6.028  0.0104 -0.8594 -0.3117
  106CHL1    C614039   1.072   0.890   5.923  0.1245  0.4156  0.0315
  106CHL1    H614040   0.979   0.943   5.947 -0.7330 -1.8607  2.2841
  106CHL1    C714041   1.099   0.853   5.777  0.8367 -0.2219  0.4814
  106CHL1   H7A14042   1.005   0.813   5.734  0.6119  0.8185 -0.0144
  106CHL1   H7B14043   1.108   0.944   5.715  0.3862  0.2666  1.1206
  106CHL1    C814044   1.226   0.762   5.759  1.0080  0.3070  0.6402
  106CHL1    H814045   1.201   0.656   5.780  4.0911 -0.8591 -0.8878
  106CHL1   C1414046   1.271   0.763   5.619 -0.1929  0.1899 -0.2267
  106CHL1   H1414047   1.289   0.872   5.607 -1.2724  0.5311  1.0668
  106CHL1   C1514048   1.166   0.742   5.503  0.1824 -0.1903 -0.3359
  106CHL1  H15A14049   1.126   0.640   5.520 -0.5267  0.0718 -0.4191
  106CHL1  H15B14050   1.088   0.820   5.496  0.5576  0.2169 -0.0492
  106CHL1   C1614051   1.250   0.727   5.381  0.0936 -0.3964 -0.1808
  106CHL1  H16A14052   1.222   0.632   5.330 -1.8008 -0.5313  1.0134
  106CHL1  H16B14053   1.228   0.803   5.304 -1.8577 -0.0874  0.6286
  106CHL1   C1714054   1.401   0.731   5.426  0.5876  0.5299 -0.0103
  106CHL1   H1714055   1.445   0.832   5.426  0.6134  0.5184 -0.2468
  106CHL1   C1314056   1.395   0.687   5.578 -0.2420  0.3136  0.2389
  106CHL1   C1814057   1.383   0.530   5.597  0.1941 -0.0203 -0.3703
  106CHL1  H18A14058   1.370   0.499   5.703  0.1961  2.4143  0.4096
  106CHL1  H18B14059   1.303   0.492   5.531  0.4719  0.7257 -1.1519
  106CHL1  H18C14060   1.480   0.491   5.560  0.5354 -0.6952  1.1558
  106CHL1   C1214061   1.510   0.742   5.669 -0.0595  1.0317 -0.6396
  106CHL1  H12A14062   1.605   0.684   5.662  0.3563  1.5577  0.3916
  106CHL1  H12B14063   1.531   0.846   5.634  0.7504  1.1208  0.0833
  106CHL1   C1114064   1.468   0.738   5.815  0.1939 -0.1602  0.0773
  106CHL1  H11A14065   1.481   0.635   5.854  0.0083  0.0709  0.7792
  106CHL1  H11B14066   1.544   0.801   5.866  1.5961 -0.4450 -1.5783
  106CHL1    C914067   1.337   0.804   5.856  0.2549 -0.3090  0.6375
  106CHL1    H914068   1.348   0.912   5.833  0.3472 -0.5476 -0.5023
  106CHL1   C1014069   1.296   0.800   6.013 -0.7531 -0.6837  0.0451
  106CHL1   C1914070   1.290   0.652   6.053  0.2631  0.4963  0.8878
  106CHL1  H19A14071   1.247   0.582   5.977  1.3875 -0.3617  1.0184
  106CHL1  H19B14072   1.395   0.616   6.063  1.0948  2.4220 -0.2466
  106CHL1  H19C14073   1.235   0.621   6.144 -1.5699  0.4517 -0.1921
  106CHL1    C114074   1.405   0.870   6.099 -0.2789 -0.5203  0.4198
  106CHL1   H1A14075   1.500   0.814   6.083 -2.1599 -3.4219 -1.3979
  106CHL1   H1B14076   1.423   0.970   6.054  1.0448 -0.7671  0.3590
  106CHL1    C214077   1.366   0.895   6.245  0.2397 -0.1600  0.2214
  106CHL1   H2A14078   1.440   0.944   6.311 -0.6683  2.5421 -0.6201
  106CHL1   H2B14079   1.341   0.793   6.281 -1.5877  0.6291  1.2730
  106CHL1   C2014080   1.483   0.646   5.334 -0.0039  0.0736 -0.3510
  106CHL1   H2014081   1.458   0.539   5.350 -0.5155  0.1544 -0.6062
  106CHL1   C2114082   1.639   0.654   5.359 -0.3832 -0.4189 -0.0697
  106CHL1  H21A14083   1.684   0.566   5.308  0.6657 -0.1944  0.4436
  106CHL1  H21B14084   1.660   0.642   5.467 -0.2003 -2.1671 -0.2666
  106CHL1  H21C14085   1.679   0.751   5.323 -1.1990 -0.0870 -0.1014
  106CHL1   C2214086   1.466   0.686   5.189  0.1277  0.2747  0.2072
  106CHL1  H22A14087   1.549   0.636   5.134 -0.5790 -0.7063  0.0113
  106CHL1  H22B14088   1.364   0.669   5.150 -0.7895  0.8737  2.2153
  106CHL1   C2314089   1.490   0.839   5.169  0.6459 -0.5157  0.3124
  106CHL1  H23A14090   1.392   0.891   5.178  0.0749 -1.3647 -0.8134
  106CHL1  H23B14091   1.561   0.889   5.240 -1.1654  0.8101  1.2663
  106CHL1   C2414092   1.552   0.880   5.033 -0.3391  0.5244  0.3240
  106CHL1  H24A14093   1.660   0.858   5.042 -0.0472  1.9357  0.5663
  106CHL1  H24B14094   1.497   0.824   4.955 -0.6174 -0.8795  1.4813
  106CHL1   C2514095   1.547   1.027   4.988  0.6302  0.0406 -0.3038
  106CHL1   H2514096   1.606   1.048   4.896 -0.5874 -0.6822 -1.2714
  106CHL1   C2614097   1.399   1.059   4.959 -1.0371 -0.2351 -0.0389
  106CHL1  H26A14098   1.354   1.002   4.875 -3.1577  1.9001 -0.4572
  106CHL1  H26B14099   1.346   1.031   5.052 -1.2642  0.2290 -0.0249
  106CHL1  H26C14100   1.394   1.165   4.924  0.8141  0.4855  1.7111
  106CHL1   C2714101   1.595   1.116   5.101  0.3833 -1.0237 -0.3762
  106CHL1  H27A14102   1.704   1.115   5.119 -0.1401  0.9265  4.3181
  106CHL1  H27B14103   1.578   1.219   5.062  0.0541 -1.3925 -1.2402
  106CHL1  H27C14104   1.538   1.099   5.195  1.1099 -0.2297  0.2201
  107CHL1    C314105   4.299   5.450   6.494  0.2052 -0.5394  0.2762
  107CHL1    H314106   4.278   5.558   6.506  3.0256  0.3605 -1.9911
  107CHL1    O314107   4.370   5.409   6.609  0.6893  0.4927  0.2145
  107CHL1   H3'14108   4.325   5.448   6.684  1.2100 -1.9321  1.9342
  107CHL1    C414109   4.165   5.371   6.487  0.2302  0.2921 -0.1761
  107CHL1   H4A14110   4.176   5.261   6.494 -1.9868 -0.0069 -0.6152
  107CHL1   H4B14111   4.107   5.411   6.573  1.3192 -0.7870  1.0917
  107CHL1    C514112   4.089   5.402   6.358 -0.6642  0.0275 -0.3295
  107CHL1    C614113   3.960   5.438   6.359 -0.5898 -0.2619 -0.3849
  107CHL1    H614114   3.908   5.444   6.456  2.2431 -0.6088  1.2925
  107CHL1    C714115   3.879   5.473   6.235 -0.5234  0.8130 -0.4377
  107CHL1   H7A14116   3.776   5.433   6.251 -0.6908  0.8523 -1.3584
  107CHL1   H7B14117   3.873   5.584   6.232 -2.7496  0.7251 -1.6767
  107CHL1    C814118   3.935   5.411   6.113 -0.0138 -0.1516 -0.0325
  107CHL1    H814119   3.913   5.302   6.111 -2.6868  0.2850  0.9161
  107CHL1   C1414120   3.874   5.470   5.992 -0.0643 -0.4197 -0.3240
  107CHL1   H1414121   3.897   5.579   5.993  0.4657 -0.5277 -0.1628
  107CHL1   C1514122   3.715   5.463   5.971 -0.9269  0.7791 -0.0924
  107CHL1  H15A14123   3.693   5.358   6.000  0.2177  0.6408  0.3438
  107CHL1  H15B14124   3.664   5.523   6.049  0.5079 -0.2305  1.7403
  107CHL1   C1614125   3.695   5.496   5.824 -0.6223  0.8183 -0.1552
  107CHL1  H16A14126   3.618   5.434   5.772 -0.8247  1.2502 -0.3838
  107CHL1  H16B14127   3.657   5.601   5.825  0.6395  1.3155 -1.1338
  107CHL1   C1714128   3.839   5.501   5.759  0.2737  0.5697 -0.2708
  107CHL1   H1714129   3.879   5.603   5.780  3.0676 -0.2471 -1.0639
  107CHL1   C1314130   3.930   5.416   5.858  0.2255  0.2923  0.5126
  107CHL1   C1814131   3.908   5.262   5.842  0.5505 -0.4575  0.0142
  107CHL1  H18A14132   3.937   5.208   5.935  1.2550  0.5897  0.4256
  107CHL1  H18B14133   3.807   5.237   5.803  0.4519  0.1980 -0.1703
  107CHL1  H18C14134   3.985   5.230   5.768 -0.1397 -0.6089 -0.6522
  107CHL1   C1214135   4.080   5.444   5.852 -0.0914  0.2677  0.7052
  107CHL1  H12A14136   4.132   5.409   5.761 -1.7664  1.1331 -0.6654
  107CHL1  H12B14137   4.086   5.555   5.859  4.6329  0.3383 -0.9301
  107CHL1   C1114138   4.149   5.397   5.977 -0.3146 -0.6816  0.8614
  107CHL1  H11A14139   4.162   5.288   5.960  0.7681 -0.1604 -2.5396
  107CHL1  H11B14140   4.257   5.423   5.976  0.0851 -1.9919  3.3963
  107CHL1    C914141   4.090   5.440   6.107 -0.6980 -0.1467 -0.8747
  107CHL1    H914142   4.100   5.550   6.111  1.2626 -0.3084 -0.3490
  107CHL1   C1014143   4.174   5.388   6.237 -0.0310 -0.5569  0.5126
  107CHL1   C1914144   4.193   5.238   6.217  0.4829  0.2790 -0.5029
  107CHL1  H19A14145   4.260   5.209   6.133 -0.3018  1.1787 -1.4835
  107CHL1  H19B14146   4.227   5.189   6.310  1.0400  3.0044  0.8415
  107CHL1  H19C14147   4.094   5.194   6.191 -0.2830  1.7511 -0.2018
  107CHL1    C114148   4.307   5.467   6.243 -0.4617 -0.1288 -0.4651
  107CHL1   H1A14149   4.364   5.439   6.152  0.9388  0.7083  0.1246
  107CHL1   H1B14150   4.281   5.574   6.254  0.5884  0.0337  0.5922
  107CHL1    C214151   4.395   5.427   6.370  0.3932 -0.7702 -0.1733
  107CHL1   H2A14152   4.475   5.503   6.373 -0.8040  0.5760 -1.2412
  107CHL1   H2B14153   4.428   5.322   6.357  3.3239  0.1295 -0.5850
  107CHL1   C2014154   3.858   5.463   5.612  0.5234  0.7782  0.2330
  107CHL1   H2014155   3.955   5.413   5.596  0.0336 -0.6500  1.4452
  107CHL1   C2114156   3.860   5.592   5.531  0.2598  0.4901 -0.5939
  107CHL1  H21A14157   3.756   5.625   5.510  0.3368 -0.6049 -2.9786
  107CHL1  H21B14158   3.897   5.569   5.429  2.8490 -0.6901  0.5168
  107CHL1  H21C14159   3.927   5.669   5.573  0.9802  0.1265 -1.0513
  107CHL1   C2214160   3.742   5.378   5.548 -0.1354  0.0038 -0.0652
  107CHL1  H22A14161   3.730   5.286   5.609  0.4404  0.7998  1.2947
  107CHL1  H22B14162   3.648   5.438   5.549 -0.8746 -1.0927 -0.5939
  107CHL1   C2314163   3.780   5.333   5.404 -0.0709 -0.7860 -0.2702
  107CHL1  H23A14164   3.692   5.284   5.356 -0.8743  0.8027 -0.4620
  107CHL1  H23B14165   3.794   5.420   5.338 -5.2835  0.2829 -0.3692
  107CHL1   C2414166   3.895   5.229   5.419  0.3202 -0.1586  0.8498
  107CHL1  H24A14167   3.983   5.274   5.471  0.6163 -0.3890  0.5529
  107CHL1  H24B14168   3.855   5.141   5.473 -1.4799 -1.4081 -2.3111
  107CHL1   C2514169   3.941   5.190   5.278 -0.1797  0.3199 -0.1216
  107CHL1   H2514170   3.853   5.193   5.211 -0.8195  0.9004  0.7198
  107CHL1   C2614171   4.049   5.288   5.228 -0.4381 -0.5989 -0.0163
  107CHL1  H26A14172   4.058   5.263   5.120 -3.3982 -1.4349 -0.1520
  107CHL1  H26B14173   4.026   5.397   5.233  0.7567 -0.2723 -1.0190
  107CHL1  H26C14174   4.149   5.281   5.276 -1.2995 -1.1319  1.7587
  107CHL1   C2714175   3.984   5.041   5.268  0.3969 -0.3664  0.8254
  107CHL1  H27A14176   3.911   4.980   5.325 -0.1614  0.5745  1.1390
  107CHL1  H27B14177   3.987   5.009   5.162  0.4871  3.9475 -0.6467
  107CHL1  H27C14178   4.084   5.021   5.311  0.0640 -1.7495  1.0030
  108CHL1    C314179   5.757   2.167   6.492  0.4648  0.0633  0.0632
  108CHL1    H314180   5.865   2.154   6.470  0.7980  0.1447  1.5495
  108CHL1    O314181   5.731   2.099   6.617 -0.4598 -0.0623 -0.2565
  108CHL1   H3'14182   5.683   2.159   6.674  1.8564  1.1423  0.5269
  108CHL1    C414183   5.717   2.306   6.500 -0.2990  0.0625 -0.2756
  108CHL1   H4A14184   5.608   2.304   6.520 -0.4979 -2.7469 -1.0750
  108CHL1   H4B14185   5.768   2.352   6.587 -1.5138  0.2460  0.3491
  108CHL1    C514186   5.748   2.382   6.371  0.1574 -0.0550  0.0939
  108CHL1    C614187   5.832   2.484   6.362 -0.1003 -0.2925 -0.2205
  108CHL1    H614188   5.889   2.515   6.450  0.6841  0.7730 -1.0659
  108CHL1    C714189   5.855   2.556   6.230  0.4356 -0.0448 -1.1739
  108CHL1   H7A14190   5.863   2.665   6.250  1.2434 -0.3872  0.5124
  108CHL1   H7B14191   5.954   2.522   6.194  0.2485 -1.5796 -0.3077
  108CHL1    C814192   5.747   2.526   6.121  0.3075 -0.2373  0.6596
  108CHL1    H814193   5.655   2.577   6.156  1.0992  1.8538 -0.1620
  108CHL1   C1414194   5.799   2.575   5.985 -0.9084 -0.2483  0.2177
  108CHL1   H1414195   5.896   2.526   5.960 -1.0123 -0.7655  0.8100
  108CHL1   C1514196   5.843   2.719   5.971  0.3133 -0.3235  0.0088
  108CHL1  H15A14197   5.764   2.785   6.013 -1.8198 -2.4809 -0.4552
  108CHL1  H15B14198   5.944   2.747   6.008 -0.4648  2.6196  0.2001
  108CHL1   C1614199   5.842   2.743   5.821  0.2724  0.0406 -0.0708
  108CHL1  H16A14200   5.789   2.836   5.794  1.5652 -0.0429 -3.2946
  108CHL1  H16B14201   5.947   2.768   5.794  0.4065  0.1079  0.4997
  108CHL1   C1714202   5.782   2.620   5.747 -0.0485  0.0925 -1.0057
  108CHL1   H1714203   5.868   2.554   5.726  0.6236 -0.0302  1.7406
  108CHL1   C1314204   5.708   2.543   5.864 -0.2241 -0.5835 -0.2993
  108CHL1   C1814205   5.566   2.608   5.887 -0.2054  0.7510 -0.0629
  108CHL1  H18A14206   5.571   2.719   5.897 -2.2601  0.8496  0.2474
  108CHL1  H18B14207   5.499   2.580   5.803  0.4462  0.5667 -0.5294
  108CHL1  H18C14208   5.530   2.582   5.989 -0.3700  0.4581 -0.1965
  108CHL1   C1214209   5.698   2.394   5.854  0.1935  0.4420  0.7287
  108CHL1  H12A14210   5.627   2.369   5.772  0.0177  2.6324  0.1388
  108CHL1  H12B14211   5.794   2.340   5.838 -0.2406 -0.7732  2.0421
  108CHL1   C1114212   5.642   2.329   5.984  0.1852  0.0184  0.2208
  108CHL1  H11A14213   5.537   2.363   5.990  0.6127  1.1384  1.9972
  108CHL1  H11B14214   5.655   2.220   5.971  1.4785  0.4378 -3.3345
  108CHL1    C914215   5.723   2.378   6.112 -0.0654  0.1990 -0.5518
  108CHL1    H914216   5.822   2.328   6.102 -1.3221 -2.1564 -2.0062
  108CHL1   C1014217   5.664   2.321   6.247  0.3689 -0.4540  0.2283
  108CHL1   C1914218   5.514   2.346   6.269  1.6719 -0.0468 -0.3525
  108CHL1  H19A14219   5.477   2.296   6.361 -0.4651  0.3091 -0.9603
  108CHL1  H19B14220   5.501   2.456   6.269  0.0334 -0.2206 -0.7580
  108CHL1  H19C14221   5.447   2.305   6.190  2.2813  1.8945 -1.9880
  108CHL1    C114222   5.689   2.165   6.249  0.0632  0.0700 -0.3850
  108CHL1   H1A14223   5.630   2.119   6.166 -1.3083  2.5770 -0.9200
  108CHL1   H1B14224   5.798   2.159   6.228  0.1566 -1.4097  0.3761
  108CHL1    C214225   5.665   2.097   6.382 -1.2385 -0.2882 -0.2581
  108CHL1   H2A14226   5.700   1.991   6.379  1.8416  0.6246 -0.0270
  108CHL1   H2B14227   5.560   2.093   6.419 -0.3687 -1.1921  2.3999
  108CHL1   C2014228   5.708   2.657   5.622  0.9428  0.2128  0.1657
  108CHL1   H2014229   5.606   2.693   5.648  0.3909 -0.5531 -0.8367
  108CHL1   C2114230   5.701   2.523   5.544  0.1106 -0.1754 -0.0791
  108CHL1  H21A14231   5.801   2.473   5.546  1.0426  1.1825 -3.9484
  108CHL1  H21B14232   5.684   2.539   5.435 -0.0112 -1.5931 -0.2886
  108CHL1  H21C14233   5.618   2.465   5.590 -0.9882  0.5222 -1.1193
  108CHL1   C2214234   5.779   2.763   5.530  0.4638 -0.1036 -0.7450
  108CHL1  H22A14235   5.722   2.764   5.435  0.3498  0.0220 -0.6772
  108CHL1  H22B14236   5.786   2.864   5.576 -0.9120 -0.6988  0.8878
  108CHL1   C2314237   5.927   2.735   5.492  0.2800 -0.2835  0.4705
  108CHL1  H23A14238   5.984   2.707   5.583  1.1892 -2.6320 -0.7208
  108CHL1  H23B14239   5.941   2.653   5.418 -0.3575  0.1036 -0.0890
  108CHL1   C2414240   6.021   2.855   5.463 -0.5650  0.3071 -0.9329
  108CHL1  H24A14241   6.039   2.912   5.557 -0.2125 -0.3595 -0.5906
  108CHL1  H24B14242   6.121   2.815   5.438 -0.6068 -0.6214  0.2849
  108CHL1   C2514243   5.965   2.955   5.361 -0.0015 -0.0575  0.1955
  108CHL1   H2514244   5.863   2.980   5.397 -0.2167 -0.3903 -0.1766
  108CHL1   C2614245   6.051   3.083   5.362 -0.6706  0.6391 -0.5216
  108CHL1  H26A14246   6.063   3.109   5.470 -2.3657  0.2260 -0.1998
  108CHL1  H26B14247   6.144   3.067   5.304 -0.3274 -0.6176  0.3223
  108CHL1  H26C14248   5.994   3.167   5.320 -0.8057  0.8454  0.0629
  108CHL1   C2714249   5.958   2.905   5.217 -0.6060  0.2827  0.4583
  108CHL1  H27A14250   5.905   2.981   5.156 -1.4331 -0.6207  0.0178
  108CHL1  H27B14251   6.062   2.894   5.179 -1.0022  1.9072 -1.2521
  108CHL1  H27C14252   5.914   2.803   5.212  3.4992 -1.6581 -0.4824
  109CHL1    C314253   3.062   4.259   6.489 -0.6341  0.8246 -0.5453
  109CHL1    H314254   3.162   4.238   6.447 -0.0210  0.3195  1.0739
  109CHL1    O314255   3.055   4.183   6.609 -0.1831  0.1600 -0.4481
  109CHL1   H3'14256   3.119   4.222   6.668 -2.3321 -0.8918  2.8310
  109CHL1    C414257   3.046   4.402   6.538  0.5915 -0.4776 -0.2883
  109CHL1   H4A14258   2.956   4.421   6.600 -0.0445  1.9673 -1.8078
  109CHL1   H4B14259   3.130   4.426   6.607  1.2090 -1.9243 -0.4977
  109CHL1    C514260   3.033   4.499   6.421  0.1450 -0.3936 -0.6003
  109CHL1    C614261   3.102   4.619   6.419  0.0438  0.6474 -0.2118
  109CHL1    H614262   3.188   4.640   6.486  1.3976  0.3812 -1.7971
  109CHL1    C714263   3.075   4.727   6.321 -0.2638  0.5712 -0.3203
  109CHL1   H7A14264   3.071   4.822   6.379  1.5594 -0.5116  1.7560
  109CHL1   H7B14265   3.162   4.738   6.254 -0.7888 -2.2050 -1.6066
  109CHL1    C814266   2.942   4.708   6.244  0.0383 -0.6614 -1.0363
  109CHL1    H814267   2.869   4.736   6.322  0.9145 -0.5717 -0.2279
  109CHL1   C1414268   2.929   4.802   6.131  0.5925 -0.3922 -0.5941
  109CHL1   H1414269   3.001   4.762   6.056  0.5377  0.4958 -1.1337
  109CHL1   C1514270   2.972   4.944   6.137  0.0698 -0.3568  0.4636
  109CHL1  H15A14271   2.916   5.001   6.215 -1.1979 -1.6737  0.5495
  109CHL1  H15B14272   3.082   4.947   6.152  0.2646  3.5933 -0.7149
  109CHL1   C1614273   2.920   5.001   6.004  1.0601  0.1460  0.0791
  109CHL1  H16A14274   2.853   5.085   6.033  1.5599  0.3437  0.6778
  109CHL1  H16B14275   2.999   5.030   5.931  0.9185  0.5425  0.0812
  109CHL1   C1714276   2.830   4.894   5.936 -0.1630 -0.6419 -0.2392
  109CHL1   H1714277   2.894   4.841   5.863  0.9512 -0.7631  0.8027
  109CHL1   C1314278   2.800   4.797   6.047 -0.3904  0.0621  0.1286
  109CHL1   C1814279   2.679   4.845   6.130  0.2296 -0.0986 -0.3530
  109CHL1  H18A14280   2.706   4.949   6.159  1.0421 -0.2259 -0.6110
  109CHL1  H18B14281   2.578   4.839   6.085 -0.6020  0.2260  1.4242
  109CHL1  H18C14282   2.672   4.784   6.222 -0.9646  0.2054 -0.2262
  109CHL1   C1214283   2.793   4.647   5.991  0.0075  0.4712 -0.2676
  109CHL1  H12A14284   2.703   4.617   5.933 -0.5550 -0.6190  1.1129
  109CHL1  H12B14285   2.882   4.627   5.928 -0.1014 -0.6603 -0.0723
  109CHL1   C1114286   2.789   4.549   6.114  0.5182 -0.4783 -0.4424
  109CHL1  H11A14287   2.694   4.579   6.164  1.5375 -0.3607  1.5149
  109CHL1  H11B14288   2.772   4.449   6.068 -0.4777  0.9915 -3.5923
  109CHL1    C914289   2.914   4.565   6.208  0.1682  0.4341  0.6066
  109CHL1    H914290   3.002   4.538   6.146  1.5392  2.8435  1.3921
  109CHL1   C1014291   2.917   4.464   6.325 -1.2852  0.9223 -0.1449
  109CHL1   C1914292   2.779   4.463   6.396  0.5859  0.0109  0.0326
  109CHL1  H19A14293   2.757   4.568   6.423  0.7536 -0.1568  0.8401
  109CHL1  H19B14294   2.700   4.420   6.331  1.9991 -2.9006  0.0965
  109CHL1  H19C14295   2.777   4.392   6.481 -0.1200  0.1272  0.1149
  109CHL1    C114296   2.940   4.319   6.273 -0.3050 -0.5127  0.1497
  109CHL1   H1A14297   2.860   4.292   6.200  1.2629  2.3278 -2.8234
  109CHL1   H1B14298   3.028   4.309   6.207 -2.1648 -3.3404 -2.1920
  109CHL1    C214299   2.952   4.216   6.386 -0.2412 -0.6346  0.0748
  109CHL1   H2A14300   2.988   4.117   6.349  0.7620  0.4184 -1.9024
  109CHL1   H2B14301   2.862   4.202   6.449 -0.1527  0.8066  0.5616
  109CHL1   C2014302   2.709   4.951   5.866 -0.4367  0.0708  0.2956
  109CHL1   H2014303   2.631   4.989   5.936  1.0444  2.1902  0.9007
  109CHL1   C2114304   2.648   4.844   5.774 -0.1224  0.3241  0.2622
  109CHL1  H21A14305   2.572   4.888   5.706  0.9980  1.4091 -0.3488
  109CHL1  H21B14306   2.588   4.774   5.836  0.5567  0.9283  1.6638
  109CHL1  H21C14307   2.728   4.790   5.720 -0.5414  0.6672 -0.7198
  109CHL1   C2214308   2.744   5.070   5.772  0.0583 -0.6409 -0.4565
  109CHL1  H22A14309   2.803   5.151   5.821 -2.4871 -0.1717  2.1155
  109CHL1  H22B14310   2.812   5.039   5.690 -1.8633 -0.4201 -2.2081
  109CHL1   C2314311   2.622   5.151   5.709 -0.0378 -0.1148 -0.5842
  109CHL1  H23A14312   2.567   5.080   5.644  2.1571 -0.6885 -1.9355
  109CHL1  H23B14313   2.557   5.191   5.790 -0.7447 -0.1572 -1.1225
  109CHL1   C2414314   2.675   5.270   5.619 -0.0466  0.7000 -0.2062
  109CHL1  H24A14315   2.728   5.345   5.682  2.0932 -0.0564 -1.0138
  109CHL1  H24B14316   2.742   5.219   5.547  0.1347 -2.6139  2.1012
  109CHL1   C2514317   2.568   5.345   5.551 -0.1856  0.3999  1.1169
  109CHL1   H2514318   2.511   5.271   5.492  1.1015 -0.3746  0.8172
  109CHL1   C2614319   2.469   5.420   5.638  0.0893 -0.1943 -0.0496
  109CHL1  H26A14320   2.529   5.492   5.698  2.8953 -1.6403 -0.9457
  109CHL1  H26B14321   2.389   5.467   5.578 -2.2971 -1.5169  1.9153
  109CHL1  H26C14322   2.420   5.349   5.708 -0.7143 -0.6243 -1.0237
  109CHL1   C2714323   2.629   5.451   5.457  0.5939  0.5084 -0.0882
  109CHL1  H27A14324   2.551   5.509   5.405 -1.1569  0.5119  2.3557
  109CHL1  H27B14325   2.698   5.524   5.503  2.4485  1.6026 -4.1953
  109CHL1  H27C14326   2.683   5.403   5.373 -0.5845  0.1503 -0.6675
  110CHL1    C314327   1.054   4.506   6.432 -0.9831 -0.3581  0.0899
  110CHL1    H314328   0.949   4.473   6.416 -1.2601 -0.5212  2.0257
  110CHL1    O314329   1.100   4.450   6.555  0.6980 -0.0606 -0.4049
  110CHL1   H3'14330   1.159   4.381   6.524  0.6267 -1.2130  1.8120
  110CHL1    C414331   1.149   4.470   6.316  0.1345 -0.0334 -1.0176
  110CHL1   H4A14332   1.248   4.494   6.361 -1.5936  1.4338  2.4006
  110CHL1   H4B14333   1.152   4.360   6.301  2.2029 -0.0463 -0.9064
  110CHL1    C514334   1.123   4.555   6.190  0.4862  0.4207 -0.1937
  110CHL1    C614335   1.091   4.501   6.072  0.2720  0.5635  0.3908
  110CHL1    H614336   1.101   4.393   6.060  2.0888  0.7826 -0.4854
  110CHL1    C714337   1.059   4.582   5.948 -0.7818  0.0464 -0.4581
  110CHL1   H7A14338   1.086   4.530   5.854  1.4055 -0.7531  0.5418
  110CHL1   H7B14339   0.950   4.596   5.935 -0.6167  0.4169 -1.6016
  110CHL1    C814340   1.130   4.717   5.958  0.1134 -0.9618 -0.6501
  110CHL1    H814341   1.241   4.712   5.958  0.2371  0.8129 -2.5242
  110CHL1   C1414342   1.076   4.796   5.843 -0.3763 -0.1633  0.3888
  110CHL1   H1414343   0.969   4.813   5.868 -1.5331 -3.1056 -1.9217
  110CHL1   C1514344   1.092   4.737   5.699  0.3205  0.7078  0.2291
  110CHL1  H15A14345   1.194   4.694   5.691 -0.2580 -1.4264  2.9772
  110CHL1  H15B14346   1.019   4.656   5.677  0.2388  1.0719 -0.9134
  110CHL1   C1614347   1.074   4.853   5.607 -0.7753 -0.3448  0.2731
  110CHL1  H16A14348   1.160   4.851   5.536 -1.2735 -2.0278 -0.3265
  110CHL1  H16B14349   0.989   4.837   5.537 -1.4290 -0.6194  1.1213
  110CHL1   C1714350   1.070   4.985   5.699 -0.0620  0.2304 -0.4454
  110CHL1   H1714351   0.968   4.999   5.739 -0.0297 -0.9653  0.1101
  110CHL1   C1314352   1.135   4.938   5.835 -0.9964 -0.7506  0.4242
  110CHL1   C1814353   1.288   4.935   5.817 -0.5716 -0.1315  0.2128
  110CHL1  H18A14354   1.324   5.034   5.782 -2.7941  0.2099 -1.2878
  110CHL1  H18B14355   1.343   4.904   5.909 -3.0387 -0.6523  1.6054
  110CHL1  H18C14356   1.325   4.863   5.742  0.6244  0.2496  0.4146
  110CHL1   C1214357   1.091   5.006   5.963  0.8624 -0.3772 -0.2698
  110CHL1  H12A14358   1.137   5.107   5.972  2.1539 -0.7670 -1.9961
  110CHL1  H12B14359   0.981   5.023   5.966  1.0466  0.9683 -0.7649
  110CHL1   C1114360   1.122   4.923   6.093 -0.0560 -0.8184 -0.0767
  110CHL1  H11A14361   1.232   4.928   6.076 -0.4763 -0.6123 -3.4018
  110CHL1  H11B14362   1.071   4.964   6.183 -3.9695 -3.3372 -0.8995
  110CHL1    C914363   1.085   4.774   6.086  0.7556 -0.1692  0.0591
  110CHL1    H914364   0.974   4.764   6.093  0.6273 -0.1446 -1.5098
  110CHL1   C1014365   1.127   4.705   6.216 -0.5800 -0.5254  0.1144
  110CHL1   C1914366   1.267   4.763   6.258  0.0802  0.7715 -0.0167
  110CHL1  H19A14367   1.311   4.710   6.345 -0.5490 -2.0605 -1.3191
  110CHL1  H19B14368   1.339   4.757   6.173  1.5983  0.9503  1.1980
  110CHL1  H19C14369   1.258   4.868   6.295 -0.9545  1.1494 -1.2602
  110CHL1    C114370   1.016   4.724   6.324  0.3089 -0.0561  0.1228
  110CHL1   H1A14371   0.998   4.832   6.341  2.1385  0.3217 -0.1981
  110CHL1   H1B14372   0.920   4.679   6.289 -0.8567  1.3389  1.3648
  110CHL1    C214373   1.037   4.652   6.450  0.3224 -0.3381  0.2757
  110CHL1   H2A14374   0.956   4.670   6.524  1.7838  1.8378  1.4906
  110CHL1   H2B14375   1.125   4.696   6.502  0.9736 -1.4780  0.1546
  110CHL1   C2014376   1.106   5.119   5.637  0.1621  0.1707  0.3954
  110CHL1   H2014377   1.199   5.100   5.580  1.0994 -1.4717  2.3645
  110CHL1   C2114378   1.132   5.231   5.743  0.6389  0.1518  0.2561
  110CHL1  H21A14379   1.160   5.328   5.697  0.4876 -0.2527 -0.7136
  110CHL1  H21B14380   1.214   5.199   5.812  0.1686  0.0717  0.7914
  110CHL1  H21C14381   1.043   5.238   5.810  0.2483 -0.4263 -0.1925
  110CHL1   C2214382   1.003   5.158   5.534 -0.0376 -0.0592 -0.2336
  110CHL1  H22A14383   0.991   5.078   5.458 -0.1097  1.8311 -2.3007
  110CHL1  H22B14384   0.904   5.166   5.584 -0.1752 -0.1294 -0.4930
  110CHL1   C2314385   1.022   5.290   5.453  0.4521  0.1852 -0.4626
  110CHL1  H23A14386   1.036   5.376   5.521 -1.5714  2.2311 -2.4582
  110CHL1  H23B14387   1.104   5.276   5.379  0.7794 -1.2268  0.1326
  110CHL1   C2414388   0.896   5.327   5.372 -0.2416  0.4009  0.5253
  110CHL1  H24A14389   0.864   5.246   5.304  2.4194  0.4091 -0.8574
  110CHL1  H24B14390   0.827   5.347   5.457  0.1066  0.6287  0.7603
  110CHL1   C2514391   0.907   5.458   5.287 -0.0977  0.6019 -0.1282
  110CHL1   H2514392   0.916   5.548   5.352  1.5615  1.7997 -1.8990
  110CHL1   C2614393   1.036   5.458   5.202 -0.1856 -0.0062  0.0245
  110CHL1  H26A14394   1.125   5.433   5.265 -1.0022  0.2024  1.2981
  110CHL1  H26B14395   1.024   5.403   5.107 -1.1430 -0.0852  0.1838
  110CHL1  H26C14396   1.047   5.566   5.176 -3.5564  0.3550 -0.3143
  110CHL1   C2714397   0.783   5.473   5.199 -0.2394  0.1398  0.5844
  110CHL1  H27A14398   0.751   5.374   5.159 -0.4083  0.5733 -0.3593
  110CHL1  H27B14399   0.706   5.504   5.273  0.2893  2.0417  0.3888
  110CHL1  H27C14400   0.805   5.553   5.125  0.7563 -0.1571  0.5497
  111CHL1    C314401   1.739   7.470   6.544 -0.3234 -0.3372  0.3685
  111CHL1    H314402   1.684   7.374   6.538  1.3329 -1.2546 -1.9637
  111CHL1    O314403   1.741   7.529   6.673 -0.2225  1.2555 -0.4225
  111CHL1   H3'14404   1.832   7.555   6.687  0.5354 -1.0640 -0.5436
  111CHL1    C414405   1.885   7.442   6.499  0.0308  0.0860 -0.7186
  111CHL1   H4A14406   1.940   7.539   6.494  0.6665 -0.2454 -0.3033
  111CHL1   H4B14407   1.947   7.378   6.566 -1.2986 -1.4953 -0.9690
  111CHL1    C514408   1.888   7.382   6.358 -0.2057  0.0205 -0.6938
  111CHL1    C614409   1.950   7.271   6.339  0.7001  0.3491  0.6208
  111CHL1    H614410   1.998   7.221   6.425  0.7045 -0.2003  0.3062
  111CHL1    C714411   1.960   7.208   6.200 -0.5253  0.5955 -0.8300
  111CHL1   H7A14412   2.060   7.162   6.181 -1.7808 -2.5444 -0.4388
  111CHL1   H7B14413   1.886   7.126   6.187 -1.2048  1.4164 -2.4887
  111CHL1    C814414   1.917   7.303   6.085  0.9756 -0.1057 -0.2388
  111CHL1    H814415   1.996   7.380   6.072 -0.4402  1.2873 -0.8847
  111CHL1   C1414416   1.901   7.223   5.968  0.1461 -0.0751 -0.3345
  111CHL1   H1414417   1.815   7.156   5.986  0.0374  0.2469  0.3578
  111CHL1   C1514418   2.014   7.137   5.918 -0.5601 -0.2807 -0.2448
  111CHL1  H15A14419   2.108   7.190   5.947  1.7304 -4.1716  0.1213
  111CHL1  H15B14420   2.024   7.037   5.966  2.0977 -0.7664 -1.5902
  111CHL1   C1614421   1.995   7.115   5.763 -0.0407 -0.3899 -0.9316
  111CHL1  H16A14422   2.077   7.142   5.693  0.2200  2.3088  0.2710
  111CHL1  H16B14423   1.986   7.006   5.745  2.4668 -0.9049  0.4947
  111CHL1   C1714424   1.864   7.193   5.737  0.2459 -0.0761  0.7203
  111CHL1   H1714425   1.786   7.123   5.775  0.0382 -0.3485 -0.1734
  111CHL1   C1314426   1.865   7.307   5.843 -0.0537 -0.2922  0.2658
  111CHL1   C1814427   1.969   7.415   5.804 -1.4141  0.4283  0.2154
  111CHL1  H18A14428   2.078   7.393   5.789 -1.2703  0.1856  1.5535
  111CHL1  H18B14429   1.933   7.469   5.713  0.2248  2.4800  0.7027
  111CHL1  H18C14430   1.986   7.485   5.888  1.1646 -2.1169  2.0026
  111CHL1   C1214431   1.727   7.366   5.873  0.3648 -0.5352  0.0520
  111CHL1  H12A14432   1.694   7.427   5.786  0.8121  0.4850  0.5723
  111CHL1  H12B14433   1.655   7.284   5.893 -0.8864  0.5044 -0.0596
  111CHL1   C1114434   1.732   7.454   5.999  0.2739  0.0811 -0.5118
  111CHL1  H11A14435   1.785   7.551   5.983  0.1648  0.3101  0.4266
  111CHL1  H11B14436   1.628   7.486   6.023 -0.3018 -0.7732 -1.7660
  111CHL1    C914437   1.791   7.374   6.120 -0.7968 -0.1327 -0.2064
  111CHL1    H914438   1.721   7.294   6.152 -0.3157 -0.1521  0.8585
  111CHL1   C1014439   1.815   7.463   6.247  0.3091  0.1455 -0.2573
  111CHL1   C1914440   1.902   7.582   6.221 -0.3051 -0.6053  0.2585
  111CHL1  H19A14441   2.006   7.553   6.195  0.3679  1.1858  0.8430
  111CHL1  H19B14442   1.868   7.642   6.134 -0.1430  0.6219  1.0170
  111CHL1  H19C14443   1.904   7.646   6.312  1.0125 -0.7316  0.3313
  111CHL1    C114444   1.679   7.507   6.305  0.7120  0.1567  1.1493
  111CHL1   H1A14445   1.636   7.583   6.236 -0.7477 -1.9036 -0.3311
  111CHL1   H1B14446   1.617   7.414   6.305  0.5362  0.2651  1.6863
  111CHL1    C214447   1.672   7.569   6.447  0.0530 -0.3654 -0.3552
  111CHL1   H2A14448   1.570   7.604   6.471  0.2632  0.9980 -1.2851
  111CHL1   H2B14449   1.731   7.663   6.458 -0.2688 -0.1831 -0.1755
  111CHL1   C2014450   1.827   7.222   5.594 -0.3118  0.0828 -0.1040
  111CHL1   H2014451   1.838   7.330   5.571  0.8782  0.1348  0.5987
  111CHL1   C2114452   1.674   7.194   5.576  0.0691 -0.8326 -0.7043
  111CHL1  H21A14453   1.665   7.083   5.575 -0.4748 -0.8032  0.2640
  111CHL1  H21B14454   1.637   7.239   5.482 -1.1769 -0.2901  0.0297
  111CHL1  H21C14455   1.609   7.233   5.657 -0.4719 -0.7878 -1.1529
  111CHL1   C2214456   1.913   7.144   5.493  0.9297 -0.5473  0.1366
  111CHL1  H22A14457   2.012   7.195   5.490  0.0821  1.1309 -0.9419
  111CHL1  H22B14458   1.919   7.038   5.527 -0.2206  0.3564  3.4903
  111CHL1   C2314459   1.851   7.132   5.351 -0.2461  0.3853  0.4576
  111CHL1  H23A14460   1.770   7.056   5.353  0.4652 -0.4570 -1.0698
  111CHL1  H23B14461   1.806   7.228   5.318  0.7742  0.0564 -2.1419
  111CHL1   C2414462   1.959   7.081   5.252  0.3733  0.0943 -0.2145
  111CHL1  H24A14463   2.035   7.161   5.237 -0.1750  1.0186  1.5154
  111CHL1  H24B14464   2.003   6.988   5.292 -1.2313 -1.1890 -1.3012
  111CHL1   C2514465   1.889   7.043   5.117  0.2240  0.0855  1.1925
  111CHL1   H2514466   1.803   6.974   5.134  0.5935 -0.5284  0.5960
  111CHL1   C2614467   1.833   7.165   5.036  0.2907 -0.1466  0.4678
  111CHL1  H26A14468   1.754   7.113   4.977  0.1721 -0.9045  1.2683
  111CHL1  H26B14469   1.788   7.239   5.106  1.1164  0.4722  0.3581
  111CHL1  H26C14470   1.902   7.224   4.972  0.5140 -0.4096  0.4679
  111CHL1   C2714471   1.996   6.970   5.024 -0.1571 -0.1611  0.1769
  111CHL1  H27A14472   1.955   6.978   4.921 -0.5401 -0.4426  0.3082
  111CHL1  H27B14473   2.094   7.019   5.044  1.4851 -3.0277 -0.2472
  111CHL1  H27C14474   2.015   6.864   5.050  0.2230  0.5260  2.9747
  112CHL1    C314475   4.051   0.932   6.572  0.1494 -0.4936 -0.1305
  112CHL1    H314476   3.942   0.910   6.577 -0.4071  0.5932 -3.9927
  112CHL1    O314477   4.096   0.966   6.703 -0.1310  0.0310  0.5221
  112CHL1   H3'14478   4.025   1.024   6.730 -0.7331 -0.4242 -0.0394
  112CHL1    C414479   4.114   0.805   6.513  0.1301 -0.8569  0.1250
  112CHL1   H4A14480   4.222   0.807   6.540 -0.6182  0.2789  3.5478
  112CHL1   H4B14481   4.074   0.723   6.577  0.4124 -0.3027  1.0417
  112CHL1    C514482   4.085   0.785   6.372  0.1348  0.4595  1.1524
  112CHL1    C614483   4.038   0.662   6.327 -0.1912 -0.0600  0.5862
  112CHL1    H614484   4.024   0.577   6.395  0.7424  0.4337  1.4343
  112CHL1    C714485   4.011   0.626   6.188  0.4270  0.1039 -0.9534
  112CHL1   H7A14486   4.058   0.526   6.176 -1.6151 -1.3982  2.3738
  112CHL1   H7B14487   3.901   0.620   6.175  0.4791 -0.7822 -1.0237
  112CHL1    C814488   4.062   0.723   6.091 -0.6150 -0.3306  0.6635
  112CHL1    H814489   4.171   0.710   6.081 -0.7557 -1.3729  0.4301
  112CHL1   C1414490   3.996   0.702   5.955  0.1645 -0.0911 -0.2478
  112CHL1   H1414491   3.887   0.720   5.972  0.4473  3.4814 -1.5912
  112CHL1   C1514492   4.000   0.558   5.905 -0.1581 -0.4473  0.1355
  112CHL1  H15A14493   4.102   0.514   5.913 -0.1543 -0.3427  0.6478
  112CHL1  H15B14494   3.933   0.479   5.946 -1.9900  1.5003  1.1155
  112CHL1   C1614495   3.956   0.577   5.758 -0.8215  0.6470 -0.1382
  112CHL1  H16A14496   4.035   0.543   5.688 -1.3135  1.3531 -1.0570
  112CHL1  H16B14497   3.864   0.516   5.746 -1.0035  0.3147  2.3024
  112CHL1   C1714498   3.943   0.726   5.730 -0.4436  0.1660  0.3305
  112CHL1   H1714499   3.837   0.743   5.761 -0.3260  0.6454  0.4660
  112CHL1   C1314500   4.027   0.797   5.838  0.0496  0.4951 -0.7274
  112CHL1   C1814501   4.179   0.799   5.809  0.3252  0.0516  0.4854
  112CHL1  H18A14502   4.207   0.887   5.747 -1.0750  1.9011  2.3376
  112CHL1  H18B14503   4.237   0.815   5.902  1.6193  0.3425 -0.3506
  112CHL1  H18C14504   4.205   0.699   5.766 -0.9599  0.8576 -2.3983
  112CHL1   C1214505   3.988   0.934   5.898 -0.3548  0.1429 -0.4227
  112CHL1  H12A14506   4.018   1.010   5.822  3.3871 -1.1372 -0.4355
  112CHL1  H12B14507   3.879   0.928   5.921  0.3078 -1.4462  2.7018
  112CHL1   C1114508   4.063   0.969   6.023 -0.1111 -0.5074 -0.0855
  112CHL1  H11A14509   4.168   0.997   5.998 -0.4013  1.8913  1.1653
  112CHL1  H11B14510   4.030   1.069   6.056  0.1194 -0.1081 -1.0364
  112CHL1    C914511   4.038   0.862   6.132  0.1830 -0.1659  0.4272
  112CHL1    H914512   3.927   0.855   6.141  0.3078 -3.6185  0.3210
  112CHL1   C1014513   4.100   0.898   6.272  0.1833  0.1529  0.2535
  112CHL1   C1914514   4.252   0.922   6.267  0.9579  0.0290 -0.4809
  112CHL1  H19A14515   4.263   1.010   6.200 -1.6278  1.7824  1.2033
  112CHL1  H19B14516   4.293   0.944   6.368 -2.0293  0.1670  0.8013
  112CHL1  H19C14517   4.288   0.828   6.220  0.3401 -0.3836 -0.1414
  112CHL1    C114518   4.028   1.019   6.334  0.0368 -0.6637 -0.1869
  112CHL1   H1A14519   4.058   1.113   6.284 -1.1798  0.9079  1.8543
  112CHL1   H1B14520   3.917   1.026   6.326  0.1604  0.4073 -1.0904
  112CHL1    C214521   4.071   1.051   6.478  0.2792 -0.1753  0.2931
  112CHL1   H2A14522   4.019   1.141   6.520  2.5187  0.9562  0.7669
  112CHL1   H2B14523   4.178   1.078   6.478  0.2621  0.1366 -2.4866
  112CHL1   C2014524   3.962   0.755   5.581 -0.5147 -0.4895  0.1716
  112CHL1   H2014525   4.064   0.717   5.558 -0.0782  0.9886 -0.4450
  112CHL1   C2114526   3.966   0.907   5.555  0.5882  0.2126 -0.2071
  112CHL1  H21A14527   4.043   0.955   5.620  0.1277  0.0492  0.4670
  112CHL1  H21B14528   3.868   0.951   5.581  0.5010  0.3039 -0.6834
  112CHL1  H21C14529   3.980   0.934   5.448  0.7774  1.8664  0.2098
  112CHL1   C2214530   3.865   0.683   5.482 -0.3131  0.4391  0.1120
  112CHL1  H22A14531   3.861   0.574   5.503 -0.7569  0.6842  1.4309
  112CHL1  H22B14532   3.762   0.720   5.503 -0.2406  0.1081  1.1289
  112CHL1   C2314533   3.898   0.704   5.337  0.1928 -0.2172 -0.9241
  112CHL1  H23A14534   3.865   0.804   5.304 -0.9599 -0.5584 -0.8394
  112CHL1  H23B14535   4.009   0.701   5.330  0.2138 -2.4153 -0.5531
  112CHL1   C2414536   3.849   0.591   5.246  0.0869  0.4553  0.4864
  112CHL1  H24A14537   3.905   0.496   5.262 -1.0233 -0.2452  0.2895
  112CHL1  H24B14538   3.743   0.580   5.274 -0.1448 -0.2581 -0.5805
  112CHL1   C2514539   3.859   0.623   5.095  0.1291 -0.1140  0.0552
  112CHL1   H2514540   3.824   0.728   5.081  0.1798  0.3145  2.5992
  112CHL1   C2614541   4.000   0.595   5.036  0.2996 -0.2595 -0.5064
  112CHL1  H26A14542   4.085   0.647   5.086 -0.1400 -1.4675  1.6129
  112CHL1  H26B14543   4.018   0.488   5.060  0.3090 -0.2760 -0.5884
  112CHL1  H26C14544   4.008   0.601   4.926 -0.0197  1.3490 -0.4652
  112CHL1   C2714545   3.759   0.537   5.012 -0.5618  0.7973  0.1149
  112CHL1  H27A14546   3.658   0.573   5.043 -0.5913 -0.5256  1.7037
  112CHL1  H27B14547   3.784   0.557   4.906  1.6951  1.9386  0.8144
  112CHL1  H27C14548   3.775   0.428   5.027  0.4070  0.8828 -0.2405
  113CHL1    C314549   0.528   4.286   6.281 -0.5977  0.9509  1.1810
  113CHL1    H314550   0.530   4.397   6.276  0.6001  0.9209  0.6931
  113CHL1    O314551   0.469   4.235   6.402  0.3454  0.2005 -0.4052
  113CHL1   H3'14552   0.452   4.142   6.384  1.3454 -0.6295  2.4482
  113CHL1    C414553   0.451   4.223   6.166  0.2065 -0.2132 -0.1822
  113CHL1   H4A14554   0.453   4.114   6.184  2.9748 -0.1457  0.4294
  113CHL1   H4B14555   0.344   4.253   6.167  0.4765  1.1946 -2.9725
  113CHL1    C514556   0.510   4.254   6.024 -0.5105  0.5860 -0.2036
  113CHL1    C614557   0.435   4.311   5.933  0.2615  0.4838 -0.8709
  113CHL1    H614558   0.332   4.343   5.956 -0.4093 -1.3576 -1.1800
  113CHL1    C714559   0.480   4.334   5.796 -0.0155  0.3472  0.4282
  113CHL1   H7A14560   0.420   4.288   5.714  1.6216 -0.4084 -0.3801
  113CHL1   H7B14561   0.471   4.442   5.768  0.9491  0.1464 -0.7633
  113CHL1    C814562   0.629   4.289   5.761 -0.2226  0.0898 -0.5811
  113CHL1    H814563   0.611   4.182   5.739  0.2660  0.0354 -0.7333
  113CHL1   C1414564   0.676   4.369   5.643 -0.1255  0.1733 -0.1491
  113CHL1   H1414565   0.702   4.471   5.678  2.8135 -0.1876 -0.9908
  113CHL1   C1514566   0.585   4.384   5.523 -0.0961  0.1039 -0.4943
  113CHL1  H15A14567   0.531   4.295   5.483 -0.7048 -0.6849  1.8519
  113CHL1  H15B14568   0.506   4.461   5.541  0.5666  0.7274 -0.2129
  113CHL1   C1614569   0.677   4.444   5.417  0.3091 -0.3667  0.3095
  113CHL1  H16A14570   0.660   4.387   5.323 -0.0243  2.2791 -1.3165
  113CHL1  H16B14571   0.639   4.545   5.393 -3.2124 -1.3470  1.2804
  113CHL1   C1714572   0.829   4.421   5.470  0.0976  0.1819  0.2261
  113CHL1   H1714573   0.849   4.521   5.515 -2.0014  0.3005  0.9918
  113CHL1   C1314574   0.807   4.324   5.588  0.2371  0.1648  0.1631
  113CHL1   C1814575   0.800   4.179   5.534 -0.6602 -0.0730  0.3274
  113CHL1  H18A14576   0.895   4.148   5.487 -0.9384  1.2910 -1.2287
  113CHL1  H18B14577   0.770   4.115   5.620 -0.9030 -0.1004  0.2244
  113CHL1  H18C14578   0.734   4.178   5.445  2.1609  0.4266 -1.9076
  113CHL1   C1214579   0.911   4.340   5.705  0.0636  0.9072  1.2077
  113CHL1  H12A14580   1.010   4.302   5.672 -0.2041  1.1406  0.1210
  113CHL1  H12B14581   0.921   4.447   5.733  0.7642  0.8606  1.1456
  113CHL1   C1114582   0.870   4.260   5.837  0.0485 -0.0968 -0.4104
  113CHL1  H11A14583   0.868   4.150   5.821  1.1651 -0.5845  2.3240
  113CHL1  H11B14584   0.948   4.283   5.913 -0.2681  1.2306 -0.4703
  113CHL1    C914585   0.730   4.300   5.882  0.3246 -0.0500  0.3054
  113CHL1    H914586   0.731   4.406   5.916 -2.9090  0.9300 -2.0975
  113CHL1   C1014587   0.663   4.223   6.005  0.0712 -0.2529 -0.7877
  113CHL1   C1914588   0.683   4.073   5.985 -0.6179 -0.8748  0.1712
  113CHL1  H19A14589   0.634   4.017   6.068  0.5904 -0.0029  1.5211
  113CHL1  H19B14590   0.640   4.035   5.890  0.6000  0.2518 -0.8613
  113CHL1  H19C14591   0.787   4.037   5.997  0.5372  2.3121  0.6409
  113CHL1    C114592   0.741   4.262   6.135  0.5743  0.1637 -0.6598
  113CHL1   H1A14593   0.838   4.209   6.126 -0.6629 -2.2454 -0.9165
  113CHL1   H1B14594   0.766   4.370   6.129 -1.5574  0.8610  1.5821
  113CHL1    C214595   0.671   4.229   6.268  0.6282 -0.4972  0.1792
  113CHL1   H2A14596   0.725   4.266   6.357 -1.2785  1.0061  0.7686
  113CHL1   H2B14597   0.661   4.118   6.274 -0.0872 -0.3570  3.7385
  113CHL1   C2014598   0.921   4.389   5.354  0.5452  0.0017  0.2533
  113CHL1   H2014599   0.887   4.298   5.300 -0.6873  1.2161 -1.0929
  113CHL1   C2114600   1.061   4.364   5.405  0.2126  0.1853 -0.5983
  113CHL1  H21A14601   1.062   4.279   5.476 -0.0433  0.8118  0.1647
  113CHL1  H21B14602   1.093   4.460   5.450 -0.3973 -0.0635  0.3929
  113CHL1  H21C14603   1.127   4.334   5.321  1.5500 -1.5392  0.9772
  113CHL1   C2214604   0.920   4.505   5.251  0.2122  0.0980  0.9709
  113CHL1  H22A14605   0.817   4.523   5.213  0.7491  0.9651 -0.1240
  113CHL1  H22B14606   0.953   4.602   5.295 -1.1344 -0.2106  2.7968
  113CHL1   C2314607   1.005   4.494   5.120  0.6291 -0.7100  0.5708
  113CHL1  H23A14608   1.107   4.475   5.160  0.1140  1.1527  2.9541
  113CHL1  H23B14609   0.966   4.401   5.073 -0.9322  0.2320 -0.0908
  113CHL1   C2414610   0.995   4.618   5.034  0.0257  0.1114 -0.3622
  113CHL1  H24A14611   0.893   4.612   4.991  0.0459 -4.5793 -0.3483
  113CHL1  H24B14612   1.011   4.710   5.094 -0.9036  0.3199 -0.4255
  113CHL1   C2514613   1.095   4.608   4.908  0.2192 -0.3060 -0.5335
  113CHL1   H2514614   1.094   4.509   4.858 -1.9249 -0.3450 -0.4990
  113CHL1   C2614615   1.059   4.709   4.788 -0.4912  0.3040  0.0569
  113CHL1  H26A14616   0.954   4.702   4.753 -0.3421 -1.5358 -0.1290
  113CHL1  H26B14617   1.095   4.813   4.801 -1.0638  0.9575 -2.8054
  113CHL1  H26C14618   1.121   4.676   4.701  0.9715  3.5528 -0.2734
  113CHL1   C2714619   1.243   4.617   4.950 -0.1693 -0.3705 -0.2161
  113CHL1  H27A14620   1.263   4.690   5.031 -1.1834  1.8219 -1.8334
  113CHL1  H27B14621   1.290   4.522   4.984  0.3531  0.3130  1.0365
  113CHL1  H27C14622   1.304   4.641   4.860 -2.5458  0.5055 -1.6913
  114CHL1    C314623   4.832   0.386   6.314  0.0132 -0.3473 -0.0586
  114CHL1    H314624   4.723   0.365   6.320 -0.3226  1.6185  3.0989
  114CHL1    O314625   4.883   0.420   6.443  0.6029  0.0818 -0.3368
  114CHL1   H3'14626   4.976   0.408   6.423  1.0460  0.9913  1.0598
  114CHL1    C414627   4.918   0.264   6.263  0.2776 -0.3278 -0.2441
  114CHL1   H4A14628   5.028   0.278   6.271  0.1419  2.1366 -1.6206
  114CHL1   H4B14629   4.883   0.185   6.333  1.3000 -0.9942 -0.4632
  114CHL1    C514630   4.892   0.227   6.113  1.0492 -0.3203  0.2852
  114CHL1    C614631   4.865   0.093   6.079 -0.1687  0.0171  0.3468
  114CHL1    H614632   4.867   0.016   6.158 -1.8422  1.3080  1.7218
  114CHL1    C714633   4.839   0.042   5.939 -0.0153  0.4100 -0.0259
  114CHL1   H7A14634   4.902  -0.047   5.918 -0.7302 -0.1296  0.0939
  114CHL1   H7B14635   4.733   0.012   5.922 -0.0607 -0.3626  1.4554
  114CHL1    C814636   4.891   0.153   5.837 -0.3429  0.5048  0.0725
  114CHL1    H814637   5.002   0.147   5.834 -0.3010  1.0558  0.5185
  114CHL1   C1414638   4.842   0.121   5.697  0.6659 -0.1353 -0.8005
  114CHL1   H1414639   4.732   0.116   5.713  1.0530 -2.1714  2.1479
  114CHL1   C1514640   4.884  -0.016   5.639  0.8048  0.3506 -0.9420
  114CHL1  H15A14641   4.995  -0.016   5.653  0.6178 -1.4515  0.9778
  114CHL1  H15B14642   4.842  -0.100   5.697  1.6406 -0.2763 -1.2249
  114CHL1   C1614643   4.851  -0.001   5.493  0.0800  0.1708  0.6743
  114CHL1  H16A14644   4.925  -0.042   5.420 -1.1229 -0.2715 -0.3204
  114CHL1  H16B14645   4.757  -0.055   5.470 -0.5430  1.6148 -0.3594
  114CHL1   C1714646   4.817   0.144   5.463  0.1319 -0.4766  0.4366
  114CHL1   H1714647   4.706   0.151   5.473 -0.1349 -2.4487 -0.7326
  114CHL1   C1314648   4.868   0.220   5.587  0.2230 -0.6893  0.2616
  114CHL1   C1814649   5.018   0.240   5.575  0.0557  0.9908 -0.7068
  114CHL1  H18A14650   5.081   0.161   5.531  2.1130  0.9814  2.0018
  114CHL1  H18B14651   5.040   0.335   5.521  0.4053  1.1577 -0.2760
  114CHL1  H18C14652   5.065   0.253   5.675 -0.4449 -1.6755 -0.0449
  114CHL1   C1214653   4.798   0.349   5.627  0.0988 -0.9822  0.3562
  114CHL1  H12A14654   4.823   0.435   5.560 -0.6960 -0.4923  0.6745
  114CHL1  H12B14655   4.688   0.338   5.626 -0.2453  1.2573 -2.9571
  114CHL1   C1114656   4.846   0.401   5.764  0.6375  0.7024 -0.0473
  114CHL1  H11A14657   4.950   0.439   5.761  0.3098  1.6234 -0.2241
  114CHL1  H11B14658   4.783   0.486   5.798 -0.7391 -0.0006 -0.7227
  114CHL1    C914659   4.839   0.292   5.877  0.2412 -0.3148 -0.6311
  114CHL1    H914660   4.730   0.276   5.892  0.5499 -0.1828  2.2307
  114CHL1   C1014661   4.891   0.346   6.009  0.1763 -0.2349 -0.8107
  114CHL1   C1914662   5.032   0.401   5.999 -0.8482 -0.1537 -0.8446
  114CHL1  H19A14663   5.079   0.439   6.092  1.9946  1.2686 -2.7001
  114CHL1  H19B14664   5.100   0.325   5.956  0.6419  0.3431  0.5234
  114CHL1  H19C14665   5.033   0.492   5.935  0.3966 -0.6740 -1.6049
  114CHL1    C114666   4.801   0.466   6.068  0.0001 -0.1906  0.2202
  114CHL1   H1A14667   4.812   0.557   6.005 -1.8574  0.9964  1.4751
  114CHL1   H1B14668   4.694   0.436   6.058  0.8106 -2.8979 -1.2700
  114CHL1    C214669   4.840   0.506   6.209  0.2485 -0.0759  0.0541
  114CHL1   H2A14670   4.778   0.590   6.246  0.0062 -0.7890  1.3388
  114CHL1   H2B14671   4.946   0.537   6.219  0.1443  0.2678  0.0991
  114CHL1   C2014672   4.849   0.206   5.330 -0.6756  0.2652 -0.0023
  114CHL1   H2014673   4.957   0.235   5.323 -0.3553 -0.8582  0.1056
  114CHL1   C2114674   4.760   0.333   5.302 -0.6751  0.7076 -0.4173
  114CHL1  H21A14675   4.783   0.377   5.203 -0.5091  0.2567 -0.5835
  114CHL1  H21B14676   4.781   0.415   5.373  2.4161 -1.2405  1.1470
  114CHL1  H21C14677   4.651   0.311   5.311 -0.5415  0.6499  1.4155
  114CHL1   C2214678   4.826   0.100   5.217 -0.1421  0.8070  0.1816
  114CHL1  H22A14679   4.888   0.008   5.228 -0.2379  0.5147 -1.3999
  114CHL1  H22B14680   4.718   0.074   5.223 -0.2424  0.8354 -1.1691
  114CHL1   C2314681   4.837   0.134   5.070  0.1843  0.3499 -0.4033
  114CHL1  H23A14682   4.784   0.226   5.036  1.0876  0.6498 -1.0300
  114CHL1  H23B14683   4.941   0.161   5.042  0.2234 -2.7713 -4.1219
  114CHL1   C2414684   4.786   0.012   4.989  1.0923  0.8586 -0.0387
  114CHL1  H24A14685   4.850  -0.078   4.997 -1.6118 -1.3924 -1.8843
  114CHL1  H24B14686   4.688  -0.015   5.035  0.7482 -0.5126 -1.4977
  114CHL1   C2514687   4.775   0.031   4.838  0.1596  0.4905  0.2610
  114CHL1   H2514688   4.707   0.115   4.812 -0.9687 -0.5126 -0.1450
  114CHL1   C2614689   4.909   0.056   4.775 -0.3281  0.1860  0.2867
  114CHL1  H26A14690   4.995   0.001   4.818  1.2222  1.4404 -1.0894
  114CHL1  H26B14691   4.911   0.028   4.668  0.0093 -0.9954  0.5888
  114CHL1  H26C14692   4.940   0.160   4.797 -2.3809  0.4107  2.5741
  114CHL1   C2714693   4.711  -0.094   4.782 -0.2791 -0.3351  0.2121
  114CHL1  H27A14694   4.682  -0.088   4.675  0.9359  1.8017 -0.0515
  114CHL1  H27B14695   4.779  -0.175   4.815  1.0564  0.6222 -0.0868
  114CHL1  H27C14696   4.620  -0.113   4.843 -0.0549  0.6190  0.8663
  115CHL1    C314697   1.324   7.429   6.603 -0.0351 -0.2828 -0.4416
  115CHL1    H314698   1.424   7.473   6.590 -0.5623  0.8078 -0.8722
  115CHL1    O314699   1.285   7.390   6.739 -0.5647 -0.8159 -0.0278
  115CHL1   H3'14700   1.206   7.336   6.729 -2.2212  1.2128  1.3833
  115CHL1    C414701   1.223   7.538   6.558  1.1644 -0.3326  1.0396
  115CHL1   H4A14702   1.127   7.489   6.584  0.5379 -0.7233 -1.6536
  115CHL1   H4B14703   1.235   7.624   6.627  1.0281  0.5528 -0.0189
  115CHL1    C514704   1.226   7.583   6.408  0.5905  0.1712  0.3821
  115CHL1    C614705   1.259   7.708   6.380 -0.0999 -0.5275  0.7412
  115CHL1    H614706   1.284   7.787   6.453  0.0706  0.3790 -0.2639
  115CHL1    C714707   1.285   7.750   6.237  0.5810  0.0145  0.1740
  115CHL1   H7A14708   1.241   7.851   6.221 -1.1761 -0.8515 -0.8219
  115CHL1   H7B14709   1.392   7.764   6.214  0.3477  1.6133 -0.0786
  115CHL1    C814710   1.213   7.653   6.132  0.3353 -0.1920 -0.4420
  115CHL1    H814711   1.105   7.676   6.143  0.1920 -0.3068 -1.4491
  115CHL1   C1414712   1.267   7.685   6.000  0.3541  0.5755  0.8803
  115CHL1   H1414713   1.372   7.651   5.995 -0.5823 -2.4950 -0.0397
  115CHL1   C1514714   1.259   7.828   5.955 -1.2192  0.2448  0.3554
  115CHL1  H15A14715   1.164   7.874   5.991 -3.4237 -3.0327 -0.8745
  115CHL1  H15B14716   1.350   7.884   5.988  0.1867 -0.8677 -1.4050
  115CHL1   C1614717   1.256   7.831   5.798 -0.7101 -0.9955 -0.2557
  115CHL1  H16A14718   1.163   7.881   5.763  0.2902 -0.2384 -1.9636
  115CHL1  H16B14719   1.339   7.881   5.744 -1.2499  2.0224  1.4773
  115CHL1   C1714720   1.267   7.682   5.761  0.0037  0.2861  0.1673
  115CHL1   H1714721   1.377   7.669   5.767 -0.0944 -0.2872  1.1025
  115CHL1   C1314722   1.203   7.609   5.882 -0.2245  0.5896  0.4599
  115CHL1   C1814723   1.045   7.631   5.875  0.3927 -0.0168 -0.5557
  115CHL1  H18A14724   1.018   7.736   5.854 -0.5421 -0.0954  0.2228
  115CHL1  H18B14725   1.001   7.570   5.793 -1.0004  0.7299 -0.3800
  115CHL1  H18C14726   0.994   7.597   5.968  1.2929  0.8516  0.2737
  115CHL1   C1214727   1.235   7.456   5.912 -0.2241 -0.4189 -0.1990
  115CHL1  H12A14728   1.183   7.402   5.830 -1.1330 -0.8469  0.6511
  115CHL1  H12B14729   1.344   7.433   5.916  0.3181  1.9762  0.0335
  115CHL1   C1114730   1.185   7.409   6.054 -0.4509 -0.2551  0.4162
  115CHL1  H11A14731   1.074   7.401   6.049 -0.3282 -1.5043 -3.2965
  115CHL1  H11B14732   1.225   7.310   6.084 -0.0616 -0.5454 -0.9848
  115CHL1    C914733   1.244   7.507   6.169  0.4236  0.5191  0.1632
  115CHL1    H914734   1.354   7.496   6.160  0.2358 -0.7010 -0.9158
  115CHL1   C1014735   1.205   7.461   6.311  0.4432 -0.0201  0.2229
  115CHL1   C1914736   1.062   7.404   6.316 -0.5478  0.9865  0.3029
  115CHL1  H19A14737   1.032   7.367   6.416  0.2480  0.9052  0.5212
  115CHL1  H19B14738   0.999   7.487   6.277  1.8430  2.8332  0.1310
  115CHL1  H19C14739   1.056   7.311   6.255  0.7010  1.1604 -0.1101
  115CHL1    C114740   1.315   7.356   6.362 -0.2699  0.8782 -0.0601
  115CHL1   H1A14741   1.309   7.263   6.302  0.0069  0.4171  0.6233
  115CHL1   H1B14742   1.417   7.396   6.345  0.7038 -1.6962 -0.6669
  115CHL1    C214743   1.316   7.311   6.502 -0.2307  0.0205 -0.5856
  115CHL1   H2A14744   1.393   7.234   6.524 -0.7487 -0.9760 -2.1480
  115CHL1   H2B14745   1.220   7.258   6.523 -1.0665 -0.0845 -4.1512
  115CHL1   C2014746   1.219   7.652   5.616  0.1474  0.5369  0.4189
  115CHL1   H2014747   1.110   7.632   5.617  0.1543  0.4730 -0.1260
  115CHL1   C2114748   1.292   7.523   5.569  0.2210  0.4533 -0.1759
  115CHL1  H21A14749   1.249   7.489   5.473 -2.7663  0.1092  1.1517
  115CHL1  H21B14750   1.265   7.445   5.643 -0.7693  1.8344  0.9846
  115CHL1  H21C14751   1.402   7.534   5.574  0.6434 -2.5806 -1.1764
  115CHL1   C2214752   1.249   7.776   5.512  0.2578 -0.2149 -0.2592
  115CHL1  H22A14753   1.192   7.865   5.548 -2.0774 -0.9773 -1.8142
  115CHL1  H22B14754   1.359   7.786   5.522  0.4242  0.0501 -1.9501
  115CHL1   C2314755   1.201   7.761   5.369 -0.0762 -0.0146  0.2214
  115CHL1  H23A14756   1.226   7.659   5.334 -1.2331 -0.1001 -0.4171
  115CHL1  H23B14757   1.090   7.762   5.375 -0.0933  1.4686  0.0606
  115CHL1   C2414758   1.259   7.866   5.265 -0.1200  0.7295 -0.2161
  115CHL1  H24A14759   1.232   7.961   5.314  0.0541  1.0359 -0.7110
  115CHL1  H24B14760   1.369   7.855   5.278 -0.4933 -1.1495  2.0099
  115CHL1   C2514761   1.196   7.848   5.127 -0.1291  0.5473  0.6186
  115CHL1   H2514762   1.126   7.762   5.121 -0.5627  0.9115  0.4570
  115CHL1   C2614763   1.119   7.971   5.088  0.3596  0.0168 -0.3898
  115CHL1  H26A14764   1.180   8.057   5.124 -0.0818 -0.4346  1.6023
  115CHL1  H26B14765   1.109   7.979   4.978 -1.1323 -1.6412 -0.4230
  115CHL1  H26C14766   1.014   7.973   5.122  0.1507  0.2249 -1.0333
  115CHL1   C2714767   1.305   7.816   5.017  0.0873  0.4497 -0.8614
  115CHL1  H27A14768   1.340   7.713   5.037 -2.1184 -0.3056 -0.5340
  115CHL1  H27B14769   1.259   7.801   4.917 -1.7001 -3.1494  0.3307
  115CHL1  H27C14770   1.399   7.874   5.023 -0.1541  0.7049  1.0781
  116CHL1    C314771   1.979   6.499   6.661 -0.5315  0.1074 -0.3434
  116CHL1    H314772   1.917   6.406   6.658 -1.1635  0.5450 -1.1281
  116CHL1    O314773   2.056   6.502   6.785  0.0616  0.0190 -0.0516
  116CHL1   H3'14774   1.993   6.515   6.856  0.1193 -0.5689  0.1185
  116CHL1    C414775   2.082   6.498   6.544  0.1480  0.9400 -0.4487
  116CHL1   H4A14776   2.145   6.589   6.541  1.8135  0.1616  3.8573
  116CHL1   H4B14777   2.156   6.416   6.556  0.4264  1.0074 -1.6632
  116CHL1    C514778   2.000   6.495   6.416 -0.5229  0.6578  0.9238
  116CHL1    C614779   2.015   6.398   6.323  0.2777  0.2264  0.1351
  116CHL1    H614780   2.085   6.317   6.348 -0.8114 -0.7117  0.2033
  116CHL1    C714781   1.950   6.400   6.184 -0.7476  0.1071 -0.0311
  116CHL1   H7A14782   2.014   6.364   6.100 -3.1471 -4.3543 -0.2665
  116CHL1   H7B14783   1.868   6.327   6.165  0.6973 -1.7703  0.6259
  116CHL1    C814784   1.894   6.536   6.150 -0.0685 -0.4317 -0.2871
  116CHL1    H814785   1.981   6.603   6.130 -0.7797  0.5457 -0.2144
  116CHL1   C1414786   1.803   6.527   6.028 -0.3884 -0.1954  0.3913
  116CHL1   H1414787   1.712   6.469   6.055  0.0987 -0.6287  1.1095
  116CHL1   C1514788   1.862   6.447   5.907 -0.4803  0.6516 -0.2290
  116CHL1  H15A14789   1.971   6.465   5.906 -0.5321  1.0867  0.5939
  116CHL1  H15B14790   1.831   6.341   5.921 -0.3471  0.4829 -1.1427
  116CHL1   C1614791   1.797   6.501   5.783  0.5548 -0.4696 -0.1038
  116CHL1  H16A14792   1.870   6.555   5.719 -1.6746  1.2119 -1.3577
  116CHL1  H16B14793   1.752   6.429   5.712  2.3160 -0.2098 -1.5617
  116CHL1   C1714794   1.688   6.600   5.835 -0.1057  0.4123 -0.1158
  116CHL1   H1714795   1.599   6.536   5.857 -0.8053  1.2148 -0.5576
  116CHL1   C1314796   1.749   6.659   5.969 -0.6226  0.0364 -0.0114
  116CHL1   C1814797   1.867   6.758   5.942  0.7534  0.1944 -0.8176
  116CHL1  H18A14798   1.949   6.702   5.891 -0.1044 -0.7813 -1.1760
  116CHL1  H18B14799   1.842   6.842   5.874  1.2266 -0.5096 -1.8938
  116CHL1  H18C14800   1.911   6.798   6.035 -2.6427  1.1197  0.5328
  116CHL1   C1214801   1.655   6.709   6.078 -0.0029  1.2955  0.6567
  116CHL1  H12A14802   1.619   6.811   6.052  0.4206  1.2454 -0.1608
  116CHL1  H12B14803   1.570   6.636   6.078  1.2927 -0.3563 -1.4386
  116CHL1   C1114804   1.718   6.716   6.225  0.0064 -0.0187  0.0121
  116CHL1  H11A14805   1.780   6.808   6.234  0.2394 -0.2904  1.4331
  116CHL1  H11B14806   1.631   6.722   6.294  0.0091 -1.0236  0.1103
  116CHL1    C914807   1.812   6.593   6.263  0.9394 -0.1596 -0.1894
  116CHL1    H914808   1.746   6.507   6.288 -1.4635  1.5721 -0.1207
  116CHL1   C1014809   1.903   6.610   6.393  0.2832 -0.8213 -0.6443
  116CHL1   C1914810   1.996   6.738   6.373 -0.1691  0.0509 -0.0287
  116CHL1  H19A14811   1.934   6.829   6.356 -1.3376 -0.4439  1.2968
  116CHL1  H19B14812   2.045   6.760   6.471 -1.7970  1.9779  0.4275
  116CHL1  H19C14813   2.066   6.727   6.288  0.2023  0.0786  0.2734
  116CHL1    C114814   1.823   6.634   6.527  0.7505  0.5856  0.5900
  116CHL1   H1A14815   1.760   6.725   6.524 -1.2470 -0.7298  0.4566
  116CHL1   H1B14816   1.747   6.553   6.532 -0.6657  1.8544  0.4702
  116CHL1    C214817   1.897   6.629   6.655  0.1509  0.3033  0.0893
  116CHL1   H2A14818   1.826   6.628   6.741  0.7624 -0.3143  0.6024
  116CHL1   H2B14819   1.957   6.719   6.681  3.3206 -1.9734  1.3904
  116CHL1   C2014820   1.637   6.703   5.731 -0.0624  0.5857 -0.4530
  116CHL1   H2014821   1.717   6.780   5.728  2.5879 -2.0045 -0.7159
  116CHL1   C2114822   1.496   6.760   5.780  0.9390 -0.0187 -0.7239
  116CHL1  H21A14823   1.421   6.680   5.761  1.4232 -0.0668 -2.6666
  116CHL1  H21B14824   1.467   6.845   5.715  0.7733 -0.3706 -1.1137
  116CHL1  H21C14825   1.492   6.788   5.887  2.0262 -1.0610 -0.3862
  116CHL1   C2214826   1.601   6.650   5.587  0.0993  0.5847 -0.6126
  116CHL1  H22A14827   1.697   6.613   5.545  0.8661 -0.5302  1.8888
  116CHL1  H22B14828   1.541   6.557   5.590 -2.8272  2.3200  2.4954
  116CHL1   C2314829   1.542   6.750   5.489  0.5621  0.1099  0.4498
  116CHL1  H23A14830   1.432   6.756   5.505  0.3017  0.9355 -1.4044
  116CHL1  H23B14831   1.573   6.855   5.506 -0.7176  1.1143 -2.6664
  116CHL1   C2414832   1.555   6.713   5.343  0.7650  0.8513  0.4387
  116CHL1  H24A14833   1.660   6.682   5.325  0.4044 -1.0204  1.2970
  116CHL1  H24B14834   1.506   6.614   5.326  3.1671 -0.3521  0.0383
  116CHL1   C2514835   1.481   6.806   5.250 -0.9130 -0.5955  0.3026
  116CHL1   H2514836   1.500   6.909   5.287 -1.7341  0.0939 -1.1144
  116CHL1   C2614837   1.550   6.808   5.108  0.3408 -0.2785 -0.5938
  116CHL1  H26A14838   1.524   6.721   5.044  0.9551 -1.5537  0.8000
  116CHL1  H26B14839   1.516   6.902   5.060  0.6942  0.7890  1.1449
  116CHL1  H26C14840   1.661   6.815   5.106  0.2633  1.9670  0.0707
  116CHL1   C2714841   1.328   6.790   5.252  0.1661 -0.4910  0.0141
  116CHL1  H27A14842   1.279   6.881   5.212 -1.0881 -1.5356 -0.9059
  116CHL1  H27B14843   1.301   6.700   5.191  1.8345 -1.9185  1.2674
  116CHL1  H27C14844   1.282   6.776   5.352  0.2579 -1.2505 -0.0376
  117CHL1    C314845   5.503   0.877   6.242  0.3371  0.5039 -0.0589
  117CHL1    H314846   5.394   0.896   6.232  0.0029  0.3169  2.6287
  117CHL1    O314847   5.544   0.935   6.363 -0.6209 -0.3810 -0.1692
  117CHL1   H3'14848   5.598   1.011   6.339 -0.5250 -0.4528 -0.1823
  117CHL1    C414849   5.523   0.725   6.230 -0.1949 -0.3164  0.2293
  117CHL1   H4A14850   5.629   0.700   6.252  0.2459 -0.9275 -2.3006
  117CHL1   H4B14851   5.468   0.678   6.314 -1.1914 -1.9201 -1.2478
  117CHL1    C514852   5.488   0.667   6.092 -0.3134 -0.2217  0.1312
  117CHL1    C614853   5.400   0.569   6.078 -0.2918 -0.6448 -0.9748
  117CHL1    H614854   5.364   0.533   6.176 -0.9909 -1.9567 -1.6726
  117CHL1    C714855   5.368   0.507   5.950  0.1519  0.5518  0.2670
  117CHL1   H7A14856   5.370   0.396   5.953  1.4430  0.5429 -0.1735
  117CHL1   H7B14857   5.273   0.551   5.913  1.2710  1.7377 -1.3439
  117CHL1    C814858   5.472   0.542   5.840  0.3705 -0.6500  1.3466
  117CHL1    H814859   5.565   0.482   5.851  0.5036 -1.1293 -1.6128
  117CHL1   C1414860   5.413   0.502   5.703  1.1601  0.6933  0.2181
  117CHL1   H1414861   5.321   0.562   5.687  0.7072  0.1333  0.6838
  117CHL1   C1514862   5.370   0.352   5.695  0.3519 -0.6902  0.5153
  117CHL1  H15A14863   5.446   0.288   5.743  0.0056 -0.1431  1.8454
  117CHL1  H15B14864   5.270   0.333   5.742  0.1041  0.4877  0.5097
  117CHL1   C1614865   5.361   0.328   5.539 -0.0725  0.3770 -0.7393
  117CHL1  H16A14866   5.413   0.243   5.492  0.2600  0.5493 -0.6815
  117CHL1  H16B14867   5.255   0.330   5.505 -0.6467  2.9372  0.8443
  117CHL1   C1714868   5.418   0.458   5.473 -0.0121 -0.3585 -0.1864
  117CHL1   H1714869   5.336   0.527   5.445 -1.1029 -1.0673  1.1576
  117CHL1   C1314870   5.497   0.529   5.579 -0.0595 -0.8348  0.4502
  117CHL1   C1814871   5.635   0.452   5.589  0.0650  0.2870  0.6032
  117CHL1  H18A14872   5.624   0.342   5.602 -1.7265  0.3621  0.0175
  117CHL1  H18B14873   5.691   0.468   5.494 -0.5162  1.0275  0.3776
  117CHL1  H18C14874   5.693   0.489   5.676  1.9982  0.8604 -0.8407
  117CHL1   C1214875   5.525   0.687   5.577 -0.0442 -0.1235 -0.1184
  117CHL1  H12A14876   5.600   0.706   5.497 -0.0129 -1.0193 -0.3103
  117CHL1  H12B14877   5.436   0.746   5.546  0.3770 -0.0831 -1.2857
  117CHL1   C1114878   5.578   0.736   5.713  0.3500  0.3232 -0.3217
  117CHL1  H11A14879   5.682   0.696   5.724 -0.4783 -1.2689  3.3924
  117CHL1  H11B14880   5.597   0.845   5.703 -0.6559  0.7424  1.7274
  117CHL1    C914881   5.495   0.693   5.843  0.3193 -0.0268  0.6341
  117CHL1    H914882   5.396   0.740   5.825  0.3971 -0.5883 -1.5734
  117CHL1   C1014883   5.547   0.737   5.975 -0.4137  0.4223  0.0839
  117CHL1   C1914884   5.703   0.714   5.974 -0.2304  0.4591 -0.4388
  117CHL1  H19A14885   5.750   0.795   5.913  0.4390  0.4204  0.0142
  117CHL1  H19B14886   5.763   0.732   6.065  1.1524  0.2588 -1.2769
  117CHL1  H19C14887   5.741   0.627   5.915 -4.0291  0.6187 -3.5511
  117CHL1    C114888   5.524   0.894   5.982 -0.0813  0.2777  0.1618
  117CHL1   H1A14889   5.579   0.949   5.903  0.3023 -1.2418 -0.6741
  117CHL1   H1B14890   5.416   0.914   5.961  0.1844 -1.2216 -3.3638
  117CHL1    C214891   5.565   0.950   6.123 -0.6544 -0.1142 -0.9620
  117CHL1   H2A14892   5.534   1.056   6.131  0.7652  0.2988 -0.7675
  117CHL1   H2B14893   5.674   0.935   6.136 -1.0227 -2.6248 -0.0475
  117CHL1   C2014894   5.479   0.425   5.338  0.1911  0.1835 -0.8943
  117CHL1   H2014895   5.563   0.353   5.351  1.3923  1.6860  0.0322
  117CHL1   C2114896   5.514   0.556   5.267  0.2856 -0.6497 -0.0394
  117CHL1  H21A14897   5.520   0.547   5.156 -0.0031 -2.7577  0.0701
  117CHL1  H21B14898   5.606   0.608   5.301  0.1610 -0.7520  0.4548
  117CHL1  H21C14899   5.442   0.639   5.285  1.0691  0.1357 -0.4297
  117CHL1   C2214900   5.373   0.360   5.239 -0.6629 -0.4359 -0.3417
  117CHL1  H22A14901   5.324   0.277   5.295  2.1274 -1.5850  0.5796
  117CHL1  H22B14902   5.292   0.432   5.215  0.3323  1.0259  0.5738
  117CHL1   C2314903   5.431   0.282   5.125  0.6184  0.2934  0.0200
  117CHL1  H23A14904   5.490   0.351   5.060 -0.6592 -0.0488 -1.5803
  117CHL1  H23B14905   5.502   0.200   5.150 -1.5352 -2.4968 -2.2832
  117CHL1   C2414906   5.330   0.215   5.034  0.3369  0.4059 -0.4484
  117CHL1  H24A14907   5.263   0.137   5.075 -0.2040  1.2203  0.2543
  117CHL1  H24B14908   5.261   0.297   5.004  1.2552  0.5330 -2.3620
  117CHL1   C2514909   5.395   0.147   4.909  0.1282 -0.5767  0.8397
  117CHL1   H2514910   5.455   0.225   4.857  3.3349 -2.9679  0.7000
  117CHL1   C2614911   5.490   0.032   4.946  0.2860 -0.4230  0.1334
  117CHL1  H26A14912   5.579   0.073   4.997  1.6737 -0.7423 -1.8858
  117CHL1  H26B14913   5.432  -0.040   5.009  0.0721  0.8790  1.4708
  117CHL1  H26C14914   5.517  -0.020   4.851 -1.8219  0.3606 -0.9692
  117CHL1   C2714915   5.270   0.105   4.832 -0.6685 -0.0349  0.1397
  117CHL1  H27A14916   5.306   0.056   4.738 -2.6814 -2.1448  0.3754
  117CHL1  H27B14917   5.209   0.035   4.894  0.3087 -0.5145  0.5819
  117CHL1  H27C14918   5.206   0.191   4.803  2.4812  1.8330 -1.8657
  118CHL1    C314919   7.147   0.581   6.536  0.4658 -0.1974  0.2949
  118CHL1    H314920   7.173   0.480   6.573  0.3638  0.6578  2.9450
  118CHL1    O314921   7.112   0.660   6.650 -0.6776  0.3571  0.1493
  118CHL1   H3'14922   7.180   0.645   6.717 -0.8902  1.9528  0.7564
  118CHL1    C414923   7.263   0.648   6.461 -0.1822 -0.4691  1.2141
  118CHL1   H4A14924   7.234   0.753   6.443  1.0456 -0.6197 -2.4220
  118CHL1   H4B14925   7.354   0.651   6.525  0.5718  0.7454  0.1122
  118CHL1    C514926   7.302   0.585   6.330 -0.0537 -0.7131  0.0541
  118CHL1    C614927   7.430   0.552   6.302  0.6464  0.5013  0.5921
  118CHL1    H614928   7.503   0.565   6.383 -0.4277 -0.5392  1.7716
  118CHL1    C714929   7.475   0.493   6.175  0.4651 -0.1432 -0.2471
  118CHL1   H7A14930   7.579   0.523   6.151  0.8500 -0.5773  0.8108
  118CHL1   H7B14931   7.471   0.384   6.196 -0.2340  0.2622  1.9876
  118CHL1    C814932   7.372   0.518   6.061  0.0225 -0.5031 -0.5858
  118CHL1    H814933   7.379   0.628   6.046  1.1313 -0.0364  2.5100
  118CHL1   C1414934   7.404   0.437   5.939  1.0288 -0.0173 -0.5624
  118CHL1   H1414935   7.392   0.329   5.964  1.4770  0.2715  1.0021
  118CHL1   C1514936   7.545   0.431   5.896  0.1168  0.5253  0.9564
  118CHL1  H15A14937   7.583   0.535   5.888  1.1378  0.1495  0.7094
  118CHL1  H15B14938   7.620   0.369   5.950 -0.8780 -0.6141  1.0837
  118CHL1   C1614939   7.539   0.392   5.748  0.5705  0.7980 -0.3103
  118CHL1  H16A14940   7.589   0.473   5.691 -0.4491  0.7060 -1.3855
  118CHL1  H16B14941   7.595   0.297   5.735 -0.8563 -0.0581 -0.5425
  118CHL1   C1714942   7.393   0.360   5.714  0.2585  0.4279 -0.5041
  118CHL1   H1714943   7.379   0.258   5.756 -1.0684  1.0680  0.6889
  118CHL1   C1314944   7.322   0.462   5.809  0.3078  0.6965  0.5757
  118CHL1   C1814945   7.339   0.613   5.761  0.0568 -0.3688 -0.2520
  118CHL1  H18A14946   7.277   0.637   5.673 -1.4649  3.0934  1.5846
  118CHL1  H18B14947   7.307   0.680   5.844 -0.6814 -0.4720 -0.4456
  118CHL1  H18C14948   7.445   0.627   5.731 -0.4525 -2.1004 -3.2605
  118CHL1   C1214949   7.180   0.423   5.853  0.0880  0.4498  0.4290
  118CHL1  H12A14950   7.112   0.432   5.766 -0.1862  1.5417  0.7538
  118CHL1  H12B14951   7.187   0.317   5.887  1.6081  0.0077 -1.0951
  118CHL1   C1114952   7.133   0.504   5.985  0.2566 -0.3149 -0.6639
  118CHL1  H11A14953   7.114   0.608   5.948  1.7076 -0.6142 -2.3651
  118CHL1  H11B14954   7.040   0.445   6.000 -0.2124  0.2055 -1.4386
  118CHL1    C914955   7.229   0.493   6.102  0.6081 -0.4923  0.3122
  118CHL1    H914956   7.229   0.383   6.116 -0.5221 -0.5335  0.0348
  118CHL1   C1014957   7.184   0.567   6.235  0.1713  0.3438 -0.0836
  118CHL1   C1914958   7.137   0.710   6.202 -0.5354  0.1501 -0.2980
  118CHL1  H19A14959   7.219   0.756   6.143 -0.5054  0.5825  0.0843
  118CHL1  H19B14960   7.041   0.714   6.145 -1.2415  0.0704  0.8615
  118CHL1  H19C14961   7.131   0.775   6.291  1.3254  0.8512 -0.6338
  118CHL1    C114962   7.068   0.492   6.317 -0.1492  0.0432 -0.3942
  118CHL1   H1A14963   6.977   0.480   6.254 -0.5192  1.2473 -0.1187
  118CHL1   H1B14964   7.113   0.391   6.329 -2.8685 -1.1136  1.0626
  118CHL1    C214965   7.022   0.566   6.444 -0.2548  0.7509  0.1412
  118CHL1   H2A14966   6.945   0.507   6.499  1.7609  0.0798  2.3919
  118CHL1   H2B14967   6.982   0.669   6.429  1.5520  1.5338  0.4678
  118CHL1   C2014968   7.366   0.369   5.561 -0.1907 -0.8809  0.1613
  118CHL1   H2014969   7.362   0.475   5.529 -1.6920 -1.0943 -0.3871
  118CHL1   C2114970   7.235   0.292   5.531  0.1145 -0.3453  1.0597
  118CHL1  H21A14971   7.243   0.188   5.571 -1.4380 -0.7685  0.3948
  118CHL1  H21B14972   7.223   0.279   5.421 -1.4161  2.9774  0.7169
  118CHL1  H21C14973   7.150   0.349   5.575 -1.6792 -0.4844 -1.9371
  118CHL1   C2214974   7.487   0.316   5.476  0.2820  0.4985  0.1817
  118CHL1  H22A14975   7.581   0.359   5.516  0.2648  1.2911 -0.6098
  118CHL1  H22B14976   7.480   0.206   5.488 -1.6969  0.5760  0.0817
  118CHL1   C2314977   7.477   0.344   5.328 -0.2342  0.4848  0.2007
  118CHL1  H23A14978   7.386   0.292   5.290  1.6100 -2.7704 -0.0544
  118CHL1  H23B14979   7.474   0.455   5.320 -0.8847  0.4493 -0.1508
  118CHL1   C2414980   7.599   0.285   5.249 -0.8211 -0.0971 -0.6935
  118CHL1  H24A14981   7.690   0.343   5.275 -1.0480  0.9824 -2.2273
  118CHL1  H24B14982   7.608   0.183   5.293 -1.1388  0.2077  0.0965
  118CHL1   C2514983   7.576   0.267   5.095 -0.5548  0.6301  0.2749
  118CHL1   H2514984   7.520   0.355   5.056  0.3994  1.8185  1.4831
  118CHL1   C2614985   7.705   0.264   5.009  0.7257  0.4769 -0.2384
  118CHL1  H26A14986   7.759   0.361   5.009 -1.3764  1.7106 -0.8222
  118CHL1  H26B14987   7.777   0.180   5.024  0.7592  0.5038 -0.2466
  118CHL1  H26C14988   7.660   0.243   4.909  4.2654 -1.3864 -1.6371
  118CHL1   C2714989   7.497   0.131   5.067  0.0719 -0.1797 -0.0022
  118CHL1  H27A14990   7.443   0.144   4.971  1.4884  1.3064 -0.6334
  118CHL1  H27B14991   7.564   0.042   5.064 -1.2107 -1.2002  0.6055
  118CHL1  H27C14992   7.421   0.116   5.146 -1.2186  0.9945 -0.9816
  119CHL1    C314993   0.828   7.515   6.646 -0.4821  0.2676  0.2472
  119CHL1    H314994   0.916   7.465   6.600  0.1414 -1.4221  3.0544
  119CHL1    O314995   0.857   7.529   6.781  0.2523  0.3705 -0.1512
  119CHL1   H3'14996   0.773   7.553   6.820 -0.9093 -1.1212 -1.5833
  119CHL1    C414997   0.806   7.649   6.585  0.3843  0.0352  0.3619
  119CHL1   H4A14998   0.739   7.712   6.647 -1.1919 -0.0405 -1.2029
  119CHL1   H4B14999   0.904   7.702   6.590  1.6648 -2.0633 -1.0422
  119CHL1    C515000   0.759   7.642   6.448  0.5205  0.5015 -0.6451
  119CHL1    C615001   0.831   7.699   6.354 -0.3645 -0.1173  0.1475
  119CHL1    H615002   0.927   7.744   6.385 -0.4616 -1.3468  2.3463
  119CHL1    C715003   0.796   7.699   6.203 -0.3588  0.9197 -0.0604
  119CHL1   H7A15004   0.811   7.805   6.172  1.2951  0.9509  0.7066
  119CHL1   H7B15005   0.872   7.651   6.139 -0.8680  0.9298 -0.6760
  119CHL1    C815006   0.651   7.646   6.176  0.3105 -1.0150 -0.2071
  119CHL1    H815007   0.579   7.725   6.206  1.9418  0.2015  0.6934
  119CHL1   C1415008   0.633   7.606   6.029  0.7444  0.3004  1.4255
  119CHL1   H1415009   0.697   7.520   6.001 -0.2624  0.1061 -0.4214
  119CHL1   C1515010   0.667   7.709   5.922 -1.1547  0.3802  0.4095
  119CHL1  H15A15011   0.620   7.797   5.970 -4.5056 -2.0261  1.9557
  119CHL1  H15B15012   0.777   7.710   5.912 -0.9501 -1.2999  1.8518
  119CHL1   C1615013   0.588   7.662   5.800 -0.1599  0.0813  0.4039
  119CHL1  H16A15014   0.532   7.754   5.774  0.1616 -0.3933 -2.3251
  119CHL1  H16B15015   0.649   7.640   5.710  0.0857 -0.1699  0.6297
  119CHL1   C1715016   0.495   7.545   5.849 -0.3589  0.0876  0.9023
  119CHL1   H1715017   0.565   7.462   5.825  0.0342  0.9783 -1.2241
  119CHL1   C1315018   0.486   7.564   6.001 -0.1585  0.5037 -0.2443
  119CHL1   C1815019   0.389   7.682   6.030  0.7359 -0.7458 -0.1762
  119CHL1  H18A15020   0.394   7.708   6.138 -0.3365 -0.3147 -0.2142
  119CHL1  H18B15021   0.401   7.775   5.971  1.2418 -2.0142 -2.1673
  119CHL1  H18C15022   0.286   7.649   6.006 -0.0074  1.6016 -0.5280
  119CHL1   C1215023   0.467   7.436   6.086  0.2243 -0.0303 -0.8911
  119CHL1  H12A15024   0.368   7.388   6.070  0.8772 -1.3313 -1.1831
  119CHL1  H12B15025   0.547   7.362   6.062  0.0207 -0.1935 -1.0681
  119CHL1   C1115026   0.486   7.465   6.235  0.1867 -0.0610 -0.3637
  119CHL1  H11A15027   0.412   7.541   6.268  1.3230  0.1266  1.9530
  119CHL1  H11B15028   0.468   7.372   6.293 -0.1783  1.7245  2.5777
  119CHL1    C915029   0.627   7.523   6.268  0.0315 -0.0719  0.3952
  119CHL1    H915030   0.700   7.444   6.243  0.0529  0.2650 -0.6591
  119CHL1   C1015031   0.639   7.555   6.419 -0.3028  0.1121  0.0525
  119CHL1   C1915032   0.522   7.639   6.469 -0.3994  0.6155  0.0238
  119CHL1  H19A15033   0.536   7.676   6.573  0.1534  0.9618 -0.1719
  119CHL1  H19B15034   0.508   7.727   6.402 -4.0123  1.1943  1.3050
  119CHL1  H19C15035   0.424   7.587   6.475  0.1878 -0.5812 -0.5524
  119CHL1    C115036   0.648   7.423   6.494  0.0166  1.3223 -0.4658
  119CHL1   H1A15037   0.553   7.368   6.510  1.3869 -1.0311 -0.0652
  119CHL1   H1B15038   0.727   7.360   6.448  2.4061  3.1783  0.8901
  119CHL1    C215039   0.699   7.438   6.639 -0.8713  0.6816 -0.3917
  119CHL1   H2A15040   0.711   7.340   6.691  0.4590  1.2231  0.3667
  119CHL1   H2B15041   0.622   7.499   6.690  0.7588  1.7634  0.8915
  119CHL1   C2015042   0.362   7.515   5.763  0.2920 -0.4520 -0.3719
  119CHL1   H2015043   0.279   7.577   5.803 -0.1755  0.4197 -2.5816
  119CHL1   C2115044   0.336   7.357   5.788  0.1104  0.1504 -0.4369
  119CHL1  H21A15045   0.316   7.329   5.894  2.7272 -3.0000 -0.6241
  119CHL1  H21B15046   0.434   7.308   5.773 -0.3558 -0.7561 -0.5549
  119CHL1  H21C15047   0.266   7.315   5.713 -1.1669  0.1533  0.7049
  119CHL1   C2215048   0.379   7.552   5.609 -0.6434  0.5164 -0.8197
  119CHL1  H22A15049   0.405   7.660   5.615 -0.4001  0.3940  3.1699
  119CHL1  H22B15050   0.459   7.480   5.580 -2.7173 -1.2113 -2.6827
  119CHL1   C2315051   0.247   7.528   5.541  0.7100  0.2543  0.1204
  119CHL1  H23A15052   0.228   7.419   5.548 -0.1290  0.1601 -2.4216
  119CHL1  H23B15053   0.164   7.586   5.587  0.7639  0.2396  0.2366
  119CHL1   C2415054   0.255   7.564   5.386 -0.4523  0.1039 -0.2772
  119CHL1  H24A15055   0.160   7.528   5.342  0.6324 -1.2664 -1.6480
  119CHL1  H24B15056   0.262   7.675   5.382  1.8990  0.0799  1.3354
  119CHL1   C2515057   0.360   7.484   5.307 -0.5067  0.0777 -0.5693
  119CHL1   H2515058   0.463   7.511   5.340  0.2244 -4.1696  1.3640
  119CHL1   C2615059   0.345   7.329   5.322  0.5178 -0.1507 -0.1443
  119CHL1  H26A15060   0.252   7.294   5.272  0.3105 -0.6764  0.6105
  119CHL1  H26B15061   0.425   7.276   5.266  1.3728 -0.0937  0.9933
  119CHL1  H26C15062   0.350   7.297   5.428 -3.2515  1.0358  0.5621
  119CHL1   C2715063   0.351   7.517   5.155 -0.8603 -0.1907  0.0215
  119CHL1  H27A15064   0.366   7.626   5.145 -2.4149  0.0941  0.6136
  119CHL1  H27B15065   0.438   7.470   5.103 -0.7999  0.3423 -0.3676
  119CHL1  H27C15066   0.265   7.475   5.100 -0.4650 -0.5879 -0.3037
  120CHL1    C315067   7.087   7.235   6.697 -0.3837  0.0105 -0.3626
  120CHL1    H315068   7.044   7.333   6.668 -2.3784 -0.2810  1.3417
  120CHL1    O315069   7.114   7.239   6.844  0.5062  0.3602  0.9002
  120CHL1   H3'15070   7.029   7.220   6.886 -0.0748  3.3001  1.2777
  120CHL1    C415071   7.001   7.112   6.673  0.1034 -0.5153 -0.7713
  120CHL1   H4A15072   7.051   7.021   6.713  0.8271  0.3679  0.3828
  120CHL1   H4B15073   6.907   7.123   6.732  1.4237  1.7865  1.0750
  120CHL1    C515074   6.974   7.097   6.527  0.2309 -0.5874  0.7821
  120CHL1    C615075   6.849   7.104   6.476 -0.7222 -0.7773 -0.7724
  120CHL1    H615076   6.764   7.123   6.543  1.2367  2.4029  1.0773
  120CHL1    C715077   6.813   7.089   6.334 -0.8347  0.5821  1.2105
  120CHL1   H7A15078   6.736   7.009   6.322  0.2901 -0.4614  0.6820
  120CHL1   H7B15079   6.746   7.170   6.299 -1.8984 -0.2268  1.2839
  120CHL1    C815080   6.929   7.053   6.236 -0.6584 -0.1961  0.2076
  120CHL1    H815081   6.932   6.942   6.240  1.4858 -0.2478 -1.2420
  120CHL1   C1415082   6.901   7.076   6.085 -0.0192 -0.0449 -0.3887
  120CHL1   H1415083   6.908   7.186   6.076  0.6291 -0.1176 -0.8819
  120CHL1   C1515084   6.766   7.034   6.023  0.1094  0.0813  0.9149
  120CHL1  H15A15085   6.756   6.929   6.058 -2.0380 -1.4263 -3.4115
  120CHL1  H15B15086   6.667   7.078   6.048  0.1522 -0.0190  1.2623
  120CHL1   C1615087   6.792   7.021   5.876 -0.0505  0.0393 -0.2474
  120CHL1  H16A15088   6.776   6.919   5.836  0.1462 -0.7590  1.6431
  120CHL1  H16B15089   6.735   7.096   5.816  2.5251  3.0082  0.7431
  120CHL1   C1715090   6.948   7.048   5.856 -0.2779  0.5391  0.0993
  120CHL1   H1715091   6.965   7.157   5.848  1.7009  0.4471  1.9580
  120CHL1   C1315092   7.013   7.017   5.995 -0.3456  0.3034 -0.0927
  120CHL1   C1815093   7.031   6.862   6.006 -0.4548  1.0762  0.3824
  120CHL1  H18A15094   7.061   6.837   6.109  0.9797 -0.4797 -0.3713
  120CHL1  H18B15095   6.936   6.805   5.991 -0.2354  0.6413  0.6214
  120CHL1  H18C15096   7.114   6.833   5.939  0.3632  0.4171  1.6553
  120CHL1   C1215097   7.145   7.095   6.032  0.4345 -0.2119  0.3665
  120CHL1  H12A15098   7.232   7.050   5.978 -1.8518 -2.6964 -1.4876
  120CHL1  H12B15099   7.130   7.203   6.012 -0.7331 -0.4784 -0.2935
  120CHL1   C1115100   7.183   7.090   6.182 -0.6647  0.0646 -0.2896
  120CHL1  H11A15101   7.203   6.982   6.196 -0.3861  0.1441 -0.0842
  120CHL1  H11B15102   7.279   7.141   6.206 -0.2881 -0.9967  0.4924
  120CHL1    C915103   7.064   7.118   6.280 -0.5329 -0.2479  0.4768
  120CHL1    H915104   7.049   7.228   6.275  1.1640 -0.0293 -1.3868
  120CHL1   C1015105   7.099   7.091   6.431  0.2744  0.0671  0.6287
  120CHL1   C1915106   7.154   6.953   6.444  1.1772  0.3241  0.4578
  120CHL1  H19A15107   7.261   6.953   6.414  0.6943  3.8677 -1.6924
  120CHL1  H19B15108   7.159   6.918   6.549  0.7189  0.8907  0.6714
  120CHL1  H19C15109   7.099   6.869   6.396  1.3873 -0.3579  1.3760
  120CHL1    C115110   7.195   7.203   6.472  0.2094  0.4270  0.3280
  120CHL1   H1A15111   7.286   7.181   6.413 -0.0759  0.4116 -0.1124
  120CHL1   H1B15112   7.150   7.301   6.444 -0.1231  0.7139  1.7578
  120CHL1    C215113   7.219   7.219   6.626  0.6941  0.4662  0.3722
  120CHL1   H2A15114   7.282   7.308   6.648  0.1588  0.6838  1.0666
  120CHL1   H2B15115   7.270   7.129   6.667 -1.4550 -0.6346  0.7406
  120CHL1   C2015116   7.001   6.978   5.725 -0.4529  0.6082  0.0583
  120CHL1   H2015117   6.982   6.868   5.726 -1.5006  0.7482 -1.4795
  120CHL1   C2115118   7.150   7.004   5.715 -0.7877 -0.3808  0.0169
  120CHL1  H21A15119   7.179   7.109   5.737 -1.1844  0.1662 -1.8805
  120CHL1  H21B15120   7.189   6.983   5.613  2.0056  0.6617  0.7626
  120CHL1  H21C15121   7.207   6.945   5.790  0.4102  0.8047  0.0866
  120CHL1   C2215122   6.937   7.038   5.602  0.6518 -0.4057 -0.2650
  120CHL1  H22A15123   6.827   7.048   5.617  1.0000  0.5098  2.2516
  120CHL1  H22B15124   6.970   7.143   5.585  0.5501 -0.4812 -0.9684
  120CHL1   C2315125   6.960   6.956   5.471 -0.1800 -0.3737 -0.8248
  120CHL1  H23A15126   7.069   6.956   5.449  0.8237  3.9689  2.7541
  120CHL1  H23B15127   6.920   6.852   5.478 -1.0115 -0.0583 -0.7504
  120CHL1   C2415128   6.873   7.010   5.354  0.6064 -0.0210  0.1376
  120CHL1  H24A15129   6.767   7.002   5.387  0.3869 -2.2616 -0.9229
  120CHL1  H24B15130   6.889   7.117   5.329 -0.3940 -0.1217 -1.0611
  120CHL1   C2515131   6.908   6.931   5.226  0.3191 -0.3115  1.2474
  120CHL1   H2515132   6.950   6.836   5.265 -2.0248 -2.0664 -0.1716
  120CHL1   C2615133   6.778   6.879   5.153  0.2690  0.0610 -0.2478
  120CHL1  H26A15134   6.797   6.861   5.045  0.9658 -0.2745 -0.0747
  120CHL1  H26B15135   6.751   6.779   5.193  0.7478 -0.2420 -0.6660
  120CHL1  H26C15136   6.699   6.956   5.159 -0.4235 -0.7463  2.7128
  120CHL1   C2715137   6.993   6.998   5.121  0.2871 -0.2047 -0.0255
  120CHL1  H27A15138   7.081   7.035   5.178  0.2557  0.1905 -0.2325
  120CHL1  H27B15139   7.027   6.922   5.047  1.2842  0.8720 -0.7081
  120CHL1  H27C15140   6.945   7.085   5.072 -0.6222  0.3797  1.8094
  121CHL1    C315141   4.670   3.173   3.325  0.1104  0.2180  0.7476
  121CHL1    H315142   4.741   3.259   3.329  1.7949 -1.0906  0.4314
  121CHL1    O315143   4.675   3.125   3.194 -0.2611 -0.1675 -0.0667
  121CHL1   H3'15144   4.751   3.065   3.189 -0.4517 -0.3038 -2.7669
  121CHL1    C415145   4.739   3.074   3.425 -0.1445 -0.6054  0.2459
  121CHL1   H4A15146   4.689   2.975   3.417 -3.0158  0.7350  0.0673
  121CHL1   H4B15147   4.842   3.063   3.386  0.1752  0.2622  0.8366
  121CHL1    C515148   4.734   3.121   3.569  0.4191  0.5717 -1.0397
  121CHL1    C615149   4.845   3.111   3.632 -0.4532  0.4527 -0.7372
  121CHL1    H615150   4.931   3.071   3.576 -0.8561 -0.7633 -0.5317
  121CHL1    C715151   4.855   3.152   3.778 -0.4106  0.3744  0.1109
  121CHL1   H7A15152   4.926   3.092   3.839 -0.8662 -1.0843 -0.7634
  121CHL1   H7B15153   4.884   3.260   3.780  0.3078  0.1843  0.1267
  121CHL1    C815154   4.717   3.139   3.850  0.0364  0.0503 -0.5137
  121CHL1    H815155   4.684   3.034   3.858 -0.8958  0.3208 -0.6855
  121CHL1   C1415156   4.732   3.205   3.985  0.5536  0.7278 -0.9495
  121CHL1   H1415157   4.755   3.312   3.963  1.0723  0.2939 -2.6250
  121CHL1   C1515158   4.844   3.159   4.083  0.7015 -0.6353  0.2519
  121CHL1  H15A15159   4.836   3.048   4.078  0.8844 -0.6455  0.1854
  121CHL1  H15B15160   4.946   3.187   4.050 -0.1180 -0.0298 -1.9796
  121CHL1   C1615161   4.803   3.209   4.225  0.8184  0.2093  0.0802
  121CHL1  H16A15162   4.800   3.126   4.299 -2.5257  0.7946  0.7779
  121CHL1  H16B15163   4.861   3.295   4.266  0.1567  0.5081  0.4187
  121CHL1   C1715164   4.660   3.277   4.205 -0.5102  0.3357  0.6917
  121CHL1   H1715165   4.681   3.384   4.182 -0.5762  0.5041  1.3744
  121CHL1   C1315166   4.606   3.214   4.070 -0.0210 -0.0200 -0.3195
  121CHL1   C1815167   4.559   3.072   4.101 -0.1637  0.2549 -0.0572
  121CHL1  H18A15168   4.466   3.062   4.162  0.2768  1.3687  0.8350
  121CHL1  H18B15169   4.549   3.013   4.007  0.2729  0.7041 -0.3842
  121CHL1  H18C15170   4.638   3.023   4.162  0.6369  1.9724  0.3242
  121CHL1   C1215171   4.504   3.295   3.991  0.7998  0.0869 -0.1926
  121CHL1  H12A15172   4.403   3.312   4.034  1.0088  1.4301 -0.1947
  121CHL1  H12B15173   4.543   3.399   3.982 -0.0955  0.4434 -0.0655
  121CHL1   C1115174   4.478   3.240   3.839  0.2309  0.5997 -1.0156
  121CHL1  H11A15175   4.416   3.148   3.844 -0.3355  1.0039 -0.3106
  121CHL1  H11B15176   4.417   3.310   3.778 -1.1579 -1.1978 -1.7638
  121CHL1    C915177   4.614   3.219   3.765 -0.1584 -0.5086 -0.3348
  121CHL1    H915178   4.664   3.319   3.766  0.6508 -0.8484 -2.2537
  121CHL1   C1015179   4.603   3.170   3.619 -0.1901  0.1544 -0.5001
  121CHL1   C1915180   4.510   3.047   3.630 -0.2482  0.7869 -0.4587
  121CHL1  H19A15181   4.508   2.977   3.544 -1.8548  0.0497  0.1402
  121CHL1  H19B15182   4.530   2.992   3.724  1.0936  0.4738 -0.9003
  121CHL1  H19C15183   4.408   3.090   3.636 -0.5754 -0.0492  0.0141
  121CHL1    C115184   4.535   3.270   3.516 -0.0903  0.0240 -0.5164
  121CHL1   H1A15185   4.429   3.291   3.541 -0.3335 -1.6483  0.0184
  121CHL1   H1B15186   4.597   3.362   3.517 -2.1936  1.5197 -1.0221
  121CHL1    C215187   4.528   3.217   3.375  0.6173  0.2534 -0.5461
  121CHL1   H2A15188   4.492   3.300   3.311 -1.8367 -0.7575 -0.5608
  121CHL1   H2B15189   4.466   3.126   3.361  1.8339 -0.7054  0.0766
  121CHL1   C2015190   4.562   3.286   4.317  0.3528 -0.0418 -0.0244
  121CHL1   H2015191   4.456   3.282   4.286  0.0484 -1.9015  1.1472
  121CHL1   C2115192   4.596   3.415   4.399 -0.6354  0.4464 -0.8223
  121CHL1  H21A15193   4.570   3.506   4.341  2.2181  1.7364 -0.2821
  121CHL1  H21B15194   4.702   3.423   4.431 -0.1631  1.2393 -2.5144
  121CHL1  H21C15195   4.538   3.414   4.494 -0.5122 -1.3242 -0.7347
  121CHL1   C2215196   4.571   3.168   4.414  0.2109  0.0647  0.5868
  121CHL1  H22A15197   4.598   3.072   4.364 -0.5489  1.2250 -2.2439
  121CHL1  H22B15198   4.664   3.181   4.473  1.7466 -0.0619 -1.6540
  121CHL1   C2315199   4.452   3.131   4.505 -0.6187  0.0309  0.1111
  121CHL1  H23A15200   4.487   3.043   4.563 -0.1703  0.2037  0.1043
  121CHL1  H23B15201   4.446   3.219   4.572  4.0308  0.7648 -0.0793
  121CHL1   C2415202   4.323   3.087   4.443 -0.3538 -1.2140 -0.2835
  121CHL1  H24A15203   4.286   3.162   4.370 -0.0368 -0.2832  0.4747
  121CHL1  H24B15204   4.338   2.993   4.386 -0.2398 -0.7920 -0.9665
  121CHL1   C2515205   4.212   3.056   4.543  0.9465 -0.4252 -0.8356
  121CHL1   H2515206   4.244   3.088   4.645 -0.4028 -2.6162  0.3587
  121CHL1   C2615207   4.079   3.125   4.502 -0.3840  0.3381 -0.5659
  121CHL1  H26A15208   4.094   3.235   4.493  0.5629  0.2063 -0.7492
  121CHL1  H26B15209   4.049   3.094   4.400  0.9472  1.1339 -1.2318
  121CHL1  H26C15210   3.991   3.106   4.567  0.7855 -0.2931  0.8944
  121CHL1   C2715211   4.176   2.907   4.556 -0.6091  0.8517 -0.4031
  121CHL1  H27A15212   4.104   2.877   4.635 -1.1641 -1.1671 -1.6030
  121CHL1  H27B15213   4.142   2.856   4.463 -2.7012  1.3194  0.0666
  121CHL1  H27C15214   4.271   2.856   4.582 -0.8715 -0.1060 -1.2691
  122CHL1    C315215   3.315   3.657   3.683 -0.2396 -0.2087  0.1910
  122CHL1    H315216   3.356   3.757   3.706 -0.6651  0.9430 -3.4682
  122CHL1    O315217   3.253   3.671   3.561  0.3948 -0.2011  0.3070
  122CHL1   H3'15218   3.314   3.665   3.486 -1.2973 -3.2280 -0.9707
  122CHL1    C415219   3.416   3.545   3.667  0.0897  0.4886 -0.1770
  122CHL1   H4A15220   3.359   3.461   3.623  1.2438 -0.5158  0.1619
  122CHL1   H4B15221   3.492   3.582   3.595  0.5662  0.6990  0.4275
  122CHL1    C515222   3.476   3.499   3.798 -0.9087  0.3313 -0.4823
  122CHL1    C615223   3.607   3.473   3.802 -0.3410 -0.5482 -0.1026
  122CHL1    H615224   3.665   3.480   3.709 -1.5338  1.0019 -0.7751
  122CHL1    C715225   3.674   3.431   3.930  0.5598 -0.3470 -0.7261
  122CHL1   H7A15226   3.738   3.346   3.896  1.1172 -0.0627 -0.3982
  122CHL1   H7B15227   3.725   3.521   3.970 -0.6161  0.5659 -1.2079
  122CHL1    C815228   3.575   3.385   4.040 -0.1319 -0.0515  0.4060
  122CHL1    H815229   3.541   3.280   4.029  1.4286 -0.7360  1.6832
  122CHL1   C1415230   3.656   3.398   4.174 -0.1964 -0.4322  0.5519
  122CHL1   H1415231   3.685   3.506   4.176 -2.6301  0.2776  1.6981
  122CHL1   C1515232   3.781   3.316   4.180 -0.3125 -0.7365 -0.5912
  122CHL1  H15A15233   3.772   3.220   4.126  1.2871 -0.6943 -0.9847
  122CHL1  H15B15234   3.872   3.371   4.147 -0.1194 -0.0677  0.9515
  122CHL1   C1615235   3.808   3.297   4.326 -0.1183 -0.1284  0.0005
  122CHL1  H16A15236   3.801   3.189   4.349  0.4792 -0.3281 -0.7421
  122CHL1  H16B15237   3.911   3.327   4.354 -0.7059  0.6695  1.4276
  122CHL1   C1715238   3.699   3.371   4.403  0.4148 -0.1272  0.6546
  122CHL1   H1715239   3.736   3.475   4.409  0.7311 -0.2854  1.6051
  122CHL1   C1315240   3.579   3.367   4.307  0.0382 -0.6635  0.6528
  122CHL1   C1815241   3.520   3.228   4.296 -1.2497  0.1028 -0.6322
  122CHL1  H18A15242   3.458   3.209   4.386 -1.0862  1.1765 -0.2813
  122CHL1  H18B15243   3.443   3.228   4.216 -0.1596  0.1532 -1.7207
  122CHL1  H18C15244   3.588   3.140   4.285 -2.8947 -1.6016  1.8400
  122CHL1   C1215245   3.471   3.476   4.313 -0.0102  0.1012  0.2889
  122CHL1  H12A15246   3.398   3.464   4.395 -1.2664 -1.0408 -0.9356
  122CHL1  H12B15247   3.507   3.580   4.327 -0.5024  0.6548 -2.0826
  122CHL1   C1115248   3.383   3.480   4.184 -0.1245  0.3284  0.0525
  122CHL1  H11A15249   3.336   3.380   4.194 -1.1838  0.8740  0.7677
  122CHL1  H11B15250   3.303   3.558   4.192 -0.4671  0.5025 -3.5450
  122CHL1    C915251   3.463   3.490   4.049  0.0804 -0.1473  0.3261
  122CHL1    H915252   3.521   3.582   4.067  0.9500 -0.7610  0.7305
  122CHL1   C1015253   3.386   3.494   3.921 -0.3581 -0.1361 -0.0244
  122CHL1   C1915254   3.303   3.363   3.909 -0.5363 -0.0396 -0.3561
  122CHL1  H19A15255   3.242   3.341   3.999 -2.6696 -0.1062 -1.7244
  122CHL1  H19B15256   3.227   3.353   3.828 -2.0941 -1.3678  1.1942
  122CHL1  H19C15257   3.367   3.272   3.909 -0.5387 -0.0570 -1.2538
  122CHL1    C115258   3.278   3.610   3.923 -0.2716  0.2940  0.0891
  122CHL1   H1A15259   3.202   3.592   4.003 -0.9658 -0.5528 -0.7490
  122CHL1   H1B15260   3.322   3.708   3.952  1.3138 -0.5360  0.6275
  122CHL1    C215261   3.208   3.625   3.791  0.3373  0.1621  0.8618
  122CHL1   H2A15262   3.126   3.700   3.785  0.7458  0.5430 -3.5391
  122CHL1   H2B15263   3.152   3.533   3.767 -2.0502  2.2531 -2.5898
  122CHL1   C2015264   3.680   3.323   4.553  0.1971 -0.1557 -0.3152
  122CHL1   H2015265   3.648   3.217   4.543 -0.1502  0.1377 -3.5824
  122CHL1   C2115266   3.564   3.397   4.630  0.1966  0.2547  0.6238
  122CHL1  H21A15267   3.532   3.362   4.731 -0.7552 -0.0544  0.2282
  122CHL1  H21B15268   3.475   3.380   4.566  0.5442 -1.7064  0.6099
  122CHL1  H21C15269   3.595   3.503   4.645 -1.6532  0.9629 -0.1957
  122CHL1   C2215270   3.799   3.332   4.650 -0.2999 -0.3967  0.3697
  122CHL1  H22A15271   3.893   3.303   4.598 -0.6783 -0.6311 -0.1837
  122CHL1  H22B15272   3.822   3.438   4.674 -0.5231 -0.4693  0.9370
  122CHL1   C2315273   3.776   3.251   4.779  0.1671 -0.4583  0.2038
  122CHL1  H23A15274   3.709   3.306   4.849 -0.7411 -1.2120 -0.0522
  122CHL1  H23B15275   3.740   3.148   4.761 -0.3121 -0.9278  3.2408
  122CHL1   C2415276   3.908   3.226   4.865  0.3229  0.1192  0.3581
  122CHL1  H24A15277   3.868   3.172   4.953 -0.3849  1.2300  0.7463
  122CHL1  H24B15278   3.961   3.152   4.801 -0.7684  0.7604 -1.3692
  122CHL1   C2515279   3.998   3.354   4.905  0.3201  0.3394  0.1612
  122CHL1   H2515280   4.013   3.421   4.818  0.5660  0.7719  0.5386
  122CHL1   C2615281   3.915   3.418   5.015  0.9019 -0.4852 -0.2663
  122CHL1  H26A15282   3.820   3.455   4.972  1.2722  0.5848 -0.1852
  122CHL1  H26B15283   3.890   3.340   5.090  1.3641  2.0975  2.7977
  122CHL1  H26C15284   3.970   3.500   5.066 -0.9666  0.4084  0.4063
  122CHL1   C2715285   4.134   3.307   4.952 -0.0009  0.3812 -0.1190
  122CHL1  H27A15286   4.174   3.256   4.861 -2.0666  0.7497 -1.2901
  122CHL1  H27B15287   4.204   3.388   4.982  0.7087 -0.2056 -0.1507
  122CHL1  H27C15288   4.116   3.235   5.034 -0.6674  0.7790  0.0854
  123CHL1    C315289   6.994   3.418   3.786  0.5708 -0.2863  0.1142
  123CHL1    H315290   6.993   3.529   3.784 -0.8602 -0.2770  0.1219
  123CHL1    O315291   7.042   3.357   3.665 -0.0685  0.2025  0.1956
  123CHL1   H3'15292   7.024   3.262   3.667  1.9662 -0.2700 -0.8821
  123CHL1    C415293   7.064   3.353   3.905  0.5193 -0.6831  0.4019
  123CHL1   H4A15294   7.063   3.243   3.889  1.0215 -0.4646 -1.3556
  123CHL1   H4B15295   7.168   3.390   3.907 -0.1137  1.2074  0.5021
  123CHL1    C515296   6.988   3.381   4.037 -0.0258 -0.7575 -0.7149
  123CHL1    C615297   7.058   3.423   4.143 -0.3222 -0.1595  0.1194
  123CHL1    H615298   7.166   3.445   4.133  0.0711 -1.0676  1.9485
  123CHL1    C715299   7.002   3.451   4.278 -0.1750 -0.2374  0.2439
  123CHL1   H7A15300   7.066   3.413   4.360 -1.6675  0.6656  1.8933
  123CHL1   H7B15301   7.002   3.561   4.293  0.1366  0.0427 -1.5594
  123CHL1    C815302   6.858   3.402   4.293 -0.2330  0.8422 -0.3991
  123CHL1    H815303   6.871   3.292   4.304 -2.0158  0.5779 -0.5980
  123CHL1   C1415304   6.792   3.465   4.411 -0.2085 -0.4659 -0.2237
  123CHL1   H1415305   6.789   3.575   4.391 -1.6964 -0.6976 -1.5541
  123CHL1   C1515306   6.852   3.462   4.555 -0.3192 -0.6722  0.3142
  123CHL1  H15A15307   6.863   3.359   4.594 -3.9250 -1.3830 -0.2636
  123CHL1  H15B15308   6.947   3.520   4.549 -1.2325  0.8475  0.0932
  123CHL1   C1615309   6.742   3.528   4.647  0.8809 -0.5537  0.0309
  123CHL1  H16A15310   6.745   3.465   4.739 -0.5696  0.4064  0.7820
  123CHL1  H16B15311   6.770   3.631   4.676  0.9474 -0.1826 -1.3092
  123CHL1   C1715312   6.606   3.506   4.574  0.2242  0.3427  0.1082
  123CHL1   H1715313   6.580   3.607   4.534 -2.9239 -0.0725  0.7915
  123CHL1   C1315314   6.643   3.434   4.438  0.2369 -0.0075  0.1255
  123CHL1   C1815315   6.631   3.281   4.464 -0.1275 -0.0889  0.1211
  123CHL1  H18A15316   6.684   3.225   4.384  3.5553 -0.0332  2.3063
  123CHL1  H18B15317   6.677   3.236   4.555 -0.9611 -1.5699 -0.1599
  123CHL1  H18C15318   6.523   3.255   4.468  0.4362 -2.6137  3.1065
  123CHL1   C1215319   6.564   3.482   4.307  0.1179 -0.0839 -0.2231
  123CHL1  H12A15320   6.455   3.464   4.323 -0.2495  2.3192  0.3856
  123CHL1  H12B15321   6.592   3.588   4.290 -0.8587  0.3773  0.9429
  123CHL1   C1115322   6.617   3.411   4.188 -0.1970  0.1005  0.4442
  123CHL1  H11A15323   6.591   3.303   4.197  0.0753 -0.0955 -0.8504
  123CHL1  H11B15324   6.563   3.446   4.097 -0.6275 -1.9914 -0.1690
  123CHL1    C915325   6.776   3.426   4.168  0.2447  0.0946  0.0430
  123CHL1    H915326   6.783   3.535   4.150 -0.6620  0.5256  1.9926
  123CHL1   C1015327   6.828   3.363   4.038  0.6060 -0.0593  0.0226
  123CHL1   C1915328   6.795   3.214   4.036 -0.5865  0.1814  0.0751
  123CHL1  H19A15329   6.856   3.143   3.977 -0.8314 -0.8371  1.0280
  123CHL1  H19B15330   6.797   3.161   4.133  0.2816 -1.6139 -0.8627
  123CHL1  H19C15331   6.693   3.210   3.993 -1.3425  0.0056  1.8179
  123CHL1    C115332   6.774   3.435   3.918 -0.3842 -0.5023  0.1968
  123CHL1   H1A15333   6.668   3.400   3.916  0.2732 -2.5640 -0.7242
  123CHL1   H1B15334   6.782   3.546   3.921  0.6411 -0.5516 -0.3589
  123CHL1    C215335   6.844   3.387   3.781  0.3236  0.3549  0.0612
  123CHL1   H2A15336   6.795   3.440   3.696  0.8618  0.2887 -0.2931
  123CHL1   H2B15337   6.829   3.277   3.771 -0.2506  0.3854  0.4950
  123CHL1   C2015338   6.493   3.468   4.666 -1.1431 -0.0446  0.7629
  123CHL1   H2015339   6.518   3.365   4.699 -0.7874 -0.3493 -0.3941
  123CHL1   C2115340   6.356   3.468   4.590 -0.8487  0.5605  0.0804
  123CHL1  H21A15341   6.351   3.383   4.520 -2.2360 -0.3017  1.1792
  123CHL1  H21B15342   6.355   3.561   4.529  1.5302  0.0602 -0.8274
  123CHL1  H21C15343   6.270   3.476   4.659 -1.2277 -2.1624  0.0265
  123CHL1   C2215344   6.485   3.558   4.792  0.0085  0.2043  0.1257
  123CHL1  H22A15345   6.587   3.575   4.833  0.3205 -0.8277 -0.2120
  123CHL1  H22B15346   6.441   3.656   4.764  0.4846 -0.1393 -1.9913
  123CHL1   C2315347   6.398   3.480   4.897 -0.6507  0.6156 -0.4336
  123CHL1  H23A15348   6.378   3.560   4.971 -1.5196  0.6302 -0.6734
  123CHL1  H23B15349   6.298   3.453   4.856 -0.3227 -1.8158  0.2175
  123CHL1   C2415350   6.465   3.364   4.969  0.2963 -0.5306  0.3611
  123CHL1  H24A15351   6.495   3.282   4.900  1.1886 -1.3290  1.6527
  123CHL1  H24B15352   6.555   3.384   5.031 -0.8192 -1.4791  2.3980
  123CHL1   C2515353   6.354   3.300   5.058 -0.3305  0.5680 -0.0739
  123CHL1   H2515354   6.266   3.300   4.990  0.2680  0.5024 -0.8680
  123CHL1   C2615355   6.394   3.148   5.082 -0.5627 -0.0887  0.3014
  123CHL1  H26A15356   6.314   3.089   5.132  1.0734 -1.3665  1.5082
  123CHL1  H26B15357   6.410   3.091   4.988  0.9596  0.7444  0.0251
  123CHL1  H26C15358   6.485   3.145   5.146 -0.9466  0.4764  0.8910
  123CHL1   C2715359   6.313   3.369   5.188 -0.2786  0.3368  0.5655
  123CHL1  H27A15360   6.248   3.454   5.160  1.4007  1.1541 -1.0784
  123CHL1  H27B15361   6.254   3.291   5.242  1.2500 -0.2817  1.4203
  123CHL1  H27C15362   6.393   3.400   5.259  0.9210 -1.7852  0.2509
  124CHL1    C315363   4.903   3.585   3.485  0.1263  0.8567  0.8694
  124CHL1    H315364   5.008   3.618   3.470  0.5076 -0.5551  0.2412
  124CHL1    O315365   4.891   3.501   3.368  0.4964 -0.6482  0.3983
  124CHL1   H3'15366   4.799   3.513   3.342  0.4418 -1.9834 -0.0777
  124CHL1    C415367   4.886   3.495   3.604  0.1536  0.3422 -0.4614
  124CHL1   H4A15368   4.788   3.445   3.591 -0.4433  1.2269  0.5035
  124CHL1   H4B15369   4.964   3.415   3.602 -0.4729 -0.3402  1.0152
  124CHL1    C515370   4.876   3.573   3.730  0.2072  0.2144  0.0442
  124CHL1    C615371   4.965   3.553   3.827  0.4886 -0.5677  0.2761
  124CHL1    H615372   5.028   3.465   3.808 -1.9524 -2.0822 -1.4442
  124CHL1    C715373   4.964   3.610   3.969 -0.0465  0.9491 -0.4558
  124CHL1   H7A15374   4.973   3.541   4.055 -1.3039 -0.4416 -1.3939
  124CHL1   H7B15375   5.055   3.675   3.976  0.2628  0.3555  1.4002
  124CHL1    C815376   4.827   3.692   3.991 -0.2828  0.4059  0.0283
  124CHL1    H815377   4.747   3.616   3.997  0.3663 -0.7060 -3.1598
  124CHL1   C1415378   4.830   3.780   4.107 -0.4773 -0.2819 -0.6338
  124CHL1   H1415379   4.916   3.851   4.099  1.6398 -2.4434  1.2040
  124CHL1   C1515380   4.865   3.705   4.240  0.1816  0.2865 -0.3250
  124CHL1  H15A15381   4.801   3.615   4.237 -1.0699  0.9040  3.0821
  124CHL1  H15B15382   4.973   3.685   4.251  0.0898  0.1733  0.3851
  124CHL1   C1615383   4.811   3.802   4.351  0.2064 -0.3809  0.0539
  124CHL1  H16A15384   4.755   3.737   4.422  0.0136 -2.0701 -1.5662
  124CHL1  H16B15385   4.888   3.854   4.413 -0.3620  1.3024 -0.5978
  124CHL1   C1715386   4.742   3.925   4.282  0.5449 -0.0039  0.1735
  124CHL1   H1715387   4.814   4.008   4.269  0.1664  0.8162  2.8072
  124CHL1   C1315388   4.706   3.862   4.148  0.8304 -0.0626  0.1444
  124CHL1   C1815389   4.581   3.769   4.163  0.4005 -0.2681  0.0552
  124CHL1  H18A15390   4.570   3.698   4.078  0.2367 -0.6911  0.4224
  124CHL1  H18B15391   4.580   3.722   4.264  0.2098  0.0166  0.1865
  124CHL1  H18C15392   4.497   3.841   4.160 -1.3600 -2.2107  0.7428
  124CHL1   C1215393   4.683   3.960   4.028  0.0127  1.1563 -0.6220
  124CHL1  H12A15394   4.585   4.007   4.052 -1.4172 -0.7775 -2.3531
  124CHL1  H12B15395   4.761   4.039   4.021  0.9650  0.2929 -0.0331
  124CHL1   C1115396   4.672   3.877   3.897  0.2162  0.2898 -0.0035
  124CHL1  H11A15397   4.574   3.824   3.901 -0.4033  1.4129  0.3643
  124CHL1  H11B15398   4.683   3.953   3.816  0.4865  0.3580  0.0960
  124CHL1    C915399   4.796   3.772   3.869  0.6369 -0.2690 -0.3868
  124CHL1    H915400   4.885   3.834   3.844  0.2519  0.4321 -0.0670
  124CHL1   C1015401   4.773   3.692   3.737 -0.1590 -0.4378 -0.1040
  124CHL1   C1915402   4.631   3.627   3.728  0.4216 -0.4303 -0.6409
  124CHL1  H19A15403   4.613   3.572   3.634  0.1022  1.6094 -1.8455
  124CHL1  H19B15404   4.614   3.553   3.809 -0.3692  1.3534  0.9072
  124CHL1  H19C15405   4.552   3.705   3.737 -1.1438 -2.0397  0.0334
  124CHL1    C115406   4.801   3.787   3.609 -0.2286 -0.1568  0.4929
  124CHL1   H1A15407   4.724   3.866   3.603  1.4639  1.5642  0.4228
  124CHL1   H1B15408   4.897   3.842   3.616  0.1093 -0.6051 -0.3870
  124CHL1    C215409   4.813   3.708   3.472  0.1695  0.2927  0.3157
  124CHL1   H2A15410   4.837   3.778   3.390  1.7729  0.7095  1.0983
  124CHL1   H2B15411   4.715   3.659   3.451  2.0565 -4.7059  1.7128
  124CHL1   C2015412   4.627   3.997   4.357  0.6556 -0.0445 -0.1394
  124CHL1   H2015413   4.528   3.951   4.340 -0.1660  1.6887 -0.2400
  124CHL1   C2115414   4.617   4.147   4.316 -0.0737 -0.1642 -0.0153
  124CHL1  H21A15415   4.536   4.209   4.360  1.9969 -0.0308  4.1264
  124CHL1  H21B15416   4.608   4.152   4.206 -0.4510 -1.1573 -0.0386
  124CHL1  H21C15417   4.708   4.198   4.355  0.2586  0.0960 -1.0894
  124CHL1   C2215418   4.627   3.974   4.515 -0.1286  0.5544  0.3863
  124CHL1  H22A15419   4.532   4.007   4.562 -1.7080 -2.2897 -0.5199
  124CHL1  H22B15420   4.627   3.864   4.532 -0.5001  0.5295  0.2214
  124CHL1   C2315421   4.751   4.035   4.593  0.3587  0.1986 -0.3966
  124CHL1  H23A15422   4.836   4.038   4.521  0.0698 -2.7936 -0.9949
  124CHL1  H23B15423   4.727   4.142   4.611 -0.7824  0.0240 -0.8371
  124CHL1   C2415424   4.786   3.954   4.720  0.2061 -0.4214 -0.4462
  124CHL1  H24A15425   4.703   3.969   4.792 -1.6480 -0.7381 -2.4210
  124CHL1  H24B15426   4.798   3.846   4.698  1.9249 -0.2190 -0.6140
  124CHL1   C2515427   4.918   4.014   4.795  0.4660 -0.5076  0.5282
  124CHL1   H2515428   4.924   3.957   4.890 -0.0284  1.6497  1.9172
  124CHL1   C2615429   5.055   3.984   4.719 -0.0695  0.6768 -0.0902
  124CHL1  H26A15430   5.070   3.875   4.728 -2.1214  0.2998 -0.7231
  124CHL1  H26B15431   5.065   4.023   4.615 -1.9663  2.4408  0.3150
  124CHL1  H26C15432   5.137   4.030   4.778 -2.0549  1.5447  2.1635
  124CHL1   C2715433   4.906   4.160   4.841 -0.3147  0.2420  0.5034
  124CHL1  H27A15434   4.835   4.170   4.926 -0.8115 -1.1172  0.2635
  124CHL1  H27B15435   5.006   4.184   4.883 -0.5664  0.1309  1.1815
  124CHL1  H27C15436   4.888   4.236   4.761  4.5050 -0.6493 -1.7780
  125CHL1    C315437   4.933   4.337   3.625 -0.5127  0.2515 -0.4251
  125CHL1    H315438   5.044   4.339   3.625 -0.4842  3.0015 -0.6198
  125CHL1    O315439   4.887   4.328   3.494  0.5081  0.1250  0.0465
  125CHL1   H3'15440   4.830   4.251   3.490 -0.4858  0.8639 -0.4436
  125CHL1    C415441   4.888   4.221   3.722 -0.4630  0.1191  0.5688
  125CHL1   H4A15442   4.781   4.193   3.724 -0.2952 -0.5096  1.2698
  125CHL1   H4B15443   4.934   4.129   3.679  0.1541 -0.3160  2.0682
  125CHL1    C515444   4.941   4.236   3.864 -0.3979  0.3824 -0.2556
  125CHL1    C615445   5.002   4.143   3.935 -0.6475 -0.4540  0.2605
  125CHL1    H615446   5.016   4.048   3.881 -1.3983  0.6719 -2.0325
  125CHL1    C715447   5.046   4.149   4.080 -0.2763 -0.8142 -0.0879
  125CHL1   H7A15448   5.013   4.065   4.144  1.4183 -2.4932 -1.3145
  125CHL1   H7B15449   5.157   4.143   4.078 -0.2866 -0.8864 -1.0344
  125CHL1    C815450   4.993   4.279   4.145  0.5139  0.4671  0.0809
  125CHL1    H815451   4.887   4.258   4.172  0.5008 -0.6187 -0.7600
  125CHL1   C1415452   5.070   4.303   4.268 -0.3992 -0.5424  0.7128
  125CHL1   H1415453   5.171   4.324   4.228 -0.4493  1.3440  1.4657
  125CHL1   C1515454   5.079   4.194   4.376  0.5774  0.1588 -0.1822
  125CHL1  H15A15455   4.979   4.149   4.393  0.6553  0.1665  0.3284
  125CHL1  H15B15456   5.145   4.112   4.340  0.9160 -0.5226  1.8597
  125CHL1   C1615457   5.130   4.262   4.501  0.5908  0.0362 -0.1119
  125CHL1  H16A15458   5.052   4.249   4.579  0.9674 -0.1745  0.2355
  125CHL1  H16B15459   5.222   4.206   4.529  0.0495 -1.3902 -1.1060
  125CHL1   C1715460   5.153   4.406   4.456  0.6166  0.3711 -0.3837
  125CHL1   H1715461   5.252   4.398   4.407  1.6603  0.5655  1.5941
  125CHL1   C1315462   5.050   4.429   4.340 -0.5639  0.0710  0.4548
  125CHL1   C1815463   4.913   4.448   4.407  0.6376 -0.7919  0.2598
  125CHL1  H18A15464   4.905   4.539   4.470  0.3481 -2.2485  2.4466
  125CHL1  H18B15465   4.826   4.452   4.338  0.8763 -0.2209 -0.0066
  125CHL1  H18C15466   4.888   4.368   4.481  1.2790  0.5113  1.9618
  125CHL1   C1215467   5.072   4.554   4.248 -0.3787  0.3810  0.8504
  125CHL1  H12A15468   5.062   4.650   4.303  1.8404  0.7472  0.7107
  125CHL1  H12B15469   5.175   4.562   4.207 -0.4042  1.0052  0.9068
  125CHL1   C1115470   4.979   4.531   4.130 -0.3399 -0.1805 -0.2421
  125CHL1  H11A15471   4.873   4.553   4.154 -0.6639  0.6884 -2.2180
  125CHL1  H11B15472   5.009   4.617   4.066 -1.6819  0.0101 -0.6339
  125CHL1    C915473   5.000   4.394   4.055  0.4208  0.7536  0.1864
  125CHL1    H915474   5.108   4.405   4.033  0.3751  0.7589 -0.0383
  125CHL1   C1015475   4.918   4.369   3.932 -1.0097  0.0897 -1.1473
  125CHL1   C1915476   4.764   4.371   3.970 -0.0985  0.2211 -0.7251
  125CHL1  H19A15477   4.707   4.372   3.875  0.0928 -1.1232 -0.8754
  125CHL1  H19B15478   4.738   4.283   4.033 -0.0708  0.1818 -0.7693
  125CHL1  H19C15479   4.743   4.467   4.021 -0.4302 -0.0690 -0.3029
  125CHL1    C115480   4.938   4.486   3.832  0.3019 -0.0125 -0.4114
  125CHL1   H1A15481   4.902   4.580   3.878 -2.5221 -0.8065 -0.8103
  125CHL1   H1B15482   5.048   4.493   3.817  0.6711 -2.0169  0.9357
  125CHL1    C215483   4.879   4.465   3.687  0.1511  0.2086 -0.4338
  125CHL1   H2A15484   4.918   4.556   3.638  0.3111  0.1746 -0.3689
  125CHL1   H2B15485   4.768   4.458   3.687  0.1289  0.4384 -1.3871
  125CHL1   C2015486   5.165   4.501   4.568 -0.1148  0.1613 -0.2285
  125CHL1   H2015487   5.127   4.602   4.542 -0.3802  0.5520  1.5765
  125CHL1   C2115488   5.322   4.520   4.592 -0.3207 -0.2271 -0.0386
  125CHL1  H21A15489   5.368   4.588   4.518 -1.6071  0.5913 -0.1251
  125CHL1  H21B15490   5.384   4.428   4.593  0.9450  0.5998 -0.7399
  125CHL1  H21C15491   5.328   4.563   4.694 -0.0533 -2.3844  0.9196
  125CHL1   C2215492   5.086   4.462   4.689  0.1308  0.1217 -1.7150
  125CHL1  H22A15493   4.980   4.438   4.666 -0.6981  0.7734  1.0311
  125CHL1  H22B15494   5.127   4.373   4.742  0.3457  0.4429 -1.3371
  125CHL1   C2315495   5.080   4.582   4.785  0.6832 -0.5956 -0.3644
  125CHL1  H23A15496   5.187   4.604   4.807  1.2212 -1.0399 -2.2921
  125CHL1  H23B15497   5.039   4.671   4.733 -0.1936 -0.1086  1.1315
  125CHL1   C2415498   4.990   4.551   4.901 -0.1351 -0.3851  0.4058
  125CHL1  H24A15499   4.885   4.541   4.868 -0.3797 -0.1819  1.0879
  125CHL1  H24B15500   5.019   4.451   4.940  1.1185  0.6315  2.2403
  125CHL1   C2515501   4.966   4.656   5.018 -0.4572  0.2014 -0.2691
  125CHL1   H2515502   4.940   4.754   4.973 -0.8245  0.9593  1.5081
  125CHL1   C2615503   4.840   4.619   5.098  0.7206  0.0091  0.6015
  125CHL1  H26A15504   4.802   4.692   5.173  0.5640 -0.2977  0.8216
  125CHL1  H26B15505   4.757   4.628   5.025  2.1716  1.4109 -0.9615
  125CHL1  H26C15506   4.833   4.515   5.136 -0.7365 -0.5959 -1.1776
  125CHL1   C2715507   5.099   4.682   5.096  0.0768 -0.7373  0.5126
  125CHL1  H27A15508   5.144   4.587   5.129  0.5884 -0.3067  1.0671
  125CHL1  H27B15509   5.172   4.710   5.017 -0.3800 -2.7338 -0.6792
  125CHL1  H27C15510   5.093   4.757   5.178  0.1742 -0.8758  0.6468
  126CHL1    C315511   4.346   4.980   3.479  0.5671  0.9303 -0.5453
  126CHL1    H315512   4.450   5.020   3.467  1.4424 -1.1514 -0.2354
  126CHL1    O315513   4.288   4.954   3.357 -0.0135 -0.0678  0.6225
  126CHL1   H3'15514   4.231   4.879   3.376 -0.0447  0.5304  3.1736
  126CHL1    C415515   4.355   4.847   3.554  1.2821  0.2582 -0.0483
  126CHL1   H4A15516   4.251   4.812   3.568  0.3971  2.1049 -1.5943
  126CHL1   H4B15517   4.397   4.774   3.481 -1.7119 -0.1506 -1.4898
  126CHL1    C515518   4.428   4.870   3.685 -0.2477  0.6404 -0.0048
  126CHL1    C615519   4.542   4.802   3.702 -0.7995 -0.0556  0.3476
  126CHL1    H615520   4.575   4.735   3.621 -0.1576  0.5622  0.0852
  126CHL1    C715521   4.616   4.813   3.834  0.5350  0.9871  0.2527
  126CHL1   H7A15522   4.651   4.712   3.864 -1.4075  0.1120 -0.2935
  126CHL1   H7B15523   4.712   4.867   3.819  1.7920 -1.1386  0.2032
  126CHL1    C815524   4.531   4.875   3.949  0.0636 -0.2239 -0.1523
  126CHL1    H815525   4.454   4.803   3.983 -0.6508  1.2768  1.6159
  126CHL1   C1415526   4.615   4.913   4.067 -0.1532 -0.1813 -0.1190
  126CHL1   H1415527   4.684   4.994   4.034  0.1626 -0.2642  0.3181
  126CHL1   C1515528   4.698   4.794   4.124 -0.5725 -0.5548 -0.2811
  126CHL1  H15A15529   4.646   4.698   4.105 -1.1907  0.0215 -1.6141
  126CHL1  H15B15530   4.793   4.792   4.067  0.1907 -0.4307  0.9441
  126CHL1   C1615531   4.721   4.833   4.277 -0.3368 -0.5712  0.1414
  126CHL1  H16A15532   4.668   4.760   4.343 -1.2508  1.1788  1.4201
  126CHL1  H16B15533   4.830   4.829   4.295 -0.2160 -2.2750 -0.6938
  126CHL1   C1715534   4.644   4.972   4.298  0.1146  0.9618 -0.5434
  126CHL1   H1715535   4.711   5.059   4.282 -0.0532  1.8189  2.7967
  126CHL1   C1315536   4.532   4.972   4.186 -0.8481  0.2415 -0.4596
  126CHL1   C1815537   4.416   4.876   4.236  0.6777 -0.4909 -0.6515
  126CHL1  H18A15538   4.451   4.778   4.275 -2.0524 -1.4745 -0.4273
  126CHL1  H18B15539   4.353   4.933   4.307  0.3663 -2.0417  0.3698
  126CHL1  H18C15540   4.357   4.856   4.144  0.2105  2.5737 -1.1274
  126CHL1   C1215541   4.485   5.108   4.137  0.5568 -0.4639 -0.2175
  126CHL1  H12A15542   4.416   5.138   4.219  0.7007 -1.3404  0.2408
  126CHL1  H12B15543   4.568   5.177   4.112  1.9809 -1.5953  1.2017
  126CHL1   C1115544   4.394   5.091   4.012 -0.4962 -0.4352 -0.2052
  126CHL1  H11A15545   4.305   5.035   4.051 -1.9790  1.1927 -1.1335
  126CHL1  H11B15546   4.369   5.195   3.984 -1.1587  0.7018  3.8774
  126CHL1    C915547   4.458   5.008   3.895  0.2711 -0.0792 -0.4688
  126CHL1    H915548   4.538   5.069   3.850 -1.4237  3.2294  0.6813
  126CHL1   C1015549   4.361   4.971   3.784  0.8377 -0.4328  0.2607
  126CHL1   C1915550   4.231   4.900   3.834  0.4117 -0.3944  0.0553
  126CHL1  H19A15551   4.246   4.796   3.871 -1.7790 -0.2939  1.3859
  126CHL1  H19B15552   4.183   4.959   3.915 -0.0089 -1.6529  0.7482
  126CHL1  H19C15553   4.160   4.895   3.748 -2.8377  2.1592  2.3453
  126CHL1    C115554   4.333   5.103   3.698  0.5295  0.0952 -0.2405
  126CHL1   H1A15555   4.256   5.163   3.753 -2.0967 -1.6498 -1.7644
  126CHL1   H1B15556   4.427   5.161   3.693  1.1333 -0.9553 -1.5398
  126CHL1    C215557   4.263   5.081   3.561 -0.5096  0.3074  0.5937
  126CHL1   H2A15558   4.256   5.175   3.503  0.8019 -0.8672 -1.6480
  126CHL1   H2B15559   4.166   5.029   3.571  0.2369 -0.9546  1.7299
  126CHL1   C2015560   4.610   4.989   4.443 -0.1472  0.9985  0.0242
  126CHL1   H2015561   4.526   4.921   4.470  2.1344 -1.2654  1.8822
  126CHL1   C2115562   4.568   5.128   4.469 -0.0385 -0.5154  1.1004
  126CHL1  H21A15563   4.472   5.163   4.424 -0.1946  3.4006  3.9271
  126CHL1  H21B15564   4.650   5.197   4.439 -2.3458  1.9047 -0.0600
  126CHL1  H21C15565   4.555   5.135   4.579  0.4200 -0.4996  1.1535
  126CHL1   C2215566   4.733   4.956   4.537 -0.0752 -0.0404 -0.1839
  126CHL1  H22A15567   4.706   4.999   4.636  1.2933  0.3086  0.0634
  126CHL1  H22B15568   4.752   4.847   4.543  2.3828  0.2735 -1.1985
  126CHL1   C2315569   4.859   5.025   4.517  0.3031  0.1497 -0.0255
  126CHL1  H23A15570   4.884   5.021   4.409 -0.8949  0.0926 -0.3200
  126CHL1  H23B15571   4.858   5.134   4.542  1.6369  0.4920 -1.3756
  126CHL1   C2415572   4.967   4.963   4.607  0.4144  1.0337  0.2696
  126CHL1  H24A15573   4.944   4.999   4.709 -0.6151 -0.9919  0.8042
  126CHL1  H24B15574   4.950   4.853   4.611  0.5818  0.9754 -0.4222
  126CHL1   C2515575   5.119   4.986   4.566  0.1244 -0.0792  0.2009
  126CHL1   H2515576   5.123   5.094   4.539 -2.0816 -0.5250 -2.3854
  126CHL1   C2615577   5.204   4.930   4.676  0.5910  0.7128 -0.6845
  126CHL1  H26A15578   5.313   4.952   4.678  1.0278 -0.9715  3.5839
  126CHL1  H26B15579   5.162   4.965   4.773 -3.1829 -3.2154 -0.6183
  126CHL1  H26C15580   5.191   4.821   4.686 -1.8232  0.8780 -1.4119
  126CHL1   C2715581   5.152   4.909   4.437  0.5094  0.7091 -0.0524
  126CHL1  H27A15582   5.259   4.933   4.419  0.1765  1.0902 -1.7258
  126CHL1  H27B15583   5.134   4.802   4.462 -1.6559  1.6281  2.9556
  126CHL1  H27C15584   5.092   4.932   4.346  0.7736 -0.8611 -0.6692
  127CHL1    C315585   2.567   7.225   3.366 -0.1189  0.1199 -0.4865
  127CHL1    H315586   2.585   7.126   3.413  1.3679  1.4267  1.8888
  127CHL1    O315587   2.626   7.234   3.243 -0.3317 -0.3449  0.2570
  127CHL1   H3'15588   2.593   7.158   3.194 -0.6086 -1.8834  2.6661
  127CHL1    C415589   2.417   7.261   3.353 -0.0827 -0.7417 -0.3242
  127CHL1   H4A15590   2.405   7.348   3.286 -0.0421  1.0511  1.8625
  127CHL1   H4B15591   2.372   7.170   3.307 -2.1359  0.3225 -0.5239
  127CHL1    C515592   2.348   7.295   3.486  0.3722 -0.1988  0.2895
  127CHL1    C615593   2.234   7.236   3.522  0.4754  0.2159  0.2857
  127CHL1    H615594   2.187   7.157   3.460  2.3985 -1.3675  0.7360
  127CHL1    C715595   2.160   7.260   3.651  0.0445  0.0488 -0.1522
  127CHL1   H7A15596   2.053   7.280   3.632  0.3485  0.1860 -1.8499
  127CHL1   H7B15597   2.185   7.185   3.729  1.1345  1.2033  0.6466
  127CHL1    C815598   2.214   7.392   3.722 -0.2210 -0.0895  0.0624
  127CHL1    H815599   2.181   7.480   3.663  3.6351  1.3277 -0.2206
  127CHL1   C1415600   2.163   7.400   3.867 -0.4032  0.0409 -0.2399
  127CHL1   H1415601   2.197   7.308   3.918 -0.9235  0.2118  0.4393
  127CHL1   C1515602   2.012   7.395   3.882  0.2447 -0.2075  0.0335
  127CHL1  H15A15603   1.973   7.454   3.797 -0.6411 -0.9664 -0.1036
  127CHL1  H15B15604   1.984   7.288   3.872  0.8214 -0.2846 -0.8869
  127CHL1   C1615605   1.990   7.450   4.020  0.0378 -0.3659 -0.1737
  127CHL1  H16A15606   1.925   7.540   4.015 -1.9916 -1.5576  2.3462
  127CHL1  H16B15607   1.934   7.371   4.074  2.2118 -1.4257  0.6781
  127CHL1   C1715608   2.126   7.490   4.085  0.1270 -0.1039  0.2615
  127CHL1   H1715609   2.172   7.402   4.134 -1.2039 -0.5728  0.7228
  127CHL1   C1315610   2.211   7.518   3.957  0.4955  0.5787 -0.1737
  127CHL1   C1815611   2.159   7.644   3.885  0.4418  0.2226 -0.0678
  127CHL1  H18A15612   2.202   7.653   3.783 -1.4344 -1.7465 -1.1211
  127CHL1  H18B15613   2.048   7.640   3.873  0.5135 -0.0637 -0.6611
  127CHL1  H18C15614   2.187   7.739   3.936  0.0078  2.1554 -3.1773
  127CHL1   C1215615   2.367   7.505   3.960 -0.0078 -0.4318  0.1699
  127CHL1  H12A15616   2.407   7.587   4.024 -0.0257  0.0092 -0.3787
  127CHL1  H12B15617   2.391   7.412   4.015  0.1197 -0.5204 -0.0378
  127CHL1   C1115618   2.422   7.493   3.819  0.2942 -1.0230 -0.5282
  127CHL1  H11A15619   2.424   7.592   3.769  0.0579 -0.9457 -0.3899
  127CHL1  H11B15620   2.530   7.474   3.835  0.9529  2.8119  0.4933
  127CHL1    C915621   2.364   7.387   3.728  0.0431  0.4180  0.6054
  127CHL1    H915622   2.388   7.286   3.769 -0.8108  0.0807  0.2957
  127CHL1   C1015623   2.418   7.390   3.578  0.4034 -0.1049 -0.6755
  127CHL1   C1915624   2.402   7.535   3.525  0.6158  0.3444  0.1318
  127CHL1  H19A15625   2.398   7.546   3.414  1.7113 -0.1554  0.0285
  127CHL1  H19B15626   2.313   7.590   3.562 -0.0677  0.8286 -2.0804
  127CHL1  H19C15627   2.487   7.599   3.558  0.8572 -0.7170  1.6603
  127CHL1    C115628   2.567   7.342   3.592 -0.0088 -0.1084  0.0286
  127CHL1   H1A15629   2.616   7.427   3.644 -0.3294 -0.2644  0.5884
  127CHL1   H1B15630   2.579   7.243   3.640  1.0669 -0.0448 -0.0911
  127CHL1    C215631   2.635   7.330   3.454 -0.1499 -0.1743  0.5769
  127CHL1   H2A15632   2.744   7.310   3.453  0.1091  0.9327 -2.4903
  127CHL1   H2B15633   2.621   7.425   3.398  1.8622 -1.2358 -1.9422
  127CHL1   C2015634   2.109   7.597   4.189 -0.2224 -0.0199  0.1389
  127CHL1   H2015635   2.093   7.693   4.136 -1.2941 -1.2230 -1.8517
  127CHL1   C2115636   2.233   7.619   4.280 -1.3568 -0.6208 -0.2141
  127CHL1  H21A15637   2.250   7.536   4.351  0.7668 -1.2425 -1.3596
  127CHL1  H21B15638   2.217   7.716   4.330 -0.8629 -0.8274  0.3540
  127CHL1  H21C15639   2.332   7.622   4.229 -1.3212  1.3579 -0.0901
  127CHL1   C2215640   1.985   7.586   4.283 -0.9083 -0.2902  0.0040
  127CHL1  H22A15641   1.985   7.677   4.346 -0.5233 -1.5607  1.9255
  127CHL1  H22B15642   1.887   7.573   4.231 -1.4526 -1.7273  1.2975
  127CHL1   C2315643   1.982   7.469   4.381 -0.4105 -0.1457  0.3812
  127CHL1  H23A15644   1.885   7.417   4.369 -0.4016 -0.0379 -0.1806
  127CHL1  H23B15645   2.058   7.393   4.352  0.4621  1.3278 -1.4040
  127CHL1   C2415646   2.002   7.495   4.535 -0.4230  0.6611  0.0720
  127CHL1  H24A15647   2.099   7.548   4.550  1.1139 -2.4599  2.0664
  127CHL1  H24B15648   1.923   7.568   4.563 -1.0909  0.7856 -1.9732
  127CHL1   C2515649   1.998   7.373   4.638  0.1436 -0.0522  0.5650
  127CHL1   H2515650   1.901   7.325   4.615  1.3957 -1.6345 -1.9482
  127CHL1   C2615651   2.102   7.259   4.609 -0.3996 -0.3188 -0.2469
  127CHL1  H26A15652   2.200   7.300   4.638 -0.6522 -0.6904  1.1728
  127CHL1  H26B15653   2.083   7.169   4.671 -0.7270 -1.0699 -1.3855
  127CHL1  H26C15654   2.099   7.224   4.503  0.8428 -1.5444  0.0977
  127CHL1   C2715655   2.006   7.436   4.781  0.2094  0.0626 -0.5291
  127CHL1  H27A15656   2.089   7.510   4.784 -0.8937  1.3078  0.2540
  127CHL1  H27B15657   1.922   7.503   4.809  0.7324 -0.4238  2.6012
  127CHL1  H27C15658   2.034   7.362   4.859  3.0257  2.2344  0.6820
  128CHL1    C315659   2.021   2.176   3.451  0.4294 -0.1931  0.2577
  128CHL1    H315660   2.073   2.078   3.456  1.1537  0.0399 -1.7325
  128CHL1    O315661   2.017   2.222   3.314  0.8002  0.3121  0.1701
  128CHL1   H3'15662   1.980   2.310   3.324 -0.9333 -0.3687 -0.0756
  128CHL1    C415663   1.873   2.157   3.499  0.3122 -0.5870 -0.6984
  128CHL1   H4A15664   1.825   2.256   3.481  0.1641 -0.5070  0.1254
  128CHL1   H4B15665   1.824   2.087   3.428  1.1690 -0.5847 -1.3085
  128CHL1    C515666   1.860   2.128   3.646  0.2179  0.2961 -0.5915
  128CHL1    C615667   1.789   2.020   3.689 -0.3977  0.4277 -0.1184
  128CHL1    H615668   1.739   1.952   3.619 -0.3238  0.7837 -0.5224
  128CHL1    C715669   1.764   1.988   3.835  0.1769 -0.2649 -0.8158
  128CHL1   H7A15670   1.661   1.956   3.860  0.4710 -1.2301 -0.7718
  128CHL1   H7B15671   1.830   1.904   3.867  0.6206  1.0038  1.9289
  128CHL1    C815672   1.816   2.099   3.930  0.0080 -0.7924 -0.1455
  128CHL1    H815673   1.737   2.177   3.929  1.1079  0.3666 -1.6288
  128CHL1   C1415674   1.833   2.037   4.068 -0.6701 -0.1985 -0.1441
  128CHL1   H1415675   1.914   1.962   4.059  0.1214  0.8017 -1.7851
  128CHL1   C1515676   1.710   1.970   4.135  0.3116 -0.2269  0.1058
  128CHL1  H15A15677   1.618   2.027   4.109 -0.2613 -1.3347 -0.3872
  128CHL1  H15B15678   1.701   1.862   4.109  1.0535 -0.3284  0.2462
  128CHL1   C1615679   1.754   1.968   4.282 -0.1226  1.0350  0.6007
  128CHL1  H16A15680   1.668   2.023   4.327  1.6865  2.4998  2.5077
  128CHL1  H16B15681   1.768   1.866   4.324  1.5466  0.7482 -0.5311
  128CHL1   C1715682   1.881   2.051   4.298 -0.1113 -1.2168 -0.1783
  128CHL1   H1715683   1.973   1.988   4.294  0.4429 -0.3971 -0.6162
  128CHL1   C1315684   1.885   2.136   4.174 -0.4901  0.0218 -0.2802
  128CHL1   C1815685   1.777   2.246   4.192  0.1173  0.2558  0.7112
  128CHL1  H18A15686   1.763   2.292   4.092 -2.2416 -1.1006  0.3661
  128CHL1  H18B15687   1.679   2.206   4.223 -0.1967  1.4261  1.2734
  128CHL1  H18C15688   1.807   2.324   4.265 -1.7506  0.2007  1.5915
  128CHL1   C1215689   2.022   2.181   4.115 -0.0898 -0.0992 -0.2142
  128CHL1  H12A15690   2.080   2.237   4.192 -0.0286 -0.2350 -0.1608
  128CHL1  H12B15691   2.085   2.090   4.102 -1.3939 -0.9499 -0.7968
  128CHL1   C1115692   1.998   2.253   3.987  0.3830  0.2251 -0.7243
  128CHL1  H11A15693   1.933   2.343   3.984  1.0634  0.7112 -1.1578
  128CHL1  H11B15694   2.096   2.292   3.951  1.0633 -0.0901  0.7363
  128CHL1    C915695   1.948   2.158   3.878  0.3749  0.1578 -0.0766
  128CHL1    H915696   2.026   2.079   3.880  0.0559 -0.1651  2.2133
  128CHL1   C1015697   1.941   2.222   3.740 -0.3143  0.5543 -0.5633
  128CHL1   C1915698   1.867   2.359   3.739 -0.4223 -0.0699 -0.6112
  128CHL1  H19A15699   1.845   2.396   3.636 -1.0634  0.0912 -0.4194
  128CHL1  H19B15700   1.772   2.354   3.796 -0.1705 -2.5203 -0.2975
  128CHL1  H19C15701   1.936   2.429   3.791  2.2326 -3.7489  1.3278
  128CHL1    C115702   2.087   2.230   3.686  0.3366 -0.7784  0.0836
  128CHL1   H1A15703   2.147   2.303   3.745  1.5339 -0.2426 -1.6876
  128CHL1   H1B15704   2.141   2.133   3.692 -1.4211 -1.9292 -1.5964
  128CHL1    C215705   2.107   2.275   3.537  1.2309  0.4822 -0.1519
  128CHL1   H2A15706   2.216   2.280   3.515  0.8566  0.7431 -2.2216
  128CHL1   H2B15707   2.055   2.372   3.525 -0.7493 -0.2534  1.9415
  128CHL1   C2015708   1.885   2.127   4.436 -0.3861  0.1713  0.3317
  128CHL1   H2015709   1.798   2.195   4.447 -1.8117 -1.0489 -2.5223
  128CHL1   C2115710   2.016   2.210   4.446 -0.4766  0.0610  0.4046
  128CHL1  H21A15711   2.003   2.308   4.396 -0.4998  1.8307  3.6098
  128CHL1  H21B15712   2.103   2.156   4.402 -1.1227 -0.9047  0.2812
  128CHL1  H21C15713   2.037   2.241   4.551  1.5511 -0.0779  0.0861
  128CHL1   C2215714   1.862   2.024   4.556 -0.2182  0.5431 -0.1589
  128CHL1  H22A15715   1.760   1.983   4.541 -0.6684  2.4405 -2.9249
  128CHL1  H22B15716   1.937   1.944   4.537  0.9612  1.4956  0.3938
  128CHL1   C2315717   1.884   2.080   4.698  0.0695 -0.0689 -0.4346
  128CHL1  H23A15718   1.988   2.118   4.697 -0.2670  0.8736 -1.0983
  128CHL1  H23B15719   1.821   2.172   4.705 -1.1435 -0.9762  1.1635
  128CHL1   C2415720   1.861   1.978   4.805  0.3508  0.2802  0.4588
  128CHL1  H24A15721   1.764   1.927   4.786  1.2587 -1.8709  1.3497
  128CHL1  H24B15722   1.933   1.896   4.786 -3.0407 -2.3787 -2.3597
  128CHL1   C2515723   1.853   2.030   4.952  0.3195  0.1377  0.1922
  128CHL1   H2515724   1.784   2.117   4.945 -0.3793 -0.5022 -1.3057
  128CHL1   C2615725   1.806   1.916   5.047  0.6694  0.5629  0.0573
  128CHL1  H26A15726   1.780   1.953   5.149  2.6505 -2.0995  1.6664
  128CHL1  H26B15727   1.716   1.860   5.013  0.5459 -0.7138  2.2606
  128CHL1  H26C15728   1.887   1.843   5.068  0.2061  0.3809  1.3073
  128CHL1   C2715729   1.994   2.072   4.981  0.2822  0.1131 -0.8030
  128CHL1  H27A15730   2.012   2.118   5.080  1.2297 -0.3126 -0.7666
  128CHL1  H27B15731   2.060   1.983   4.973 -0.8610 -0.7747 -0.6792
  128CHL1  H27C15732   2.034   2.152   4.915 -0.4999  0.8707 -0.3829
  129CHL1    C315733   4.889   6.752   3.831  0.4711  0.1472 -0.0349
  129CHL1    H315734   4.995   6.728   3.858  0.4101 -0.7673 -0.5932
  129CHL1    O315735   4.883   6.827   3.714 -0.0124  0.1638 -0.2032
  129CHL1   H3'15736   4.797   6.821   3.670  0.1330  2.5692 -0.9753
  129CHL1    C415737   4.817   6.612   3.808  0.6171 -0.1024  1.2858
  129CHL1   H4A15738   4.722   6.643   3.760  1.9214 -0.0772 -1.5066
  129CHL1   H4B15739   4.861   6.560   3.720 -1.8311  1.0471 -0.7352
  129CHL1    C515740   4.778   6.519   3.923  0.2927 -0.1655  0.0625
  129CHL1    C615741   4.811   6.390   3.932 -0.1459  0.2104 -0.4512
  129CHL1    H615742   4.856   6.348   3.841 -2.0504 -0.3338 -1.1945
  129CHL1    C715743   4.772   6.298   4.042 -0.1774 -0.0065  0.2485
  129CHL1   H7A15744   4.713   6.212   4.003 -0.6617 -0.2206  1.3926
  129CHL1   H7B15745   4.867   6.274   4.094 -0.0753 -2.3888 -0.9014
  129CHL1    C815746   4.673   6.368   4.143  0.2999 -0.1429  0.4414
  129CHL1    H815747   4.573   6.363   4.095 -0.3806 -1.3155  1.9182
  129CHL1   C1415748   4.660   6.284   4.265  0.1723 -0.2766 -0.4741
  129CHL1   H1415749   4.762   6.270   4.306  1.5159  0.4731 -3.3380
  129CHL1   C1515750   4.626   6.134   4.254  0.3785 -0.2231 -0.5293
  129CHL1  H15A15751   4.542   6.129   4.183  1.9115 -1.9727 -2.3297
  129CHL1  H15B15752   4.719   6.086   4.217  0.6634 -0.2602  0.2108
  129CHL1   C1615753   4.587   6.090   4.391  0.8262  0.4096  0.6603
  129CHL1  H16A15754   4.489   6.038   4.392  0.4730  1.0694  0.6888
  129CHL1  H16B15755   4.669   6.027   4.431  1.6939  0.3291 -1.1596
  129CHL1   C1715756   4.577   6.221   4.478  0.2006  0.0605 -0.1442
  129CHL1   H1715757   4.677   6.231   4.525  0.4200 -0.7851 -0.4229
  129CHL1   C1315758   4.570   6.344   4.375  0.4775  0.3603 -0.1614
  129CHL1   C1815759   4.426   6.370   4.323  0.6461  0.3024 -0.6690
  129CHL1  H18A15760   4.420   6.436   4.234 -1.5676 -0.1822 -0.9327
  129CHL1  H18B15761   4.382   6.273   4.291  1.2279 -1.3045  2.8968
  129CHL1  H18C15762   4.365   6.421   4.401 -0.3593 -0.9848 -0.5907
  129CHL1   C1215763   4.632   6.482   4.418  0.3470 -0.2875  0.0348
  129CHL1  H12A15764   4.563   6.541   4.481 -1.2809 -0.6577 -1.3184
  129CHL1  H12B15765   4.732   6.461   4.460  0.1457  1.1920  1.3330
  129CHL1   C1115766   4.644   6.577   4.295  0.1422  0.7929  0.2230
  129CHL1  H11A15767   4.543   6.620   4.276 -0.0888  0.0904 -0.1736
  129CHL1  H11B15768   4.709   6.658   4.334  1.7367 -0.9274  1.2939
  129CHL1    C915769   4.715   6.511   4.173  0.4159 -0.1710  0.1480
  129CHL1    H915770   4.821   6.506   4.204  0.5130 -1.3226 -0.3333
  129CHL1   C1015771   4.718   6.597   4.041  0.1983  0.2323  0.1458
  129CHL1   C1915772   4.566   6.629   3.997  0.3557 -0.8447  0.4926
  129CHL1  H19A15773   4.511   6.698   4.065 -0.1276 -0.4568 -0.2791
  129CHL1  H19B15774   4.574   6.678   3.898 -0.4266 -2.2668 -0.2923
  129CHL1  H19C15775   4.503   6.541   3.975 -1.9365  1.4401 -3.2660
  129CHL1    C115776   4.800   6.731   4.059 -0.3895  0.2584 -0.3251
  129CHL1   H1A15777   4.739   6.781   4.138  1.5973  0.0071  1.4391
  129CHL1   H1B15778   4.898   6.710   4.107 -0.0079 -0.5400 -1.4316
  129CHL1    C215779   4.817   6.827   3.938 -0.0204  0.7614 -0.4585
  129CHL1   H2A15780   4.878   6.918   3.959  1.3921 -0.3779  0.5165
  129CHL1   H2B15781   4.717   6.862   3.904 -0.5073 -2.1436 -2.3381
  129CHL1   C2015782   4.471   6.208   4.578 -0.3024  0.4160 -0.0375
  129CHL1   H2015783   4.373   6.214   4.527 -0.0805  4.9848 -0.3272
  129CHL1   C2115784   4.468   6.323   4.673 -0.7855  0.3573 -0.2419
  129CHL1  H21A15785   4.449   6.419   4.620 -2.7263 -0.2835 -0.7687
  129CHL1  H21B15786   4.564   6.326   4.729  0.0139 -0.6048 -1.5163
  129CHL1  H21C15787   4.380   6.313   4.740 -0.4117  0.2711  0.2424
  129CHL1   C2215788   4.484   6.072   4.665  0.2461  0.1590  0.4093
  129CHL1  H22A15789   4.417   6.094   4.750  0.3948 -0.2370  0.6319
  129CHL1  H22B15790   4.442   5.994   4.598  1.1353 -0.0626  0.0895
  129CHL1   C2315791   4.627   6.038   4.716 -0.7127 -0.1015 -0.2551
  129CHL1  H23A15792   4.712   6.074   4.654  0.8005 -1.4170  0.9507
  129CHL1  H23B15793   4.632   6.096   4.811  1.8370 -1.1216  0.3091
  129CHL1   C2415794   4.648   5.893   4.756  0.3313  0.2472  0.6872
  129CHL1  H24A15795   4.579   5.856   4.835  1.9234 -1.6355  1.2977
  129CHL1  H24B15796   4.626   5.835   4.664  0.0854  3.3012 -1.3177
  129CHL1   C2515797   4.795   5.864   4.801 -0.4635 -0.8488  0.1362
  129CHL1   H2515798   4.859   5.855   4.711  0.4607  1.7484  0.4595
  129CHL1   C2615799   4.848   5.963   4.908 -0.3358 -0.3798 -0.2815
  129CHL1  H26A15800   4.940   5.926   4.959 -0.7828  0.8959  1.5303
  129CHL1  H26B15801   4.874   6.065   4.873 -0.6453  0.6781  2.3793
  129CHL1  H26C15802   4.768   5.965   4.984  0.7819 -0.2553  0.9369
  129CHL1   C2715803   4.800   5.725   4.868  0.0444  0.6831 -0.0440
  129CHL1  H27A15804   4.898   5.709   4.916 -1.3653 -1.2687  2.3962
  129CHL1  H27B15805   4.725   5.721   4.950  0.9888  1.2630  0.8756
  129CHL1  H27C15806   4.781   5.651   4.788  3.0524  0.0965 -0.3141
  130CHL1    C315807   2.481   6.214   3.577 -0.4053 -0.7161  0.5671
  130CHL1    H315808   2.559   6.144   3.614  1.5006  0.5480 -0.8518
  130CHL1    O315809   2.516   6.242   3.438  0.2589 -0.1805 -0.6553
  130CHL1   H3'15810   2.439   6.293   3.411 -0.4505 -1.0052 -0.2436
  130CHL1    C415811   2.341   6.150   3.587 -0.1036  1.0015  0.1890
  130CHL1   H4A15812   2.262   6.204   3.531 -2.6109  1.9292  4.2045
  130CHL1   H4B15813   2.348   6.053   3.533  0.1638 -0.0607  2.0440
  130CHL1    C515814   2.298   6.131   3.727 -0.6922  0.0269 -0.7624
  130CHL1    C615815   2.250   6.016   3.775  0.9653 -0.5968 -0.2482
  130CHL1    H615816   2.251   5.925   3.714 -1.7323 -1.2364  0.5256
  130CHL1    C715817   2.198   5.987   3.915 -0.3145  0.2362 -0.1114
  130CHL1   H7A15818   2.096   5.945   3.904  0.9379 -2.7934 -1.1151
  130CHL1   H7B15819   2.259   5.905   3.958  2.5485  0.7865 -2.7698
  130CHL1    C815820   2.193   6.116   4.001  0.3257  0.6022 -0.2158
  130CHL1    H815821   2.091   6.151   3.973 -0.0238 -1.4422 -1.7179
  130CHL1   C1415822   2.202   6.073   4.147 -0.0975  0.2251 -0.7049
  130CHL1   H1415823   2.305   6.036   4.165  0.2260  1.2213 -0.4687
  130CHL1   C1515824   2.120   5.951   4.198  0.1677 -0.4463  0.3882
  130CHL1  H15A15825   2.022   5.959   4.146  1.1017  1.2202 -1.2737
  130CHL1  H15B15826   2.176   5.856   4.186 -0.3848 -0.7324  0.0506
  130CHL1   C1615827   2.107   5.973   4.353 -0.3147 -0.5604  0.2356
  130CHL1  H16A15828   2.001   5.995   4.375 -0.1007 -0.6083  1.3774
  130CHL1  H16B15829   2.154   5.892   4.412  1.2815 -0.6425 -1.0553
  130CHL1   C1715830   2.194   6.102   4.384 -0.0104  0.3681  0.3641
  130CHL1   H1715831   2.297   6.060   4.389 -0.0436 -0.2408 -2.2452
  130CHL1   C1315832   2.181   6.181   4.250 -0.6902 -0.8285 -0.1180
  130CHL1   C1815833   2.040   6.236   4.240  0.1335 -0.2858  0.3676
  130CHL1  H18A15834   2.019   6.280   4.140 -0.6475 -4.1992 -1.4127
  130CHL1  H18B15835   1.960   6.159   4.251  1.4292 -1.5028  1.8230
  130CHL1  H18C15836   2.018   6.304   4.324 -1.2382 -0.3092  0.0437
  130CHL1   C1215837   2.280   6.297   4.227  0.3117  0.6680 -0.2421
  130CHL1  H12A15838   2.233   6.378   4.287 -0.6261 -0.4198  0.5484
  130CHL1  H12B15839   2.386   6.275   4.251  0.5055  1.6418 -0.1443
  130CHL1   C1115840   2.278   6.338   4.072  0.3201  0.6477 -0.3209
  130CHL1  H11A15841   2.184   6.395   4.058 -0.5044 -0.6201 -0.1257
  130CHL1  H11B15842   2.357   6.415   4.057  0.8532  0.3382  0.8182
  130CHL1    C915843   2.300   6.220   3.977 -0.2894  0.5104  0.9534
  130CHL1    H915844   2.395   6.168   4.003 -1.0660 -0.2408  2.4187
  130CHL1   C1015845   2.316   6.259   3.822 -0.1561  0.1165 -0.0690
  130CHL1   C1915846   2.198   6.355   3.789  0.0691 -0.2514  0.0203
  130CHL1  H19A15847   2.203   6.447   3.851  2.1140  1.1210 -2.0082
  130CHL1  H19B15848   2.203   6.381   3.681  0.8503  0.9203  0.3157
  130CHL1  H19C15849   2.104   6.297   3.800  1.3142 -2.7510 -1.4930
  130CHL1    C115850   2.450   6.329   3.796 -0.3998 -0.2039 -0.3216
  130CHL1   H1A15851   2.433   6.430   3.839 -0.2464 -0.5810  0.6476
  130CHL1   H1B15852   2.527   6.274   3.854  0.2546 -0.1605 -1.1275
  130CHL1    C215853   2.488   6.345   3.648  1.1272 -0.0812  0.1179
  130CHL1   H2A15854   2.590   6.387   3.639  0.4742  1.7872  0.8855
  130CHL1   H2B15855   2.409   6.406   3.598  1.2503  1.1903  1.3927
  130CHL1   C2015856   2.159   6.167   4.519  0.2172  0.1117  0.0097
  130CHL1   H2015857   2.053   6.200   4.512  0.2718  0.1400 -0.7718
  130CHL1   C2115858   2.255   6.288   4.533 -0.4699  0.1570  0.0588
  130CHL1  H21A15859   2.277   6.320   4.637 -1.8433  0.9512  0.1368
  130CHL1  H21B15860   2.190   6.368   4.491 -0.6745  0.0127  0.1015
  130CHL1  H21C15861   2.348   6.279   4.472 -0.4727  0.4574  0.0095
  130CHL1   C2215862   2.162   6.072   4.639 -0.0729  0.1134  0.3467
  130CHL1  H22A15863   2.116   5.975   4.610  1.0307 -1.0437  2.2564
  130CHL1  H22B15864   2.262   6.056   4.683 -0.7728 -0.1006  1.9415
  130CHL1   C2315865   2.068   6.118   4.751 -0.0730  0.3267  0.3757
  130CHL1  H23A15866   2.089   6.218   4.793  0.3028  0.6472 -0.5739
  130CHL1  H23B15867   1.967   6.131   4.708  0.8231  2.9982 -1.1164
  130CHL1   C2415868   2.066   6.016   4.864  0.8375  0.1076 -0.4522
  130CHL1  H24A15869   2.035   5.916   4.826 -1.8229  1.0221 -0.9431
  130CHL1  H24B15870   2.167   6.007   4.909  0.2408 -1.6437  0.6631
  130CHL1   C2515871   1.973   6.069   4.981 -1.0445  0.5652  0.9510
  130CHL1   H2515872   2.012   6.165   5.018  2.1031 -0.3859  0.3982
  130CHL1   C2615873   1.826   6.077   4.943  0.5285  0.6937  0.1383
  130CHL1  H26A15874   1.771   6.125   5.026 -1.2438  2.3805 -1.9013
  130CHL1  H26B15875   1.817   6.142   4.853  1.0743 -1.2407 -1.3659
  130CHL1  H26C15876   1.795   5.971   4.933 -0.2790  0.8969  0.4969
  130CHL1   C2715877   1.991   5.961   5.094 -0.1658  0.4366 -0.2247
  130CHL1  H27A15878   1.922   5.987   5.176 -1.3953 -1.0006 -0.7606
  130CHL1  H27B15879   1.946   5.865   5.063  1.4605 -1.1280  1.9861
  130CHL1  H27C15880   2.098   5.948   5.121 -0.2060 -2.9685 -1.2835
  131CHL1    C315881   1.717   4.611   4.022 -0.3509  0.3864 -0.6755
  131CHL1    H315882   1.746   4.505   4.008 -1.1732 -0.0307  0.5808
  131CHL1    O315883   1.704   4.649   3.889 -0.5174 -0.2386 -0.6709
  131CHL1   H3'15884   1.738   4.739   3.888  0.0248 -0.4177 -2.8183
  131CHL1    C415885   1.583   4.609   4.103 -0.5888 -0.2160  0.2129
  131CHL1   H4A15886   1.545   4.713   4.101  2.0491  0.8630  1.6649
  131CHL1   H4B15887   1.524   4.538   4.040 -0.5867 -0.7597  0.8170
  131CHL1    C515888   1.599   4.561   4.244 -0.7449  0.0737  0.8734
  131CHL1    C615889   1.529   4.452   4.288 -0.1849 -0.2167 -0.5381
  131CHL1    H615890   1.463   4.397   4.219 -0.1792 -0.5188 -0.3064
  131CHL1    C715891   1.539   4.403   4.430  0.0835 -0.2090 -0.0902
  131CHL1   H7A15892   1.438   4.397   4.475  0.8684 -1.2186  1.6519
  131CHL1   H7B15893   1.572   4.297   4.433 -0.9541 -0.6347 -2.1367
  131CHL1    C815894   1.621   4.486   4.527 -0.1059 -1.1297  0.8002
  131CHL1    H815895   1.566   4.570   4.575  1.2122  0.3896 -0.2082
  131CHL1   C1415896   1.680   4.400   4.637 -0.0864  0.1109  0.0955
  131CHL1   H1415897   1.750   4.329   4.588 -1.7575 -1.4287 -0.2024
  131CHL1   C1515898   1.582   4.319   4.720  0.9814 -0.2628 -0.2324
  131CHL1  H15A15899   1.492   4.382   4.738  1.1751  0.5916 -2.0403
  131CHL1  H15B15900   1.547   4.233   4.658 -0.6714 -1.0537  1.6908
  131CHL1   C1615901   1.649   4.277   4.849  0.3795  0.5253 -0.7391
  131CHL1  H16A15902   1.578   4.301   4.932 -0.2351 -2.4834 -0.2791
  131CHL1  H16B15903   1.667   4.168   4.854  0.7851  0.6450  1.0812
  131CHL1   C1715904   1.784   4.351   4.847  0.2622  0.0979 -0.2339
  131CHL1   H1715905   1.864   4.285   4.807 -0.6357 -1.0359 -0.1947
  131CHL1   C1315906   1.762   4.467   4.740  0.3459  0.0840 -0.4738
  131CHL1   C1815907   1.678   4.580   4.814  0.5935  0.6389 -0.1886
  131CHL1  H18A15908   1.590   4.540   4.870 -0.4111  0.5231 -1.7747
  131CHL1  H18B15909   1.742   4.642   4.879 -0.2843  2.4478 -0.9681
  131CHL1  H18C15910   1.639   4.653   4.739  0.0953  0.4052 -0.1639
  131CHL1   C1215911   1.888   4.525   4.669  0.6024  0.3802  0.4805
  131CHL1  H12A15912   1.955   4.578   4.740 -0.0547  0.8979  0.7201
  131CHL1  H12B15913   1.946   4.435   4.638  1.7333  0.9406  0.9127
  131CHL1   C1115914   1.838   4.616   4.555 -0.2301 -0.2940  0.1550
  131CHL1  H11A15915   1.793   4.699   4.614  0.8864  0.3883  0.0706
  131CHL1  H11B15916   1.925   4.662   4.503 -0.4067 -0.9500 -0.7437
  131CHL1    C915917   1.741   4.546   4.453 -0.1862 -0.2233 -0.8516
  131CHL1    H915918   1.793   4.454   4.422  0.5560 -0.2106  0.3109
  131CHL1   C1015919   1.706   4.631   4.329 -0.0400  0.0101  0.2327
  131CHL1   C1915920   1.659   4.765   4.381  0.1025 -0.3454 -0.6900
  131CHL1  H19A15921   1.571   4.769   4.448 -0.2610  1.3551 -1.2265
  131CHL1  H19B15922   1.742   4.829   4.418 -1.4220  1.5207 -0.3363
  131CHL1  H19C15923   1.632   4.819   4.288  0.8208  1.6295  0.2067
  131CHL1    C115924   1.833   4.639   4.243  0.2438  0.2078  0.7810
  131CHL1   H1A15925   1.903   4.708   4.296 -0.5403  3.1141 -1.6908
  131CHL1   H1B15926   1.892   4.545   4.240 -0.1120 -0.0518  1.7105
  131CHL1    C215927   1.817   4.693   4.097  0.3993  0.2734  0.1887
  131CHL1   H2A15928   1.913   4.693   4.041  0.7629 -1.1089  0.7743
  131CHL1   H2B15929   1.776   4.797   4.100  0.6287  0.3654  0.1770
  131CHL1   C2015930   1.840   4.379   4.986  0.1493  0.9651  0.6637
  131CHL1   H2015931   1.753   4.422   5.039  0.4393  1.0757  1.0523
  131CHL1   C2115932   1.966   4.469   4.983 -0.3781 -0.2926 -1.0395
  131CHL1  H21A15933   2.000   4.488   5.087 -1.5367 -0.7210 -0.5650
  131CHL1  H21B15934   1.931   4.564   4.936 -1.1165  1.4257  2.6567
  131CHL1  H21C15935   2.054   4.434   4.925  1.4146  3.2016 -0.7216
  131CHL1   C2215936   1.865   4.241   5.066  0.1072 -0.6491 -0.3282
  131CHL1  H22A15937   1.764   4.201   5.093 -0.7649  0.9669 -1.0491
  131CHL1  H22B15938   1.925   4.174   5.001  1.0253 -1.2870  1.1304
  131CHL1   C2315939   1.957   4.247   5.186 -0.3948 -0.8123 -0.1930
  131CHL1  H23A15940   2.060   4.284   5.168 -0.2725 -0.0228  1.9260
  131CHL1  H23B15941   1.913   4.330   5.245 -0.8309  0.8382 -2.6550
  131CHL1   C2415942   1.966   4.114   5.257  0.2410  0.1089 -0.5473
  131CHL1  H24A15943   1.868   4.088   5.301  1.4570  0.5298  2.6694
  131CHL1  H24B15944   1.999   4.044   5.178  0.8566  0.0645 -0.2517
  131CHL1   C2515945   2.072   4.117   5.363  0.5608  0.0467  0.3953
  131CHL1   H2515946   2.170   4.141   5.316 -0.4080  1.9954 -0.7334
  131CHL1   C2615947   2.045   4.236   5.461 -0.5449  0.8063 -0.0881
  131CHL1  H26A15948   2.054   4.335   5.411 -0.4765 -0.5012 -2.8064
  131CHL1  H26B15949   1.939   4.234   5.494 -0.8201  3.4388 -0.5867
  131CHL1  H26C15950   2.120   4.224   5.543  1.2811 -3.1171 -2.0637
  131CHL1   C2715951   2.086   3.988   5.442 -0.0929 -0.4671  0.0743
  131CHL1  H27A15952   2.099   3.908   5.365  0.5538 -0.3490  0.0562
  131CHL1  H27B15953   2.167   3.988   5.518 -1.0081 -0.3337  1.0684
  131CHL1  H27C15954   1.992   3.963   5.496  0.7140  1.7285  2.7022
  132CHL1    C315955   3.502   1.275   3.292  0.2039  0.3661 -0.0456
  132CHL1    H315956   3.427   1.352   3.319 -1.6120 -0.6582 -1.9897
  132CHL1    O315957   3.568   1.316   3.169  0.0249 -0.1637  0.0732
  132CHL1   H3'15958   3.536   1.403   3.145 -1.1425 -1.0697 -1.9287
  132CHL1    C415959   3.604   1.280   3.398  0.2347  0.2193 -0.1752
  132CHL1   H4A15960   3.684   1.213   3.361  0.3856 -0.5432  1.4357
  132CHL1   H4B15961   3.652   1.380   3.403 -1.3223  1.0400 -0.8354
  132CHL1    C515962   3.554   1.229   3.532 -0.5715  0.1380  0.4765
  132CHL1    C615963   3.584   1.301   3.642 -0.0530  0.4028  0.7317
  132CHL1    H615964   3.651   1.387   3.625  1.5103 -0.4467  2.1793
  132CHL1    C715965   3.552   1.255   3.779 -0.0535  0.3214  0.1281
  132CHL1   H7A15966   3.632   1.276   3.853  1.2128 -1.8124 -0.5497
  132CHL1   H7B15967   3.467   1.317   3.813  0.1745  2.0619 -2.2290
  132CHL1    C815968   3.508   1.104   3.792 -0.0064  0.3580  0.2288
  132CHL1    H815969   3.604   1.049   3.790 -0.4831 -0.4947  0.1937
  132CHL1   C1415970   3.431   1.079   3.914 -0.1699 -0.0273  0.0378
  132CHL1   H1415971   3.346   1.150   3.908  0.4593  0.8275  1.0828
  132CHL1   C1515972   3.499   1.128   4.047 -0.0047  0.1187 -0.0243
  132CHL1  H15A15973   3.607   1.100   4.043  0.2670  1.1211  0.1002
  132CHL1  H15B15974   3.496   1.239   4.044  1.4326  0.1556 -1.6162
  132CHL1   C1615975   3.424   1.055   4.158 -0.4732 -0.3413 -0.0989
  132CHL1  H16A15976   3.500   0.999   4.217  0.3318  0.0192 -0.7595
  132CHL1  H16B15977   3.374   1.128   4.225  0.0463 -0.8124  0.8313
  132CHL1   C1715978   3.322   0.963   4.087 -0.6380 -0.4213  0.3312
  132CHL1   H1715979   3.233   1.028   4.071 -0.3832  0.2248  1.4343
  132CHL1   C1315980   3.378   0.940   3.939  0.5213 -0.5724  0.4293
  132CHL1   C1815981   3.496   0.838   3.941  0.1347  0.0103  0.1798
  132CHL1  H18A15982   3.545   0.832   3.841  0.5785  0.7249  0.3478
  132CHL1  H18B15983   3.568   0.864   4.021  0.7106  2.5378 -1.0371
  132CHL1  H18C15984   3.444   0.741   3.957 -2.4519  0.8462 -2.1758
  132CHL1   C1215985   3.273   0.904   3.830  0.3822 -0.3659  0.4718
  132CHL1  H12A15986   3.250   0.797   3.849 -1.2948 -0.2005 -0.4100
  132CHL1  H12B15987   3.183   0.970   3.834  0.7320  0.2081 -0.7022
  132CHL1   C1115988   3.345   0.927   3.691  0.0066 -0.0211 -0.5853
  132CHL1  H11A15989   3.411   0.838   3.684  0.2315  0.1197 -0.2621
  132CHL1  H11B15990   3.265   0.923   3.614  0.0659  1.0299 -0.7189
  132CHL1    C915991   3.411   1.068   3.675 -0.6675 -0.2968  0.1100
  132CHL1    H915992   3.339   1.152   3.679  0.8039  0.9984  0.9368
  132CHL1   C1015993   3.486   1.094   3.539  0.1710  0.2767 -0.0924
  132CHL1   C1915994   3.590   0.979   3.521  0.4104 -0.4676 -0.0635
  132CHL1  H19A15995   3.546   0.878   3.512 -1.6723  0.2400  1.4293
  132CHL1  H19B15996   3.650   1.002   3.430  2.7835 -3.3485  0.5987
  132CHL1  H19C15997   3.666   0.973   3.601  0.2763 -0.0509  0.0981
  132CHL1    C115998   3.388   1.091   3.421 -0.1651 -0.1305 -0.8472
  132CHL1   H1A15999   3.358   0.984   3.413 -1.6981  0.0115  1.7197
  132CHL1   H1B16000   3.303   1.158   3.445  0.1732 -0.3261  1.0416
  132CHL1    C216001   3.446   1.133   3.280  0.3757 -0.4086  0.4416
  132CHL1   H2A16002   3.358   1.133   3.211 -0.8543 -0.5100  1.9421
  132CHL1   H2B16003   3.524   1.062   3.247  0.9938  0.0979  0.7991
  132CHL1   C2016004   3.280   0.852   4.179 -0.9091  0.2358 -0.2559
  132CHL1   H2016005   3.371   0.799   4.214 -0.5828  1.0531  0.1695
  132CHL1   C2116006   3.182   0.754   4.110  0.4070 -0.4722  0.3788
  132CHL1  H21A16007   3.101   0.816   4.067  0.0964 -0.6976  0.6428
  132CHL1  H21B16008   3.134   0.686   4.183  0.9096  0.0313  1.2036
  132CHL1  H21C16009   3.228   0.692   4.030 -0.7166  1.5822 -1.9939
  132CHL1   C2216010   3.198   0.907   4.300  1.0500 -0.2239  0.0893
  132CHL1  H22A16011   3.240   1.002   4.340  2.2873 -0.8428  0.2918
  132CHL1  H22B16012   3.092   0.922   4.269  0.8109 -0.7538  0.6296
  132CHL1   C2316013   3.193   0.806   4.418 -0.4456  0.1573  0.5931
  132CHL1  H23A16014   3.153   0.708   4.383 -2.0699  0.7174  0.8347
  132CHL1  H23B16015   3.297   0.787   4.454 -0.2924 -2.2021 -0.8770
  132CHL1   C2416016   3.104   0.858   4.527 -0.3673 -0.4571  0.2406
  132CHL1  H24A16017   3.117   0.969   4.532 -1.6141 -0.3105  0.5295
  132CHL1  H24B16018   2.996   0.841   4.510 -0.4062 -0.7116  0.7267
  132CHL1   C2516019   3.136   0.795   4.667  0.4042  0.6291 -0.3965
  132CHL1   H2516020   3.240   0.819   4.698  0.7231 -1.6100  0.4713
  132CHL1   C2616021   3.043   0.854   4.786  0.3255 -0.1423  0.9403
  132CHL1  H26A16022   3.045   0.966   4.785 -0.2092 -0.1336  0.0638
  132CHL1  H26B16023   2.935   0.829   4.780  0.1806  0.7328 -0.5664
  132CHL1  H26C16024   3.083   0.820   4.884 -0.0175 -2.7771  0.2241
  132CHL1   C2716025   3.127   0.639   4.666 -0.4165  0.1637  0.2706
  132CHL1  H27A16026   3.196   0.597   4.590 -2.1959 -2.6972  0.0765
  132CHL1  H27B16027   3.143   0.599   4.768  3.1398 -1.3028 -0.7190
  132CHL1  H27C16028   3.030   0.602   4.625  0.3818 -3.0262  1.0203
  133CHL1    C316029   1.368   1.710   3.484 -0.8848  0.4062 -0.3295
  133CHL1    H316030   1.259   1.727   3.500 -1.6237 -4.0647  0.9732
  133CHL1    O316031   1.409   1.709   3.347  0.1557 -0.6136  0.1818
  133CHL1   H3'16032   1.353   1.643   3.304 -0.6567 -0.2481  0.6498
  133CHL1    C416033   1.458   1.808   3.561  0.2176  0.1483  0.4825
  133CHL1   H4A16034   1.561   1.770   3.547 -0.4886 -1.3532 -1.0116
  133CHL1   H4B16035   1.455   1.910   3.516 -0.6852  0.4085  1.1005
  133CHL1    C516036   1.439   1.808   3.706  0.1339  0.7667  0.2447
  133CHL1    C616037   1.390   1.918   3.762 -0.5463  0.2675 -0.5667
  133CHL1    H616038   1.357   2.004   3.702  0.9107 -0.6533 -2.8385
  133CHL1    C716039   1.358   1.932   3.908  0.8024  0.2503  0.5167
  133CHL1   H7A16040   1.401   2.022   3.957  0.4170 -0.2966  1.9041
  133CHL1   H7B16041   1.250   1.948   3.926  0.6831 -2.0292  2.4650
  133CHL1    C816042   1.407   1.806   3.990  0.6327 -0.3642 -0.3178
  133CHL1    H816043   1.511   1.811   4.028  0.5512 -2.6863  0.3444
  133CHL1   C1416044   1.325   1.794   4.118  0.5381  0.6933  0.2355
  133CHL1   H1416045   1.223   1.770   4.083  1.7531 -1.9675 -1.7854
  133CHL1   C1516046   1.296   1.912   4.214 -0.6070  0.7211 -0.3502
  133CHL1  H15A16047   1.389   1.972   4.226  1.2699 -1.8328 -1.2741
  133CHL1  H15B16048   1.222   1.979   4.167 -2.0762 -1.7546 -1.7765
  133CHL1   C1616049   1.248   1.843   4.346  0.3452 -0.0674  0.2445
  133CHL1  H16A16050   1.322   1.862   4.427  0.7345  0.6296 -0.2643
  133CHL1  H16B16051   1.144   1.874   4.371 -0.3196 -0.9304 -1.3010
  133CHL1   C1716052   1.249   1.688   4.321  0.2716  0.0924 -0.3418
  133CHL1   H1716053   1.152   1.668   4.269  0.3063 -1.0183 -0.0075
  133CHL1   C1316054   1.358   1.668   4.208  0.0143 -0.9785  0.0846
  133CHL1   C1816055   1.501   1.664   4.256  0.3136 -0.0145  0.3806
  133CHL1  H18A16056   1.575   1.683   4.175  0.8580  1.9624  1.2712
  133CHL1  H18B16057   1.519   1.741   4.334 -4.0420  1.3877  0.2323
  133CHL1  H18C16058   1.530   1.562   4.290  0.8222 -0.0825 -0.2327
  133CHL1   C1216059   1.336   1.537   4.127  0.1909 -0.0863  0.1809
  133CHL1  H12A16060   1.349   1.441   4.182  0.7342  0.1918  0.5539
  133CHL1  H12B16061   1.227   1.528   4.107  0.5906 -1.5683 -1.5277
  133CHL1   C1116062   1.420   1.546   3.998 -0.0874 -0.3526  0.3342
  133CHL1  H11A16063   1.527   1.525   4.019 -0.2631 -1.3867  0.2496
  133CHL1  H11B16064   1.396   1.458   3.934 -1.1285  1.3196 -1.7388
  133CHL1    C916065   1.398   1.674   3.912  0.0652  0.1457 -0.1966
  133CHL1    H916066   1.289   1.674   3.892 -0.1229 -2.9787  0.2018
  133CHL1   C1016067   1.461   1.672   3.770 -0.7158 -0.0690 -0.5037
  133CHL1   C1916068   1.614   1.643   3.786 -0.0733 -0.1167 -0.0561
  133CHL1  H19A16069   1.660   1.719   3.852  1.0613 -1.1484  0.3640
  133CHL1  H19B16070   1.617   1.542   3.832 -0.3752 -0.3687 -0.5825
  133CHL1  H19C16071   1.657   1.649   3.684 -0.9691 -0.7389 -0.4854
  133CHL1    C116072   1.389   1.558   3.687  0.6414 -0.7742  0.1795
  133CHL1   H1A16073   1.427   1.457   3.711 -2.5585 -2.2635 -0.3956
  133CHL1   H1B16074   1.284   1.563   3.723 -0.0837  2.8853 -1.9126
  133CHL1    C216075   1.397   1.570   3.539 -0.2374 -0.1223  0.2997
  133CHL1   H2A16076   1.321   1.501   3.496  0.4570 -0.4462 -0.4297
  133CHL1   H2B16077   1.497   1.529   3.516  0.1685  0.8243  0.3325
  133CHL1   C2016078   1.255   1.586   4.437  0.2059  0.4904 -0.3029
  133CHL1   H2016079   1.303   1.496   4.393  1.2099  1.5970 -1.5514
  133CHL1   C2116080   1.118   1.560   4.484  0.1718 -0.3177  0.7091
  133CHL1  H21A16081   1.106   1.529   4.590 -1.8431  0.1228  0.6512
  133CHL1  H21B16082   1.070   1.478   4.427  1.2946  0.6360 -1.7586
  133CHL1  H21C16083   1.064   1.656   4.467  1.1237  0.1080  0.0362
  133CHL1   C2216084   1.347   1.625   4.551 -0.9608 -0.2193 -0.0632
  133CHL1  H22A16085   1.436   1.670   4.503 -2.0006  0.9710 -0.9698
  133CHL1  H22B16086   1.305   1.708   4.612 -1.8709  0.1814 -1.1887
  133CHL1   C2316087   1.389   1.514   4.646 -0.0988  0.1601 -0.9756
  133CHL1  H23A16088   1.448   1.572   4.721  1.5587 -0.2403 -1.9027
  133CHL1  H23B16089   1.305   1.467   4.700 -0.6843  1.0969 -1.0562
  133CHL1   C2416090   1.465   1.402   4.587 -0.1679 -0.5307 -0.0046
  133CHL1  H24A16091   1.399   1.337   4.525 -1.4736  0.7967 -0.0641
  133CHL1  H24B16092   1.548   1.437   4.522  0.8741  0.0770  1.6011
  133CHL1   C2516093   1.537   1.311   4.693  0.5436  0.6526  0.6507
  133CHL1   H2516094   1.460   1.270   4.761 -2.0110  1.7813 -1.3660
  133CHL1   C2616095   1.611   1.184   4.623 -0.3173 -0.2538  0.4888
  133CHL1  H26A16096   1.560   1.117   4.551  0.6352 -0.1289 -0.3266
  133CHL1  H26B16097   1.687   1.242   4.566 -1.4991  0.0125 -0.8869
  133CHL1  H26C16098   1.673   1.123   4.692  1.3720 -1.7655 -2.1785
  133CHL1   C2716099   1.644   1.371   4.779 -0.5496 -0.0744  0.3118
  133CHL1  H27A16100   1.725   1.399   4.708 -1.2573 -0.2394 -0.5687
  133CHL1  H27B16101   1.618   1.473   4.814  2.5009  0.9010  0.0363
  133CHL1  H27C16102   1.682   1.301   4.856  1.0952  0.3088 -0.0997
  134CHL1    C316103   0.638   1.076   3.162  0.2912 -0.5794  0.4223
  134CHL1    H316104   0.542   1.129   3.143  1.3216  1.8175  1.5010
  134CHL1    O316105   0.626   0.971   3.074 -0.0410  0.2616 -0.1545
  134CHL1   H3'16106   0.696   0.907   3.080 -0.1535  0.1448 -0.0735
  134CHL1    C416107   0.764   1.154   3.120 -0.0784  0.0513 -0.2036
  134CHL1   H4A16108   0.861   1.098   3.115 -0.2058 -0.2028  0.0873
  134CHL1   H4B16109   0.739   1.197   3.021  1.0633  1.0342 -0.0837
  134CHL1    C516110   0.766   1.272   3.223  0.2362  0.5020  0.3353
  134CHL1    C616111   0.749   1.400   3.190  1.1377 -0.0883  0.5113
  134CHL1    H616112   0.743   1.423   3.082  0.3566  1.1269  0.7925
  134CHL1    C716113   0.751   1.510   3.291 -0.5981  0.0881 -0.1698
  134CHL1   H7A16114   0.812   1.593   3.247  1.6947 -0.7935  1.1877
  134CHL1   H7B16115   0.646   1.540   3.307 -0.9649  0.2247 -2.4674
  134CHL1    C816116   0.815   1.477   3.425 -0.9958  0.9765  0.2742
  134CHL1    H816117   0.923   1.452   3.415 -1.2277 -1.6068  2.7186
  134CHL1   C1416118   0.782   1.576   3.526  0.4562 -0.1004 -0.1677
  134CHL1   H1416119   0.672   1.583   3.535  0.3543 -2.8478  2.4432
  134CHL1   C1516120   0.826   1.721   3.493 -0.0141  0.1388  0.1653
  134CHL1  H15A16121   0.936   1.723   3.474 -0.0645  2.7135 -0.2016
  134CHL1  H15B16122   0.770   1.771   3.411  1.1882  0.4131 -0.5141
  134CHL1   C1616123   0.814   1.798   3.622 -0.7801  0.0577 -0.4346
  134CHL1  H16A16124   0.911   1.853   3.632  0.5549 -1.9750 -1.5393
  134CHL1  H16B16125   0.733   1.874   3.627 -1.4037 -0.6565  0.5648
  134CHL1   C1716126   0.798   1.687   3.737 -1.1934 -0.2627  0.3442
  134CHL1   H1716127   0.690   1.685   3.760 -1.1018 -2.7237  0.8161
  134CHL1   C1316128   0.835   1.559   3.664 -0.1415 -0.7660 -0.7133
  134CHL1   C1816129   0.989   1.547   3.670  0.0963  0.2275 -0.1550
  134CHL1  H18A16130   1.017   1.466   3.600 -0.8135  0.5614 -0.9388
  134CHL1  H18B16131   1.035   1.640   3.630  0.1864  0.0088 -0.5658
  134CHL1  H18C16132   1.031   1.532   3.772  2.3681 -1.8972 -1.3080
  134CHL1   C1216133   0.771   1.436   3.718  0.3950 -0.2116  0.5688
  134CHL1  H12A16134   0.803   1.393   3.815  1.0794 -0.5211  0.2158
  134CHL1  H12B16135   0.662   1.456   3.720  0.1940 -0.6360 -2.2296
  134CHL1   C1116136   0.801   1.314   3.619 -0.6449 -0.4423  0.3173
  134CHL1  H11A16137   0.909   1.287   3.620 -0.2030  1.2055  1.0062
  134CHL1  H11B16138   0.751   1.228   3.668 -0.5219  0.1314  1.4797
  134CHL1    C916139   0.749   1.341   3.474 -0.3696  0.2503 -0.3232
  134CHL1    H916140   0.640   1.354   3.488 -0.0079  0.8094  3.0212
  134CHL1   C1016141   0.778   1.226   3.373 -0.7857  0.7136  0.0508
  134CHL1   C1916142   0.925   1.175   3.390  0.2947 -0.9792 -0.4156
  134CHL1  H19A16143   0.953   1.103   3.310  0.5322 -0.6532 -0.6239
  134CHL1  H19B16144   0.999   1.257   3.384 -0.0811 -0.6323 -0.3467
  134CHL1  H19C16145   0.926   1.118   3.485 -1.4361  1.7625  1.3801
  134CHL1    C116146   0.673   1.113   3.401  0.2464 -0.2718  0.2027
  134CHL1   H1A16147   0.691   1.052   3.492 -0.4112  0.5809  0.9247
  134CHL1   H1B16148   0.580   1.169   3.421 -0.8858 -1.6756 -0.9137
  134CHL1    C216149   0.653   1.007   3.293  0.0927 -1.1563  0.0155
  134CHL1   H2A16150   0.562   0.951   3.321 -1.8822  1.0143 -1.7235
  134CHL1   H2B16151   0.734   0.931   3.282  1.8780  0.8080 -1.5604
  134CHL1   C2016152   0.871   1.718   3.869  0.0765 -0.1427  0.0050
  134CHL1   H2016153   0.981   1.722   3.852  0.0985  1.9022  0.3492
  134CHL1   C2116154   0.837   1.616   3.977  0.1833 -0.8401  0.3180
  134CHL1  H21A16155   0.868   1.653   4.078 -0.9447  2.5399 -0.4558
  134CHL1  H21B16156   0.899   1.526   3.956  3.2172  1.0791  0.3200
  134CHL1  H21C16157   0.728   1.599   3.971 -0.0965  0.7861  0.3363
  134CHL1   C2216158   0.826   1.854   3.925 -0.2815 -0.0736  0.4101
  134CHL1  H22A16159   0.838   1.938   3.854  1.6334  1.0317  1.9407
  134CHL1  H22B16160   0.720   1.837   3.955  0.3928 -4.6466  0.9746
  134CHL1   C2316161   0.895   1.909   4.047 -0.6331 -0.2368  0.1208
  134CHL1  H23A16162   0.913   1.831   4.125 -1.0130 -0.6545 -0.1998
  134CHL1  H23B16163   0.997   1.932   4.009 -1.0538  1.5438  0.0168
  134CHL1   C2416164   0.823   2.031   4.105 -0.0507  0.4547  0.0132
  134CHL1  H24A16165   0.817   2.117   4.036  1.5939  1.0203  0.5231
  134CHL1  H24B16166   0.721   2.003   4.139  0.5698 -2.0970 -0.0349
  134CHL1   C2516167   0.881   2.084   4.242 -0.7125 -0.4190  0.5033
  134CHL1   H2516168   0.991   2.081   4.249 -0.7837 -1.1347  1.6288
  134CHL1   C2616169   0.852   2.236   4.263 -0.3172 -0.3269 -0.2702
  134CHL1  H26A16170   0.913   2.302   4.197 -1.7022  1.9003  0.5673
  134CHL1  H26B16171   0.745   2.250   4.234 -0.0130  0.4646 -1.0765
  134CHL1  H26C16172   0.872   2.274   4.365 -1.8555 -1.8605  0.6379
  134CHL1   C2716173   0.827   1.995   4.349 -0.3495 -0.8765 -0.1762
  134CHL1  H27A16174   0.858   1.892   4.321 -0.6994 -0.6533 -1.4357
  134CHL1  H27B16175   0.859   2.005   4.455 -1.6189 -1.3316  0.2765
  134CHL1  H27C16176   0.716   1.989   4.357 -0.3812  0.1553  0.3466
  135CHL1    C316177   0.360   2.599   3.111  0.1442  0.1259 -0.0696
  135CHL1    H316178   0.443   2.544   3.159  0.3936  0.5472 -0.0077
  135CHL1    O316179   0.406   2.636   2.981 -0.2688  0.0702  0.1847
  135CHL1   H3'16180   0.320   2.647   2.940 -0.2653  1.8598  0.5665
  135CHL1    C416181   0.236   2.507   3.100 -0.0773 -0.5721 -0.1458
  135CHL1   H4A16182   0.153   2.554   3.043 -0.7759 -1.9250 -0.2896
  135CHL1   H4B16183   0.270   2.423   3.036 -0.7859 -0.9208 -0.0727
  135CHL1    C516184   0.174   2.456   3.228 -0.3064 -0.5785 -0.3183
  135CHL1    C616185   0.170   2.327   3.254 -0.1354  0.1245  0.4240
  135CHL1    H616186   0.202   2.258   3.174 -1.2877 -1.3566  1.1901
  135CHL1    C716187   0.115   2.266   3.378 -0.3176  0.0844 -0.2008
  135CHL1   H7A16188   0.026   2.202   3.367 -0.0603 -0.5049  1.0055
  135CHL1   H7B16189   0.186   2.200   3.431 -0.9563 -0.6882 -0.3054
  135CHL1    C816190   0.062   2.378   3.477  0.0510  0.0881  0.0955
  135CHL1    H816191  -0.040   2.409   3.446  0.7763  2.4344 -0.1432
  135CHL1   C1416192   0.057   2.324   3.619  0.0394  0.1906 -0.8427
  135CHL1   H1416193   0.162   2.309   3.651  0.4319 -2.9008 -3.1421
  135CHL1   C1516194   0.001   2.186   3.639 -0.4713 -0.1946  0.4541
  135CHL1  H15A16195  -0.090   2.179   3.576  1.1618 -1.0666 -1.9748
  135CHL1  H15B16196   0.077   2.112   3.607  0.7460  0.0029  2.6915
  135CHL1   C1616197  -0.018   2.187   3.794 -0.4649  0.4880 -0.4799
  135CHL1  H16A16198  -0.121   2.145   3.801 -0.0785 -0.9501 -2.4743
  135CHL1  H16B16199   0.054   2.118   3.840 -1.7604  0.1368  1.1108
  135CHL1   C1716200  -0.004   2.327   3.846 -0.6339  0.0450 -0.1699
  135CHL1   H1716201   0.099   2.350   3.880 -0.9576  2.0116 -0.3599
  135CHL1   C1316202  -0.020   2.421   3.719 -0.1354  1.2835  0.7370
  135CHL1   C1816203  -0.168   2.430   3.687  0.3030  0.4645  1.0013
  135CHL1  H18A16204  -0.207   2.331   3.716  2.1065 -0.6209 -0.1048
  135CHL1  H18B16205  -0.216   2.515   3.740 -0.6098 -1.0664  2.7270
  135CHL1  H18C16206  -0.198   2.443   3.580  0.2743 -1.1392  0.7969
  135CHL1   C1216207   0.053   2.556   3.722  0.9249 -0.1885  0.0982
  135CHL1  H12A16208   0.002   2.624   3.793  2.0816  1.3174 -0.4459
  135CHL1  H12B16209   0.150   2.547   3.775 -0.0598 -1.7455  1.7693
  135CHL1   C1116210   0.066   2.618   3.580  0.5199  0.1822  0.4923
  135CHL1  H11A16211  -0.038   2.643   3.549  0.4651  0.2065  0.6932
  135CHL1  H11B16212   0.127   2.711   3.577  0.5109  0.1866  0.4304
  135CHL1    C916213   0.134   2.520   3.473 -0.0660 -0.3677  0.0805
  135CHL1    H916214   0.233   2.487   3.511  1.1543  2.1725 -0.6401
  135CHL1   C1016215   0.151   2.573   3.329 -0.9563  0.1901 -0.1077
  135CHL1   C1916216   0.028   2.648   3.278  0.0462  0.0400  0.4923
  135CHL1  H19A16217  -0.064   2.587   3.290 -0.5951 -0.0255 -3.4229
  135CHL1  H19B16218   0.022   2.744   3.333 -0.3470  0.1487  0.2623
  135CHL1  H19C16219   0.028   2.670   3.169 -0.2362  3.1950  1.0607
  135CHL1    C116220   0.274   2.674   3.332  0.8539 -0.1973 -0.4635
  135CHL1   H1A16221   0.240   2.769   3.377  2.1052  0.2664 -0.4500
  135CHL1   H1B16222   0.359   2.636   3.393  0.2091 -0.9648 -0.0280
  135CHL1    C216223   0.321   2.721   3.193  0.7086 -0.1191 -0.7217
  135CHL1   H2A16224   0.415   2.776   3.215  1.0865 -1.7816  2.3494
  135CHL1   H2B16225   0.250   2.784   3.134  0.5135  0.0191 -0.3399
  135CHL1   C2016226  -0.104   2.351   3.963 -0.4892  0.0438  0.4482
  135CHL1   H2016227  -0.208   2.345   3.923 -0.2983  0.3693 -0.1119
  135CHL1   C2116228  -0.092   2.491   4.020 -0.5967 -0.9442 -0.2434
  135CHL1  H21A16229  -0.143   2.498   4.118  2.4712  1.6932  1.3558
  135CHL1  H21B16230  -0.126   2.572   3.952  0.9572 -0.4122 -0.4227
  135CHL1  H21C16231   0.015   2.515   4.039 -0.1352 -2.2153 -1.0966
  135CHL1   C2216232  -0.080   2.236   4.073 -0.2266 -0.2397 -0.6273
  135CHL1  H22A16233  -0.053   2.135   4.034 -2.1022 -1.0859  0.1209
  135CHL1  H22B16234   0.003   2.282   4.131 -0.6628 -0.9079  0.5654
  135CHL1   C2316235  -0.188   2.227   4.181 -0.3218  0.5000 -0.7552
  135CHL1  H23A16236  -0.187   2.326   4.230  1.0933 -1.1814  2.9602
  135CHL1  H23B16237  -0.292   2.198   4.152 -0.9496 -0.8640  2.3819
  135CHL1   C2416238  -0.152   2.128   4.295 -0.1581  0.3129 -0.0025
  135CHL1  H24A16239  -0.137   2.027   4.251 -1.0559 -0.6558  1.7893
  135CHL1  H24B16240  -0.058   2.170   4.337 -1.8513  5.0262 -0.2691
  135CHL1   C2516241  -0.254   2.124   4.410 -0.2900  0.2700 -0.1678
  135CHL1   H2516242  -0.355   2.146   4.367  0.3881  1.2255 -1.3383
  135CHL1   C2616243  -0.248   1.986   4.477  0.7016 -0.0581  0.1727
  135CHL1  H26A16244  -0.279   1.905   4.407 -0.3858  0.4849  0.0016
  135CHL1  H26B16245  -0.150   1.965   4.526  0.6606  1.1721  0.8183
  135CHL1  H26C16246  -0.319   1.984   4.563 -0.1281 -0.2199 -0.5008
  135CHL1   C2716247  -0.224   2.226   4.523 -0.3554  0.6469  0.2756
  135CHL1  H27A16248  -0.200   2.325   4.479  0.0595  0.9226  1.0923
  135CHL1  H27B16249  -0.309   2.232   4.595 -0.0919  1.5975  0.5196
  135CHL1  H27C16250  -0.138   2.194   4.586  0.1393 -0.0098 -0.7118
  136CHL1    C316251   5.402   1.687   3.595  0.2707  0.3293  0.2935
  136CHL1    H316252   5.510   1.702   3.614  0.1635  2.4647 -0.5181
  136CHL1    O316253   5.382   1.652   3.460 -0.1392  0.5389  0.1943
  136CHL1   H3'16254   5.445   1.582   3.443  1.8200  2.4066 -0.7251
  136CHL1    C416255   5.359   1.574   3.687  0.2312  0.4816  0.0235
  136CHL1   H4A16256   5.254   1.543   3.669 -0.2121 -0.3506  3.4661
  136CHL1   H4B16257   5.414   1.486   3.648  1.5521 -0.4504  3.5842
  136CHL1    C516258   5.395   1.589   3.836  0.5611  0.3211 -0.6708
  136CHL1    C616259   5.477   1.517   3.910 -0.9450  0.2003  0.1598
  136CHL1    H616260   5.537   1.438   3.863 -1.9251  1.2752 -3.2307
  136CHL1    C716261   5.512   1.545   4.056 -0.5172  0.3036 -0.2623
  136CHL1   H7A16262   5.538   1.453   4.113  1.5487 -0.1051 -1.7485
  136CHL1   H7B16263   5.605   1.605   4.049 -2.1777  3.3315  1.2963
  136CHL1    C816264   5.397   1.630   4.122 -0.1019  0.0823  0.5474
  136CHL1    H816265   5.308   1.564   4.130 -0.2892  0.1512 -0.7256
  136CHL1   C1416266   5.429   1.672   4.268  0.0542  0.2156  0.0009
  136CHL1   H1416267   5.524   1.727   4.254  0.8834 -1.2138 -0.1399
  136CHL1   C1516268   5.464   1.557   4.363 -0.0877 -0.0591 -0.0256
  136CHL1  H15A16269   5.390   1.474   4.367 -0.4168  0.2315  0.0022
  136CHL1  H15B16270   5.564   1.521   4.333 -0.1864 -0.5980  0.2828
  136CHL1   C1616271   5.471   1.636   4.497  0.2791 -0.2550 -0.6254
  136CHL1  H16A16272   5.411   1.584   4.575 -0.5200 -0.1166 -1.1471
  136CHL1  H16B16273   5.572   1.616   4.539  0.8840 -2.4084 -2.8908
  136CHL1   C1716274   5.411   1.779   4.470 -0.3094  0.4576 -0.5045
  136CHL1   H1716275   5.498   1.844   4.448  0.2663 -1.0555 -3.1293
  136CHL1   C1316276   5.328   1.762   4.340 -0.4208 -0.4086 -0.4251
  136CHL1   C1816277   5.191   1.692   4.364 -0.2581 -0.1311  0.1435
  136CHL1  H18A16278   5.205   1.598   4.422 -2.3105  0.1244  1.1674
  136CHL1  H18B16279   5.123   1.751   4.430 -0.7658 -0.4103 -0.1258
  136CHL1  H18C16280   5.132   1.669   4.273  0.5044 -0.6122 -0.2339
  136CHL1   C1216281   5.312   1.890   4.254  0.2839 -0.9634 -0.6597
  136CHL1  H12A16282   5.228   1.948   4.297  1.6739 -0.5496  1.6865
  136CHL1  H12B16283   5.406   1.949   4.254 -0.3067  0.1001  1.5352
  136CHL1   C1116284   5.277   1.864   4.110  0.2126  0.3246  0.6334
  136CHL1  H11A16285   5.169   1.838   4.107  0.2819 -0.1439  1.6616
  136CHL1  H11B16286   5.287   1.957   4.050 -0.4968 -0.3128 -0.4991
  136CHL1    C916287   5.363   1.751   4.037  0.3376 -0.4513 -0.0800
  136CHL1    H916288   5.459   1.802   4.016 -1.5820  2.8738 -1.4856
  136CHL1   C1016289   5.319   1.712   3.890 -0.0285 -0.3040  0.1753
  136CHL1   C1916290   5.164   1.693   3.894  0.2806  0.3054  0.5289
  136CHL1  H19A16291   5.112   1.786   3.927  0.6416  0.9670 -0.7018
  136CHL1  H19B16292   5.118   1.680   3.794  0.0774 -0.2861  0.6996
  136CHL1  H19C16293   5.134   1.601   3.949 -0.6555 -0.5244 -1.2767
  136CHL1    C116294   5.353   1.835   3.795  0.3152 -0.3855  0.1599
  136CHL1   H1A16295   5.281   1.916   3.819  1.8010  0.5027  1.9213
  136CHL1   H1B16296   5.458   1.872   3.803 -0.2297  1.5113 -0.8096
  136CHL1    C216297   5.335   1.813   3.641 -0.3590  0.3117  0.2138
  136CHL1   H2A16298   5.376   1.906   3.597  0.6309  0.0266  0.5134
  136CHL1   H2B16299   5.227   1.802   3.615  0.5098 -2.4940 -2.8171
  136CHL1   C2016300   5.331   1.832   4.589 -0.3664 -0.1895 -0.4941
  136CHL1   H2016301   5.246   1.763   4.611  0.2218 -0.7723 -0.0445
  136CHL1   C2116302   5.277   1.978   4.559 -0.3725 -0.1936  0.2396
  136CHL1  H21A16303   5.204   1.975   4.475  0.3478  0.2182 -0.4102
  136CHL1  H21B16304   5.360   2.038   4.516 -1.2445  1.7048  1.0741
  136CHL1  H21C16305   5.227   2.033   4.642 -0.8281  0.8564 -0.6934
  136CHL1   C2216306   5.424   1.839   4.713  0.6556 -0.1907  1.1284
  136CHL1  H22A16307   5.495   1.755   4.722  1.0058 -0.1709 -1.0043
  136CHL1  H22B16308   5.491   1.926   4.695  0.3677  0.2004  1.8702
  136CHL1   C2316309   5.350   1.855   4.845 -0.2148  0.0103  0.1019
  136CHL1  H23A16310   5.269   1.930   4.836 -1.1061 -0.8484  0.6987
  136CHL1  H23B16311   5.302   1.757   4.867  1.3344 -0.8701 -0.2883
  136CHL1   C2416312   5.438   1.892   4.964 -0.0979 -0.3430  0.4033
  136CHL1  H24A16313   5.526   1.827   4.945 -1.0965 -1.0912 -2.1940
  136CHL1  H24B16314   5.480   1.995   4.954 -0.6516 -0.2753 -2.1571
  136CHL1   C2516315   5.369   1.868   5.102 -0.7802  0.0301 -0.2906
  136CHL1   H2516316   5.329   1.765   5.105 -0.1864 -0.1848  1.0764
  136CHL1   C2616317   5.480   1.896   5.202  0.2336 -0.6615 -0.3810
  136CHL1  H26A16318   5.438   1.890   5.304  1.4595 -0.8922  0.1382
  136CHL1  H26B16319   5.559   1.817   5.193 -0.8503 -1.6061 -2.2245
  136CHL1  H26C16320   5.522   1.996   5.180  1.4300 -1.2286 -0.8095
  136CHL1   C2716321   5.250   1.964   5.123  0.2020  0.1250  0.3833
  136CHL1  H27A16322   5.199   1.936   5.217 -0.5876 -1.0074 -0.3631
  136CHL1  H27B16323   5.271   2.073   5.120 -0.2982  0.2085 -0.6561
  136CHL1  H27C16324   5.166   1.948   5.052 -0.8821  1.6827  1.2571
  137CHL1    C316325   1.867   1.412   3.045 -0.1574  0.6656  0.6244
  137CHL1    H316326   1.910   1.504   3.090  0.5265 -1.0262  3.6746
  137CHL1    O316327   1.869   1.423   2.901 -0.2293  0.0245 -0.4265
  137CHL1   H3'16328   1.904   1.509   2.877  0.3937 -0.6255 -2.0132
  137CHL1    C416329   1.953   1.296   3.088  0.2751 -0.1039  1.0934
  137CHL1   H4A16330   1.916   1.203   3.039  0.0062  0.8367 -0.5498
  137CHL1   H4B16331   2.059   1.316   3.062  0.0696  0.3964  0.6308
  137CHL1    C516332   1.944   1.263   3.238 -0.3150 -0.6827 -0.5568
  137CHL1    C616333   2.056   1.251   3.315 -0.3622 -0.2730  0.3066
  137CHL1    H616334   2.158   1.255   3.276 -1.0541  3.4418 -1.6113
  137CHL1    C716335   2.045   1.233   3.464  0.1779  0.7202 -0.4204
  137CHL1   H7A16336   2.112   1.153   3.500 -0.9759  0.8181  2.1558
  137CHL1   H7B16337   2.080   1.327   3.512  1.5685 -0.5783  1.2284
  137CHL1    C816338   1.908   1.190   3.516  0.2048 -0.3931 -0.5805
  137CHL1    H816339   1.883   1.082   3.509  1.2406 -0.6107 -1.1447
  137CHL1   C1416340   1.898   1.220   3.668  0.1203  0.2482  0.6801
  137CHL1   H1416341   1.911   1.330   3.673  3.3321 -0.0373  0.8220
  137CHL1   C1516342   2.004   1.161   3.758 -0.0873  0.5085 -0.1258
  137CHL1  H15A16343   2.007   1.052   3.735 -2.4736  0.4662 -0.5485
  137CHL1  H15B16344   2.099   1.214   3.737  0.6052 -1.2771 -1.8452
  137CHL1   C1616345   1.944   1.171   3.894 -0.0861  0.1184  0.6366
  137CHL1  H16A16346   1.951   1.067   3.933  0.6617  0.7556  2.2998
  137CHL1  H16B16347   1.993   1.227   3.976  0.3519 -2.1743  2.0441
  137CHL1   C1716348   1.800   1.209   3.880  0.6484  0.4934  0.9025
  137CHL1   H1716349   1.786   1.318   3.894  0.5082  0.4844  0.8387
  137CHL1   C1316350   1.761   1.187   3.730 -0.3480  0.1393  0.1737
  137CHL1   C1816351   1.713   1.034   3.718 -0.1001 -0.7014 -0.1788
  137CHL1  H18A16352   1.700   0.989   3.618 -0.1997 -2.9465  0.7891
  137CHL1  H18B16353   1.781   0.964   3.772  0.5964  0.5113  0.5635
  137CHL1  H18C16354   1.616   1.018   3.771 -0.8848  0.1635 -1.3067
  137CHL1   C1216355   1.654   1.278   3.674 -0.7078  0.0696 -0.3666
  137CHL1  H12A16356   1.550   1.263   3.710 -1.2151 -1.1756 -2.1828
  137CHL1  H12B16357   1.684   1.382   3.700  0.6822 -0.7906  1.6896
  137CHL1   C1116358   1.655   1.267   3.518  0.5000 -0.1857 -0.9750
  137CHL1  H11A16359   1.610   1.169   3.490 -1.3298  0.6044 -0.9660
  137CHL1  H11B16360   1.591   1.349   3.478 -0.7109 -0.3842  0.4450
  137CHL1    C916361   1.798   1.277   3.450  0.0258 -0.2865  0.4599
  137CHL1    H916362   1.845   1.374   3.478 -0.0761 -0.3636  0.9034
  137CHL1   C1016363   1.797   1.266   3.296 -0.6064  0.2935  0.7250
  137CHL1   C1916364   1.739   1.127   3.250 -0.1374 -0.3150 -0.2090
  137CHL1  H19A16365   1.745   1.119   3.139  0.4722 -2.4512 -0.0603
  137CHL1  H19B16366   1.785   1.037   3.295 -1.9069 -1.8286 -1.3101
  137CHL1  H19C16367   1.629   1.121   3.263 -0.2783 -0.7579 -1.4258
  137CHL1    C116368   1.705   1.380   3.236 -0.1451 -0.2070 -0.0316
  137CHL1   H1A16369   1.598   1.358   3.254 -0.4146 -1.9264 -3.1420
  137CHL1   H1B16370   1.732   1.470   3.296 -0.6985  0.7032 -1.0923
  137CHL1    C216371   1.720   1.403   3.090 -0.1215  0.0171 -0.3399
  137CHL1   H2A16372   1.647   1.483   3.066 -0.0935 -0.3390 -1.6816
  137CHL1   H2B16373   1.684   1.316   3.032  1.8704  0.3576 -2.2365
  137CHL1   C2016374   1.715   1.137   3.987  0.0329 -0.0553  0.1004
  137CHL1   H2016375   1.720   1.028   3.970  1.5610  0.2379 -1.7219
  137CHL1   C2116376   1.569   1.182   3.981 -0.3121  0.1851  0.0135
  137CHL1  H21A16377   1.560   1.292   3.966  0.7268  0.7454  2.9088
  137CHL1  H21B16378   1.525   1.176   4.082  0.6685  0.5076  0.4799
  137CHL1  H21C16379   1.508   1.125   3.908 -0.4105 -0.5933  0.6934
  137CHL1   C2216380   1.762   1.157   4.129 -0.0642 -0.3374  0.0652
  137CHL1  H22A16381   1.685   1.106   4.191 -2.0430  1.2414 -0.9642
  137CHL1  H22B16382   1.862   1.110   4.137 -0.0430 -0.3910 -0.4854
  137CHL1   C2316383   1.778   1.300   4.180 -0.0944 -0.1139  0.5415
  137CHL1  H23A16384   1.840   1.361   4.111  0.5664 -1.3915 -0.0226
  137CHL1  H23B16385   1.676   1.341   4.195 -0.4487 -0.8715  0.2030
  137CHL1   C2416386   1.834   1.294   4.320  0.1893  0.0588  0.6078
  137CHL1  H24A16387   1.748   1.279   4.389  0.7339  1.1860  1.5651
  137CHL1  H24B16388   1.909   1.215   4.342  1.3866  1.3306  1.2179
  137CHL1   C2516389   1.909   1.420   4.357 -0.0044 -0.2065 -0.3465
  137CHL1   H2516390   1.991   1.439   4.285  1.1169 -1.0241  0.6716
  137CHL1   C2616391   1.820   1.541   4.351 -0.2651  0.0136 -0.2631
  137CHL1  H26A16392   1.883   1.622   4.392  2.0499 -2.0850  0.5575
  137CHL1  H26B16393   1.796   1.567   4.246  1.9214  0.2113 -0.7423
  137CHL1  H26C16394   1.727   1.524   4.411  0.8872 -0.3975  1.4959
  137CHL1   C2716395   1.972   1.405   4.497 -0.2590  0.0224  0.8519
  137CHL1  H27A16396   2.056   1.334   4.483 -0.3313  0.2274 -0.8982
  137CHL1  H27B16397   2.017   1.500   4.533 -1.6890  0.6074  1.1615
  137CHL1  H27C16398   1.909   1.358   4.575  0.8217 -0.8806  1.2163
  138CHL1    C316399   7.353   0.590   3.406  0.6049 -0.5489 -0.0172
  138CHL1    H316400   7.247   0.556   3.414  0.9927 -1.4362  1.9500
  138CHL1    O316401   7.393   0.592   3.267  0.2813 -0.3085 -0.3995
  138CHL1   H3'16402   7.359   0.674   3.231 -0.5084 -0.0479  0.8594
  138CHL1    C416403   7.356   0.737   3.455 -0.4972  1.2048 -0.3088
  138CHL1   H4A16404   7.458   0.778   3.435 -1.0829  3.1694  0.4818
  138CHL1   H4B16405   7.293   0.803   3.392  1.3011  3.3245 -0.0288
  138CHL1    C516406   7.322   0.756   3.603 -0.2674 -0.7210  0.1967
  138CHL1    C616407   7.231   0.847   3.634  0.5050 -0.0834  0.4021
  138CHL1    H616408   7.179   0.914   3.564 -1.0571 -2.2304 -0.5938
  138CHL1    C716409   7.184   0.856   3.774 -0.7788 -0.1085 -0.2796
  138CHL1   H7A16410   7.198   0.964   3.793  1.0182 -0.7746  2.9654
  138CHL1   H7B16411   7.076   0.845   3.797 -0.4258  2.2162  3.1255
  138CHL1    C816412   7.274   0.785   3.876  0.6554 -0.3512 -0.3611
  138CHL1    H816413   7.366   0.846   3.886 -0.9745  2.4972 -1.5798
  138CHL1   C1416414   7.211   0.772   4.016  0.0040  0.0679  0.5331
  138CHL1   H1416415   7.126   0.707   3.988  0.0387  0.1396  0.2648
  138CHL1   C1516416   7.145   0.894   4.075 -0.3898 -0.1228 -0.5342
  138CHL1  H15A16417   7.210   0.984   4.070  0.1479 -0.4476  0.3224
  138CHL1  H15B16418   7.049   0.933   4.035  0.1829  0.4524 -1.3725
  138CHL1   C1616419   7.139   0.851   4.222 -0.2223  0.1776  0.2142
  138CHL1  H16A16420   7.185   0.927   4.288  1.1299 -0.7178  0.3388
  138CHL1  H16B16421   7.036   0.829   4.256 -0.2469 -0.9524 -0.5356
  138CHL1   C1716422   7.202   0.709   4.241 -0.7421 -0.5236  0.3428
  138CHL1   H1716423   7.119   0.637   4.228 -2.4244  1.3911 -0.1353
  138CHL1   C1316424   7.298   0.692   4.122 -0.2253 -0.6926  0.5166
  138CHL1   C1816425   7.437   0.768   4.145  0.5249 -0.2328 -0.2094
  138CHL1  H18A16426   7.496   0.721   4.226  0.5218 -0.3805 -0.2931
  138CHL1  H18B16427   7.507   0.764   4.058 -0.0938  1.9776 -0.8944
  138CHL1  H18C16428   7.415   0.874   4.173  0.9397 -0.8214  2.6238
  138CHL1   C1216429   7.327   0.555   4.070  0.3910 -0.7424 -0.0176
  138CHL1  H12A16430   7.383   0.486   4.136 -0.3464  0.0245  1.4680
  138CHL1  H12B16431   7.230   0.502   4.054 -0.7022  1.2097 -0.2724
  138CHL1   C1116432   7.394   0.558   3.936 -0.2475  0.3286  0.8123
  138CHL1  H11A16433   7.498   0.595   3.947 -0.2574  0.2990  0.9983
  138CHL1  H11B16434   7.406   0.457   3.892 -0.1400  0.3233  0.8542
  138CHL1    C916435   7.314   0.646   3.828  0.0622  0.0814 -0.3223
  138CHL1    H916436   7.224   0.585   3.803  2.1665 -3.1057 -0.7122
  138CHL1   C1016437   7.388   0.650   3.697  0.0844  0.0260  0.7765
  138CHL1   C1916438   7.534   0.704   3.715  0.7900  0.1419 -0.0627
  138CHL1  H19A16439   7.589   0.634   3.781  3.6113  1.1925 -1.1383
  138CHL1  H19B16440   7.585   0.705   3.616  1.2447  0.7214  0.1635
  138CHL1  H19C16441   7.541   0.802   3.767  1.0311 -0.8484  1.8446
  138CHL1    C116442   7.396   0.509   3.636  0.0498  0.0307  0.1981
  138CHL1   H1A16443   7.456   0.439   3.699 -1.1596 -0.5736  0.7351
  138CHL1   H1B16444   7.303   0.447   3.645  1.1987 -1.7975  0.0185
  138CHL1    C216445   7.451   0.504   3.495  0.3425 -0.4606  0.4582
  138CHL1   H2A16446   7.441   0.401   3.454 -0.7383  0.5225 -1.9347
  138CHL1   H2B16447   7.554   0.545   3.487 -0.2208  1.4867  2.2702
  138CHL1   C2016448   7.258   0.700   4.381  0.2379  0.6234 -0.4461
  138CHL1   H2016449   7.350   0.760   4.393 -0.4954  1.8647 -0.8602
  138CHL1   C2116450   7.280   0.544   4.395  0.0863  0.5395  0.1173
  138CHL1  H21A16451   7.299   0.514   4.500  2.8352  1.5650 -0.0158
  138CHL1  H21B16452   7.375   0.508   4.351 -0.5578 -3.6920  1.6903
  138CHL1  H21C16453   7.200   0.488   4.341  2.6573  1.3535 -5.2162
  138CHL1   C2216454   7.168   0.750   4.497 -0.0372  0.1452 -0.2548
  138CHL1  H22A16455   7.147   0.857   4.477  2.5074  0.2989 -2.6938
  138CHL1  H22B16456   7.071   0.698   4.510 -0.9874  1.3425 -2.0341
  138CHL1   C2316457   7.231   0.732   4.636  0.1467  0.1782  0.0367
  138CHL1  H23A16458   7.167   0.786   4.709  1.2687  1.9087 -0.1866
  138CHL1  H23B16459   7.225   0.624   4.664 -3.1422  0.2508 -0.0797
  138CHL1   C2416460   7.381   0.768   4.660  0.2251  0.1391 -0.6987
  138CHL1  H24A16461   7.445   0.701   4.598  0.5161  0.9443 -1.2745
  138CHL1  H24B16462   7.395   0.876   4.644 -0.1594  0.2498 -0.3193
  138CHL1   C2516463   7.417   0.749   4.809  0.3415 -0.2793 -0.4212
  138CHL1   H2516464   7.340   0.795   4.875  2.2869 -1.6054  3.0151
  138CHL1   C2616465   7.442   0.602   4.842  0.5117 -0.0182  0.8918
  138CHL1  H26A16466   7.483   0.590   4.944  0.4429 -0.3641  0.8796
  138CHL1  H26B16467   7.349   0.542   4.833  2.4600 -3.1339 -0.0282
  138CHL1  H26C16468   7.510   0.550   4.771  0.3549 -0.9811  1.4302
  138CHL1   C2716469   7.540   0.832   4.839  0.2012  0.1227  0.1923
  138CHL1  H27A16470   7.625   0.775   4.795 -0.8262 -1.8502  0.6507
  138CHL1  H27B16471   7.532   0.934   4.797  0.3574 -0.3509 -1.0408
  138CHL1  H27C16472   7.549   0.838   4.949  3.0122 -0.9964  0.1127
  139CHL1    C316473   7.391   6.317   3.475 -0.0279  0.2325 -0.4547
  139CHL1    H316474   7.292   6.269   3.490 -0.4147  0.7956 -1.1435
  139CHL1    O316475   7.425   6.307   3.337  0.0800 -0.2082 -0.4289
  139CHL1   H3'16476   7.491   6.369   3.307 -1.6213  0.2989 -3.5544
  139CHL1    C416477   7.382   6.464   3.519  0.7203 -0.3308  0.5162
  139CHL1   H4A16478   7.475   6.518   3.491  1.5423 -0.0809  3.3876
  139CHL1   H4B16479   7.300   6.504   3.456  0.4562  0.4021  1.2967
  139CHL1    C516480   7.363   6.484   3.669  0.7547 -0.9481  0.2539
  139CHL1    C616481   7.254   6.548   3.722 -0.1511 -0.6670  0.0234
  139CHL1    H616482   7.181   6.590   3.650 -0.1859  0.2757  0.5860
  139CHL1    C716483   7.235   6.577   3.865  0.8355  0.0042  0.7708
  139CHL1   H7A16484   7.200   6.680   3.889  0.1605  0.2085 -0.9643
  139CHL1   H7B16485   7.158   6.507   3.903  1.2442 -0.7907  0.1464
  139CHL1    C816486   7.365   6.551   3.947  0.5001  0.0504 -0.5523
  139CHL1    H816487   7.436   6.628   3.912  0.5172  0.6121  0.6809
  139CHL1   C1416488   7.339   6.558   4.098  0.0941  0.3797 -0.0309
  139CHL1   H1416489   7.257   6.487   4.118  0.8933 -1.4424 -2.7278
  139CHL1   C1516490   7.280   6.696   4.148 -0.1885 -0.2210  0.2547
  139CHL1  H15A16491   7.345   6.775   4.104 -1.5246  1.3453  0.9851
  139CHL1  H15B16492   7.171   6.713   4.136 -0.7060 -2.7313  0.8019
  139CHL1   C1616493   7.329   6.687   4.300 -0.3296 -0.8966  0.1387
  139CHL1  H16A16494   7.390   6.777   4.321  0.9987 -1.7270 -0.0586
  139CHL1  H16B16495   7.241   6.669   4.365 -0.1046  0.7366  0.9383
  139CHL1   C1716496   7.420   6.561   4.317  0.4239 -0.2495 -0.1840
  139CHL1   H1716497   7.347   6.479   4.336  0.0812  0.3020  0.9676
  139CHL1   C1316498   7.471   6.533   4.175  0.0840 -0.6005 -0.3840
  139CHL1   C1816499   7.581   6.639   4.137 -0.4667 -0.5180  0.5614
  139CHL1  H18A16500   7.541   6.739   4.165  0.3469 -0.1945  0.6099
  139CHL1  H18B16501   7.670   6.604   4.194 -1.4040  0.4522  2.7326
  139CHL1  H18C16502   7.614   6.648   4.032  0.0740  0.6858  0.8117
  139CHL1   C1216503   7.516   6.386   4.157 -0.6452 -0.2107  0.5569
  139CHL1  H12A16504   7.614   6.361   4.202  1.0497  0.2277 -2.6076
  139CHL1  H12B16505   7.434   6.319   4.192 -0.5571 -0.3261  0.5438
  139CHL1   C1116506   7.543   6.366   4.007  0.1666  0.1437 -0.3059
  139CHL1  H11A16507   7.639   6.413   3.978 -0.3431  0.4304 -1.5882
  139CHL1  H11B16508   7.558   6.257   3.992  0.9748 -0.0708  1.7005
  139CHL1    C916509   7.429   6.414   3.906 -0.6076 -0.0350 -0.7320
  139CHL1    H916510   7.357   6.329   3.908 -0.0914 -0.5155 -1.8791
  139CHL1   C1016511   7.472   6.415   3.757 -0.1188  0.4411  0.6286
  139CHL1   C1916512   7.610   6.482   3.744  0.8765 -1.2049 -0.1266
  139CHL1  H19A16513   7.610   6.579   3.797  0.1834 -2.2114  1.8459
  139CHL1  H19B16514   7.681   6.415   3.796  0.0149 -0.8095  1.6449
  139CHL1  H19C16515   7.645   6.493   3.640  2.8092  1.7896  0.7234
  139CHL1    C116516   7.485   6.269   3.695  0.6863  0.1332  0.1523
  139CHL1   H1A16517   7.569   6.224   3.753  0.2718  2.3214  2.6105
  139CHL1   H1B16518   7.393   6.215   3.725  1.4680 -1.7447 -0.6495
  139CHL1    C216519   7.511   6.256   3.544  0.5751 -0.2871  0.1872
  139CHL1   H2A16520   7.519   6.151   3.508  0.8103  0.8339 -3.4614
  139CHL1   H2B16521   7.599   6.313   3.507  2.9653 -2.3581  2.3420
  139CHL1   C2016522   7.520   6.561   4.435 -0.0475  0.0675 -0.9681
  139CHL1   H2016523   7.590   6.478   4.412  0.2563 -0.1315  0.5796
  139CHL1   C2116524   7.432   6.527   4.554  0.4339 -0.0271 -0.6291
  139CHL1  H21A16525   7.374   6.433   4.538  0.1785 -0.1174  0.6797
  139CHL1  H21B16526   7.353   6.604   4.565 -1.4353 -2.0019  0.7589
  139CHL1  H21C16527   7.478   6.511   4.654 -1.0929  2.2446  0.5161
  139CHL1   C2216528   7.600   6.689   4.469 -0.1724  0.8471  0.5977
  139CHL1  H22A16529   7.625   6.740   4.374  1.2961 -0.1190  0.4301
  139CHL1  H22B16530   7.531   6.758   4.522 -1.2005  0.1552  0.2126
  139CHL1   C2316531   7.727   6.665   4.559  0.3712 -0.5227 -0.2708
  139CHL1  H23A16532   7.704   6.613   4.654 -0.3847  1.3204  0.5978
  139CHL1  H23B16533   7.796   6.596   4.505 -0.4849  0.2673 -2.5117
  139CHL1   C2416534   7.804   6.789   4.581 -0.2180 -0.1484  0.6828
  139CHL1  H24A16535   7.850   6.824   4.486 -0.5926 -0.9317  0.2038
  139CHL1  H24B16536   7.730   6.868   4.608 -2.4700 -2.3503  1.2494
  139CHL1   C2516537   7.920   6.784   4.689 -0.1230  0.2014 -0.0843
  139CHL1   H2516538   7.864   6.799   4.783  3.0419 -0.9105  2.1505
  139CHL1   C2616539   8.003   6.649   4.689 -0.1431  0.0703  0.7840
  139CHL1  H26A16540   8.089   6.646   4.759  1.8408 -0.7870 -1.5601
  139CHL1  H26B16541   7.943   6.557   4.704  1.8234 -1.0508  2.0750
  139CHL1  H26C16542   8.057   6.636   4.593 -0.9104 -3.0914  0.6932
  139CHL1   C2716543   7.999   6.910   4.662  0.3948  0.2019 -0.0018
  139CHL1  H27A16544   7.937   7.000   4.648  0.6786  0.3239 -0.4876
  139CHL1  H27B16545   8.068   6.926   4.748  2.0566 -0.1226 -1.2147
  139CHL1  H27C16546   8.054   6.888   4.568 -1.2665  0.9546 -1.1815
  140CHL1    C316547   6.273   0.307   3.832  0.8113 -0.1429  0.1472
  140CHL1    H316548   6.350   0.237   3.793  0.2546 -0.6166 -0.1168
  140CHL1    O316549   6.195   0.360   3.723 -0.0139  0.0400 -0.2336
  140CHL1   H3'16550   6.125   0.415   3.760  0.9769  0.2805  1.4321
  140CHL1    C416551   6.176   0.232   3.928  0.1306 -0.0461 -0.7575
  140CHL1   H4A16552   6.083   0.289   3.948  0.4519 -0.4877  2.4088
  140CHL1   H4B16553   6.150   0.138   3.874  0.9070 -1.4044  1.1319
  140CHL1    C516554   6.242   0.193   4.059  0.1361 -0.1886  1.1847
  140CHL1    C616555   6.259   0.067   4.092 -0.6175  0.3183  0.1652
  140CHL1    H616556   6.221  -0.019   4.034 -2.8735  0.7966  0.8265
  140CHL1    C716557   6.337   0.022   4.211  0.5012 -0.3227  1.1614
  140CHL1   H7A16558   6.275  -0.060   4.254  0.5077 -0.3468  1.1245
  140CHL1   H7B16559   6.438  -0.015   4.182 -0.0673  0.1391 -1.7050
  140CHL1    C816560   6.338   0.135   4.313  0.1234  0.2529  0.4671
  140CHL1    H816561   6.236   0.150   4.354  0.6198 -0.5698  2.0671
  140CHL1   C1416562   6.422   0.101   4.432 -0.0873 -0.0501 -0.4617
  140CHL1   H1416563   6.526   0.088   4.395  0.4531  2.5471 -0.0755
  140CHL1   C1516564   6.388  -0.024   4.510 -0.6358 -0.6150 -0.5153
  140CHL1  H15A16565   6.280  -0.025   4.537 -1.2017  0.7246 -2.4663
  140CHL1  H15B16566   6.409  -0.117   4.452 -0.4658 -1.4565  0.8624
  140CHL1   C1616567   6.484  -0.012   4.630 -0.1335  0.2181  0.2525
  140CHL1  H16A16568   6.447  -0.075   4.713 -0.1131  1.7354  1.4632
  140CHL1  H16B16569   6.577  -0.060   4.593 -1.4150 -0.8914 -1.6971
  140CHL1   C1716570   6.520   0.135   4.649  0.1285 -1.0282  0.0529
  140CHL1   H1716571   6.623   0.151   4.610 -0.6952  2.9749 -1.0045
  140CHL1   C1316572   6.434   0.212   4.542 -0.0108  0.1663 -0.5764
  140CHL1   C1816573   6.299   0.251   4.610 -0.1798  0.0903  0.4473
  140CHL1  H18A16574   6.231   0.277   4.526  0.7072  1.6667  0.1800
  140CHL1  H18B16575   6.241   0.174   4.665 -1.3588 -0.5760 -1.6003
  140CHL1  H18C16576   6.311   0.339   4.676  1.1822  0.0059  0.3486
  140CHL1   C1216577   6.507   0.326   4.472 -0.5514 -0.2066  0.5852
  140CHL1  H12A16578   6.528   0.410   4.541  0.3748 -0.6288  0.8207
  140CHL1  H12B16579   6.600   0.285   4.429 -1.2626 -0.1252 -1.1185
  140CHL1   C1116580   6.417   0.381   4.355 -0.2635 -0.6522  0.2850
  140CHL1  H11A16581   6.323   0.411   4.404 -0.5528  0.2771 -0.8075
  140CHL1  H11B16582   6.468   0.471   4.316 -1.5443  0.8863  1.9943
  140CHL1    C916583   6.393   0.268   4.250 -0.7059  0.8674 -0.3610
  140CHL1    H916584   6.493   0.250   4.205 -1.0853 -0.6436 -0.6445
  140CHL1   C1016585   6.305   0.314   4.129 -1.2837 -0.2936 -0.2175
  140CHL1   C1916586   6.187   0.407   4.173  0.1039 -0.2064 -0.1679
  140CHL1  H19A16587   6.116   0.361   4.246 -0.3180 -0.3544 -0.6655
  140CHL1  H19B16588   6.228   0.500   4.217 -1.1597 -0.8530  2.6461
  140CHL1  H19C16589   6.133   0.437   4.081 -0.0871 -1.4563 -0.4881
  140CHL1    C116590   6.400   0.400   4.029  0.5213 -0.4292 -0.4787
  140CHL1   H1A16591   6.436   0.490   4.083 -0.9991 -1.4428  2.4427
  140CHL1   H1B16592   6.491   0.340   4.010  0.4904 -1.5131  2.3892
  140CHL1    C216593   6.330   0.429   3.897 -0.5795 -0.5033 -0.1069
  140CHL1   H2A16594   6.400   0.484   3.830  1.3081 -2.9289 -0.2879
  140CHL1   H2B16595   6.251   0.506   3.910 -0.6528 -0.6030  0.0356
  140CHL1   C2016596   6.522   0.185   4.794  0.7283  0.5189 -0.0921
  140CHL1   H2016597   6.419   0.191   4.834  0.8481 -0.9059  0.5035
  140CHL1   C2116598   6.587   0.322   4.798  0.4298  0.6653  0.2133
  140CHL1  H21A16599   6.611   0.355   4.901 -0.4281  1.4911  0.1680
  140CHL1  H21B16600   6.519   0.396   4.751 -0.4946 -0.6694 -0.6230
  140CHL1  H21C16601   6.683   0.313   4.743 -0.1756 -1.6001 -0.5856
  140CHL1   C2216602   6.589   0.090   4.893 -0.0761 -0.3055  0.3167
  140CHL1  H22A16603   6.587   0.141   4.992  0.7597  0.3411  0.0140
  140CHL1  H22B16604   6.532  -0.005   4.898  0.3320 -0.5223  0.9452
  140CHL1   C2316605   6.733   0.043   4.855  0.4970  0.3244  0.1058
  140CHL1  H23A16606   6.731  -0.012   4.759 -0.9118 -1.4865  1.1151
  140CHL1  H23B16607   6.794   0.135   4.844 -0.1385  0.4576 -3.2062
  140CHL1   C2416608   6.789  -0.056   4.963  0.3610  0.5310  0.7573
  140CHL1  H24A16609   6.771   0.002   5.056 -0.2074  0.3718  0.7504
  140CHL1  H24B16610   6.724  -0.146   4.961 -1.6410  1.9231 -0.5791
  140CHL1   C2516611   6.940  -0.083   4.943  0.9208 -1.1369 -0.1050
  140CHL1   H2516612   6.960  -0.076   4.834 -1.5267  0.8926 -0.5185
  140CHL1   C2616613   6.979  -0.219   4.997 -0.8345 -0.8364  0.1755
  140CHL1  H26A16614   6.920  -0.304   4.955  1.1090 -2.1426 -0.0651
  140CHL1  H26B16615   7.083  -0.242   4.964 -0.6580 -1.9106  1.3866
  140CHL1  H26C16616   6.988  -0.225   5.108  1.2581 -0.2784  0.0863
  140CHL1   C2716617   7.038   0.020   5.003 -0.1461  0.0782 -0.2250
  140CHL1  H27A16618   7.142  -0.018   4.986 -0.5193 -0.2392 -1.9786
  140CHL1  H27B16619   7.030   0.120   4.955 -1.5647 -0.5939 -1.4840
  140CHL1  H27C16620   7.013   0.033   5.110 -0.6654 -0.9740 -0.2116
  141DOPC     N16621   4.407   2.376   7.645 -0.3345  0.7523  0.6279
  141DOPC   C1216622   4.336   2.382   7.508  0.2581 -0.1041  0.0685
  141DOPC  H12A16623   4.258   2.457   7.510  0.1072 -0.2636  0.1828
  141DOPC  H12B16624   4.284   2.288   7.498 -2.0310  1.0399  0.5850
  141DOPC   C1316625   4.462   2.508   7.681 -0.6060 -1.0982  0.4519
  141DOPC  H13A16626   4.380   2.573   7.707  0.6663 -0.6202  3.6405
  141DOPC  H13B16627   4.526   2.511   7.768  0.0377 -0.5761 -0.0246
  141DOPC  H13C16628   4.524   2.561   7.610  0.3939  2.0269  3.3581
  141DOPC   C1416629   4.510   2.273   7.622  0.1573 -0.0977 -0.0866
  141DOPC  H14A16630   4.557   2.300   7.528 -0.3545  2.6100  0.3549
  141DOPC  H14B16631   4.587   2.270   7.697  2.1224  1.0524 -1.9287
  141DOPC  H14C16632   4.459   2.178   7.613 -1.2607  0.7090 -0.8572
  141DOPC   C1516633   4.324   2.329   7.762  0.0878  0.2960  0.7590
  141DOPC  H15A16634   4.388   2.306   7.845  2.1903  0.4060 -0.7528
  141DOPC  H15B16635   4.269   2.239   7.742  1.3210 -0.4622  0.7020
  141DOPC  H15C16636   4.259   2.412   7.787  0.3178  0.2845  1.4025
  141DOPC   C1116637   4.413   2.421   7.381 -0.3104  0.1770  1.2789
  141DOPC  H11A16638   4.333   2.444   7.307  0.3857 -0.8539  0.1587
  141DOPC  H11B16639   4.474   2.512   7.396 -1.4792  1.1203  0.5073
  141DOPC     P16640   4.445   2.221   7.198  0.1125 -0.4654 -0.0709
  141DOPC   O1316641   4.466   2.080   7.239  0.1527 -0.1172  0.3185
  141DOPC   O1416642   4.523   2.273   7.083 -0.6405  0.0238  0.0460
  141DOPC   O1216643   4.491   2.307   7.327  0.3250 -0.9097 -0.3873
  141DOPC   O1116644   4.293   2.255   7.164  0.2873  0.2382 -0.1406
  141DOPC    C116645   4.214   2.164   7.084  0.5227  0.0019 -0.1057
  141DOPC    HA16646   4.106   2.174   7.107 -0.1128 -1.4334 -2.1990
  141DOPC    HB16647   4.228   2.058   7.113  1.8209  0.1835  0.0110
  141DOPC    C216648   4.231   2.185   6.929  0.2637 -0.0738 -0.1238
  141DOPC    HS16649   4.334   2.159   6.895  0.1602  1.0719 -1.3764
  141DOPC   O2116650   4.195   2.318   6.890  0.3185  0.2270 -0.1148
  141DOPC   C2116651   4.276   2.398   6.820  0.2109 -0.7260 -0.4424
  141DOPC   O2216652   4.389   2.366   6.785  0.1429  0.1314 -0.0913
  141DOPC   C2216653   4.214   2.527   6.799 -0.1990  0.0953  0.5272
  141DOPC   H2R16654   4.271   2.609   6.848 -0.1938  1.0654 -1.0508
  141DOPC   H2S16655   4.116   2.527   6.851 -0.4378  0.2473  0.0772
  141DOPC    C316656   4.135   2.098   6.849 -0.7567  0.1381 -0.4033
  141DOPC    HX16657   4.034   2.134   6.877 -0.7039  0.5310 -0.6961
  141DOPC    HY16658   4.160   1.994   6.880 -1.3325 -0.1314 -0.8337
  141DOPC   O3116659   4.148   2.115   6.705 -0.8913 -0.8438 -0.1814
  141DOPC   C3116660   4.174   2.015   6.621 -0.1720  0.1479  0.4782
  141DOPC   O3216661   4.165   1.899   6.652  0.0972  0.5130  0.0462
  141DOPC   C3216662   4.224   2.066   6.489 -0.1348 -0.2780  0.6475
  141DOPC   H2X16663   4.183   2.167   6.465 -1.2234 -1.1584 -1.5201
  141DOPC   H2Y16664   4.332   2.083   6.506  0.0714  1.1406 -1.5655
  141DOPC   C2316665   4.192   2.563   6.652  0.5917 -0.6954  0.0402
  141DOPC   H3R16666   4.285   2.597   6.601  0.3930 -1.1006 -0.6057
  141DOPC   H3S16667   4.108   2.635   6.648  0.1359 -1.2670 -1.8755
  141DOPC   C2416668   4.139   2.448   6.563 -0.3172  0.1782  0.2999
  141DOPC   H4R16669   4.053   2.405   6.620  0.5000  0.6927  1.9929
  141DOPC   H4S16670   4.213   2.369   6.538 -0.9396  0.0908 -1.3881
  141DOPC   C2516671   4.096   2.501   6.420  0.2220  0.0364  0.5468
  141DOPC   H5R16672   4.182   2.565   6.390 -0.1756 -0.3961 -1.7036
  141DOPC   H5S16673   4.005   2.563   6.432  0.6397  0.5647  1.0728
  141DOPC   C2616674   4.086   2.380   6.328  0.2020 -0.1185  1.0508
  141DOPC   H6R16675   4.028   2.296   6.371  0.6309 -1.6882 -1.2243
  141DOPC   H6S16676   4.189   2.340   6.318 -0.3428 -1.1189 -1.2057
  141DOPC   C2716677   4.031   2.421   6.186  0.7591 -0.5489 -0.5013
  141DOPC   H7R16678   4.019   2.532   6.186 -1.1748 -0.6949  1.4480
  141DOPC   H7S16679   3.933   2.372   6.167  1.6962 -3.1031  0.7844
  141DOPC   C2816680   4.115   2.371   6.067 -0.0647 -0.1090 -0.6285
  141DOPC   H8R16681   4.056   2.380   5.973 -0.8381 -0.4815 -0.1861
  141DOPC   H8S16682   4.134   2.262   6.076 -0.4440 -0.1901 -0.7735
  141DOPC   C2916683   4.250   2.439   6.065 -0.1100 -0.0324  0.1044
  141DOPC   H9R16684   4.299   2.463   6.160  1.8893 -1.1761 -0.5714
  141DOPC  C21016685   4.301   2.482   5.946  0.4231 -0.2880 -0.2615
  141DOPC  H10R16686   4.389   2.548   5.954 -0.2136  0.3501  3.4145
  141DOPC  C21116687   4.237   2.469   5.806  0.1271 -0.1213  0.1369
  141DOPC  H11R16688   4.293   2.542   5.743  0.9376 -0.4479  0.4725
  141DOPC  H11S16689   4.130   2.501   5.802  0.9496  2.9216 -0.5110
  141DOPC  C21216690   4.262   2.336   5.728  1.0383 -0.3748  0.3195
  141DOPC  H12R16691   4.215   2.257   5.790 -2.9702  1.4928 -0.0689
  141DOPC  H12S16692   4.371   2.319   5.715  0.9511 -1.0927  0.4968
  141DOPC  C21316693   4.200   2.337   5.590 -0.4453  0.0875  1.2250
  141DOPC  H13R16694   4.239   2.415   5.520 -0.6998 -0.1134  0.8533
  141DOPC  H13S16695   4.090   2.352   5.599 -0.7134 -1.5809  1.0334
  141DOPC  C21416696   4.231   2.205   5.508  0.1938  0.3149 -0.0010
  141DOPC  H14R16697   4.181   2.120   5.560  2.4285 -0.5369  0.8778
  141DOPC  H14S16698   4.339   2.182   5.511  0.0998 -0.2459 -0.5207
  141DOPC  C21516699   4.185   2.211   5.363  0.0416 -0.4841 -0.0282
  141DOPC  H15R16700   4.249   2.276   5.300  0.4661 -1.5339 -0.6932
  141DOPC  H15S16701   4.077   2.237   5.360 -0.5709 -1.5400  4.6036
  141DOPC  C21616702   4.207   2.071   5.291 -0.0385  0.7422  0.3370
  141DOPC  H16R16703   4.136   2.001   5.338 -0.0363 -0.2678 -1.1028
  141DOPC  H16S16704   4.311   2.039   5.315  0.5099  3.3879  1.9027
  141DOPC  C21716705   4.178   2.074   5.143 -0.5787 -1.0609 -0.0132
  141DOPC  H17R16706   4.091   2.136   5.113  0.0415 -0.5625 -0.8360
  141DOPC  H17S16707   4.149   1.972   5.107  0.3330 -1.5382  0.5660
  141DOPC  C21816708   4.313   2.121   5.072 -0.1289 -0.4847  0.2947
  141DOPC  H18R16709   4.342   2.226   5.097  1.7617 -0.6857 -0.8537
  141DOPC  H18S16710   4.312   2.110   4.961  1.2355  0.0972  0.1931
  141DOPC  H18T16711   4.392   2.052   5.108 -0.3724 -0.4923  0.8077
  141DOPC   C3316712   4.188   1.961   6.383 -0.0503 -0.1572  0.2801
  141DOPC   H3X16713   4.078   1.946   6.380 -0.3108  1.0746  2.0452
  141DOPC   H3Y16714   4.237   1.863   6.399  0.7100  0.4488  1.8397
  141DOPC   C3416715   4.213   2.004   6.238  0.5050  0.1275 -0.3307
  141DOPC   H4X16716   4.323   2.020   6.237  0.7402 -0.9739  2.1478
  141DOPC   H4Y16717   4.163   2.103   6.229 -2.0323 -0.5793  3.6214
  141DOPC   C3516718   4.175   1.886   6.149 -0.3008  0.9913  0.6089
  141DOPC   H5X16719   4.070   1.856   6.170  0.1761 -1.2584  0.0825
  141DOPC   H5Y16720   4.234   1.797   6.180 -2.0245 -0.9421 -1.3426
  141DOPC   C3616721   4.203   1.919   6.003  0.2665 -0.2423  0.0594
  141DOPC   H6X16722   4.149   2.011   5.974 -0.9195 -1.1399 -0.7098
  141DOPC   H6Y16723   4.310   1.943   5.986  0.0641 -0.3666 -1.5195
  141DOPC   C3716724   4.156   1.805   5.909  0.0873 -0.1623 -0.0771
  141DOPC   H7X16725   4.233   1.725   5.896 -1.4033 -1.4568 -1.3262
  141DOPC   H7Y16726   4.066   1.752   5.947 -1.2024  1.6554 -0.4951
  141DOPC   C3816727   4.128   1.867   5.770 -0.3401  0.1658 -0.0936
  141DOPC   H8X16728   4.210   1.935   5.737  0.6046 -0.5625  0.7085
  141DOPC   H8Y16729   4.035   1.925   5.786 -0.2573  0.1450  0.4628
  141DOPC   C3916730   4.116   1.748   5.679 -0.1225  0.2144  0.0080
  141DOPC   H9X16731   4.209   1.700   5.645 -0.4377  0.7562 -1.7091
  141DOPC  C31016732   4.006   1.709   5.615  0.5879 -0.0100 -0.1731
  141DOPC  H10X16733   4.020   1.637   5.534  1.0134 -0.8290  0.6135
  141DOPC  C31116734   3.867   1.766   5.620 -0.3834 -0.0162  0.2917
  141DOPC  H11X16735   3.861   1.864   5.672  0.7175  0.5528 -0.5889
  141DOPC  H11Y16736   3.798   1.700   5.677  1.9312 -2.2111  0.7498
  141DOPC  C31216737   3.810   1.782   5.480 -0.6210 -0.2644  0.1945
  141DOPC  H12X16738   3.710   1.829   5.493 -0.5185 -0.5733  2.7191
  141DOPC  H12Y16739   3.805   1.677   5.443 -1.6276 -0.4389  0.7874
  141DOPC  C31316740   3.903   1.860   5.386  0.2352  0.1439  0.2885
  141DOPC  H13X16741   3.917   1.955   5.443 -1.7688 -0.0899  1.2759
  141DOPC  H13Y16742   4.004   1.815   5.384 -0.1895 -0.8579  0.8774
  141DOPC  C31416743   3.832   1.892   5.254  0.2282  0.0303 -0.2555
  141DOPC  H14X16744   3.723   1.883   5.273  0.0032  4.1371  1.4489
  141DOPC  H14Y16745   3.838   1.999   5.221 -0.2906 -0.2193 -1.1971
  141DOPC  C31516746   3.874   1.798   5.140  0.1075 -0.4392 -0.3873
  141DOPC  H15X16747   3.859   1.692   5.170 -1.8732 -0.4734 -1.3230
  141DOPC  H15Y16748   3.982   1.822   5.125 -0.3702  2.8039  0.5329
  141DOPC  C31616749   3.791   1.813   5.012 -0.2134  0.2239  0.4212
  141DOPC  H16X16750   3.686   1.783   5.027 -0.7322  2.1470  0.9555
  141DOPC  H16Y16751   3.791   1.922   4.987 -1.4783 -0.0589 -0.8912
  141DOPC  C31716752   3.830   1.723   4.893 -0.8631  0.1633  1.0027
  141DOPC  H17X16753   3.932   1.747   4.855  0.3441 -1.3934  3.0822
  141DOPC  H17Y16754   3.846   1.621   4.933  1.8705  0.6368  1.3066
  141DOPC  C31816755   3.746   1.728   4.771  0.0799 -0.0229  0.3619
  141DOPC  H18X16756   3.709   1.823   4.726  1.5222 -0.3302 -1.6095
  141DOPC  H18Y16757   3.802   1.685   4.685  1.2686 -0.0654  1.1308
  141DOPC  H18Z16758   3.660   1.659   4.778  0.1275 -0.4828 -2.3848
  142DOPC     N16759   5.719   3.429   7.248  0.0621  0.2088 -0.0888
  142DOPC   C1216760   5.730   3.517   7.119  0.4990 -0.1288  0.5204
  142DOPC  H12A16761   5.836   3.529   7.106  0.4685 -1.5170 -1.4175
  142DOPC  H12B16762   5.695   3.619   7.131 -3.2052 -1.0224 -1.2239
  142DOPC   C1316763   5.578   3.392   7.275  0.1611  0.2456  0.1794
  142DOPC  H13A16764   5.530   3.486   7.299  0.4116  0.6369 -0.7910
  142DOPC  H13B16765   5.535   3.351   7.185  0.0403  0.6187  0.0659
  142DOPC  H13C16766   5.579   3.315   7.351 -0.1780 -0.4639 -0.5182
  142DOPC   C1416767   5.776   3.495   7.370 -0.3566 -0.3155  0.7867
  142DOPC  H14A16768   5.881   3.508   7.348 -0.5350 -2.5621 -1.9408
  142DOPC  H14B16769   5.730   3.593   7.374  0.9560  0.3005  1.1247
  142DOPC  H14C16770   5.766   3.436   7.460 -1.3024 -1.2244  0.1092
  142DOPC   C1516771   5.800   3.299   7.238 -0.4962 -0.2359 -0.3789
  142DOPC  H15A16772   5.759   3.236   7.316 -0.3857 -0.8155 -0.7867
  142DOPC  H15B16773   5.905   3.319   7.256 -0.3293 -2.7337  2.1893
  142DOPC  H15C16774   5.787   3.262   7.138  4.9661  1.3972 -2.0455
  142DOPC   C1116775   5.683   3.461   6.979 -0.4653 -0.6600  0.4728
  142DOPC  H11A16776   5.572   3.462   6.974 -0.4426 -1.8240 -0.7408
  142DOPC  H11B16777   5.715   3.535   6.903 -0.8990  1.3720  2.1619
  142DOPC     P16778   5.847   3.297   6.864  0.0481 -0.2352  0.0940
  142DOPC   O1316779   5.871   3.154   6.881 -0.0360 -0.4906  0.0842
  142DOPC   O1416780   5.956   3.385   6.899  0.3703 -0.3787  0.3291
  142DOPC   O1216781   5.724   3.327   6.954 -0.2047 -0.2137 -0.7549
  142DOPC   O1116782   5.801   3.331   6.722  0.1372 -0.7456  0.9002
  142DOPC    C116783   5.732   3.246   6.632  0.2749  0.3398  0.2935
  142DOPC    HA16784   5.648   3.189   6.678 -0.7937  1.1925 -0.5469
  142DOPC    HB16785   5.808   3.180   6.586  1.1645  0.2736  1.8012
  142DOPC    C216786   5.664   3.322   6.522  0.3927 -0.4585  0.3471
  142DOPC    HS16787   5.623   3.246   6.451  1.9075  0.4494 -1.6017
  142DOPC   O2116788   5.748   3.426   6.465 -0.5265  0.3740 -0.5624
  142DOPC   C2116789   5.846   3.378   6.388 -0.2017  0.4511 -0.4015
  142DOPC   O2216790   5.872   3.260   6.364 -0.4405  0.2683 -0.2782
  142DOPC   C2216791   5.906   3.489   6.314  0.5812 -0.6919  0.4214
  142DOPC   H2R16792   5.985   3.450   6.246 -0.1320  1.2060 -1.6354
  142DOPC   H2S16793   5.970   3.550   6.381  3.5954 -2.4329 -0.7086
  142DOPC    C316794   5.540   3.394   6.578  0.2092 -0.2059  0.4755
  142DOPC    HX16795   5.559   3.488   6.633  0.8771  0.5300 -0.9756
  142DOPC    HY16796   5.488   3.319   6.641 -1.3077 -2.6585 -3.2951
  142DOPC   O3116797   5.447   3.406   6.465 -0.4473  0.3629  0.1524
  142DOPC   C3116798   5.456   3.526   6.410  0.4367 -0.2191 -0.8822
  142DOPC   O3216799   5.533   3.615   6.435 -0.2906 -0.1974  0.6126
  142DOPC   C3216800   5.349   3.547   6.304 -0.4528  0.0683 -1.1396
  142DOPC   H2X16801   5.325   3.655   6.296 -0.0100  0.8575  4.1780
  142DOPC   H2Y16802   5.407   3.521   6.213 -1.3878  0.2150 -1.7876
  142DOPC   C2316803   5.799   3.571   6.230  0.7476  0.1129  0.3557
  142DOPC   H3R16804   5.859   3.645   6.172 -1.3410  0.4271 -1.5298
  142DOPC   H3S16805   5.736   3.635   6.296 -1.2295  1.9131 -3.0023
  142DOPC   C2416806   5.716   3.495   6.124  0.2205 -0.0084 -0.0493
  142DOPC   H4R16807   5.674   3.413   6.186  0.9656  0.2723  0.8589
  142DOPC   H4S16808   5.790   3.449   6.054  1.1110 -1.2788  1.6278
  142DOPC   C2516809   5.633   3.594   6.046  0.1352  0.1956  0.7482
  142DOPC   H5R16810   5.699   3.673   6.005 -0.7154 -0.3883 -1.9461
  142DOPC   H5S16811   5.562   3.644   6.116 -0.5380 -0.0444  0.2442
  142DOPC   C2616812   5.558   3.524   5.930  0.2884  0.3705 -0.0804
  142DOPC   H6R16813   5.497   3.436   5.959  1.1059 -1.0769 -2.5195
  142DOPC   H6S16814   5.623   3.499   5.844 -2.2303  1.1544 -2.3165
  142DOPC   C2716815   5.463   3.618   5.855 -0.8074 -0.4720 -0.8893
  142DOPC   H7R16816   5.516   3.714   5.837 -0.9919  0.0577  1.1696
  142DOPC   H7S16817   5.370   3.638   5.914  0.3538  0.1160  0.8070
  142DOPC   C2816818   5.400   3.567   5.720 -0.9444  0.6025 -0.0107
  142DOPC   H8R16819   5.307   3.623   5.700 -0.8860  1.3643  1.6894
  142DOPC   H8S16820   5.376   3.463   5.751 -2.5359  0.6189 -1.0749
  142DOPC   C2916821   5.503   3.556   5.615 -0.2006  0.3624  0.0753
  142DOPC   H9R16822   5.547   3.455   5.607 -0.7214  0.1150  0.3240
  142DOPC  C21016823   5.550   3.647   5.530  0.2372 -0.5272 -1.0918
  142DOPC  H10R16824   5.630   3.614   5.463  1.6065 -0.0471  0.2347
  142DOPC  C21116825   5.508   3.789   5.523 -0.3113  0.1086  0.2439
  142DOPC  H11R16826   5.459   3.824   5.616 -0.8659  2.1723 -0.7590
  142DOPC  H11S16827   5.430   3.791   5.444  0.6273 -0.2859 -0.7275
  142DOPC  C21216828   5.614   3.896   5.486  0.2421  0.0774  0.5650
  142DOPC  H12R16829   5.581   3.999   5.510 -1.2044 -0.3920  0.6491
  142DOPC  H12S16830   5.626   3.895   5.375 -2.0792 -2.2281  0.2595
  142DOPC  C21316831   5.754   3.883   5.546 -0.1826 -0.1694 -0.1479
  142DOPC  H13R16832   5.809   3.977   5.523 -1.3352  0.5114 -0.1767
  142DOPC  H13S16833   5.818   3.807   5.497 -0.2947  0.3041 -1.0481
  142DOPC  C21416834   5.755   3.855   5.694  0.1089 -0.0543  0.0099
  142DOPC  H14R16835   5.722   3.752   5.719 -0.2507  0.0102 -0.1924
  142DOPC  H14S16836   5.686   3.923   5.748 -1.4910  0.3556 -2.3872
  142DOPC  C21516837   5.899   3.873   5.746 -0.4530 -0.1498  0.2569
  142DOPC  H15R16838   5.922   3.980   5.729  0.5003 -0.2227  1.0752
  142DOPC  H15S16839   5.964   3.809   5.683  0.4119  1.8678 -0.9834
  142DOPC  C21616840   5.929   3.838   5.894  0.2475  0.5771  0.6519
  142DOPC  H16R16841   5.838   3.854   5.955  1.4259  0.7823  2.4630
  142DOPC  H16S16842   5.991   3.921   5.934  1.7402  0.7245 -1.7785
  142DOPC  C21716843   5.993   3.703   5.929  0.0588 -0.0691 -0.0196
  142DOPC  H17R16844   5.945   3.614   5.885  0.8135 -0.5759  0.1726
  142DOPC  H17S16845   5.981   3.686   6.038  4.7932 -2.5092  0.3744
  142DOPC  C21816846   6.147   3.696   5.899  0.2230  0.4083 -0.1779
  142DOPC  H18R16847   6.190   3.777   5.961 -0.9297 -0.8712  2.4193
  142DOPC  H18S16848   6.166   3.723   5.792  1.9817 -0.0906 -0.0307
  142DOPC  H18T16849   6.193   3.601   5.934  0.7503 -0.0018 -1.8780
  142DOPC   C3316850   5.228   3.458   6.325  0.0918  0.1030  0.2035
  142DOPC   H3X16851   5.160   3.523   6.386  1.0198  0.3053  1.0391
  142DOPC   H3Y16852   5.245   3.361   6.376 -0.3593  0.8632  1.8747
  142DOPC   C3416853   5.152   3.404   6.202 -0.4877  0.3215  0.4298
  142DOPC   H4X16854   5.120   3.482   6.130  0.8116  1.3570  0.9413
  142DOPC   H4Y16855   5.062   3.350   6.240  0.2142 -0.5172  0.9420
  142DOPC   C3516856   5.245   3.302   6.122  0.4402 -0.3397 -0.6518
  142DOPC   H5X16857   5.297   3.234   6.193 -0.5864  0.0533  0.5144
  142DOPC   H5Y16858   5.327   3.359   6.074 -0.4071 -0.8526 -2.7887
  142DOPC   C3616859   5.172   3.214   6.016 -0.2697 -0.3042  0.1020
  142DOPC   H6X16860   5.247   3.149   5.966 -0.0490  0.3269 -0.3946
  142DOPC   H6Y16861   5.099   3.149   6.070  1.0375 -1.6732  0.2769
  142DOPC   C3716862   5.103   3.311   5.915  0.1605  1.1674  0.4497
  142DOPC   H7X16863   5.013   3.362   5.957  0.1313  0.3785  1.3978
  142DOPC   H7Y16864   5.158   3.400   5.878 -1.6977  1.5786 -1.5464
  142DOPC   C3816865   5.051   3.244   5.787 -0.5159 -0.0707 -0.3966
  142DOPC   H8X16866   5.143   3.220   5.729 -0.5347  2.0090 -1.3632
  142DOPC   H8Y16867   5.000   3.311   5.714 -1.1634  0.2138  0.3008
  142DOPC   C3916868   4.958   3.126   5.803  0.0059  0.2417 -0.6470
  142DOPC   H9X16869   4.995   3.025   5.779 -1.9422 -1.1537  1.7590
  142DOPC  C31016870   4.825   3.137   5.840  0.0422 -0.3606 -0.1331
  142DOPC  H10X16871   4.767   3.045   5.850  0.8771 -0.7461  1.4835
  142DOPC  C31116872   4.747   3.262   5.872 -0.4642 -0.2124 -0.0157
  142DOPC  H11X16873   4.659   3.282   5.807  0.2734 -1.1781 -1.3354
  142DOPC  H11Y16874   4.808   3.355   5.869 -3.3452  1.8988  1.3352
  142DOPC  C31216875   4.692   3.263   6.020 -0.3118  0.1306  0.0311
  142DOPC  H12X16876   4.627   3.180   6.055 -1.3121  1.7876  2.3463
  142DOPC  H12Y16877   4.625   3.351   6.027 -0.5792  0.0184 -0.9663
  142DOPC  C31316878   4.801   3.298   6.122  0.1367 -0.0568 -0.4577
  142DOPC  H13X16879   4.893   3.238   6.107  2.3839  2.1796  2.8487
  142DOPC  H13Y16880   4.833   3.404   6.112 -2.9225  0.8408 -2.1654
  142DOPC  C31416881   4.755   3.278   6.272 -0.2178 -0.1600 -0.5597
  142DOPC  H14X16882   4.732   3.169   6.283 -0.5415  0.0499  1.0029
  142DOPC  H14Y16883   4.845   3.303   6.331 -0.2777 -0.9724 -0.1008
  142DOPC  C31516884   4.641   3.359   6.324  0.1880 -0.3102 -0.0897
  142DOPC  H15X16885   4.557   3.364   6.250  1.4625  0.0463 -1.5801
  142DOPC  H15Y16886   4.676   3.465   6.319 -0.0827 -0.2607 -3.0696
  142DOPC  C31616887   4.584   3.312   6.455  0.8924 -0.1663 -0.0926
  142DOPC  H16X16888   4.500   3.381   6.475  0.0696 -0.7345 -1.3857
  142DOPC  H16Y16889   4.535   3.214   6.434 -0.2048 -0.1558  2.2184
  142DOPC  C31716890   4.680   3.311   6.573  0.9807  0.3391  0.4169
  142DOPC  H17X16891   4.753   3.232   6.546  0.0497  0.3240 -2.4273
  142DOPC  H17Y16892   4.726   3.411   6.582  0.1724  1.2099 -3.2216
  142DOPC  C31816893   4.618   3.268   6.712 -0.9599 -1.0755  0.2648
  142DOPC  H18X16894   4.574   3.167   6.702 -0.3291 -1.3220 -0.0557
  142DOPC  H18Y16895   4.696   3.277   6.791  2.9266 -1.2121 -3.2176
  142DOPC  H18Z16896   4.541   3.338   6.751 -0.3848 -0.3388  0.1104
  143DOPC     N16897   1.561   2.532   7.224  0.0354  0.3651  0.1769
  143DOPC   C1216898   1.509   2.532   7.077  0.9617  0.3627 -0.2114
  143DOPC  H12A16899   1.401   2.532   7.076  0.9080 -0.8787 -2.4335
  143DOPC  H12B16900   1.537   2.436   7.035  0.2436  0.5819 -1.2308
  143DOPC   C1316901   1.712   2.505   7.229  0.1990  0.0101 -0.5888
  143DOPC  H13A16902   1.756   2.514   7.328  0.0221 -1.1517 -0.3946
  143DOPC  H13B16903   1.740   2.413   7.180 -0.9559 -0.0974 -1.0592
  143DOPC  H13C16904   1.777   2.563   7.164  0.3483  2.7824  1.8088
  143DOPC   C1416905   1.502   2.416   7.297 -0.0197  0.6493 -0.7537
  143DOPC  H14A16906   1.516   2.315   7.263  2.2465 -0.0931  1.9615
  143DOPC  H14B16907   1.536   2.418   7.400 -0.6276 -0.2301 -0.5285
  143DOPC  H14C16908   1.395   2.427   7.296 -0.2559 -1.2571 -0.1789
  143DOPC   C1516909   1.524   2.659   7.290  0.0058  0.0212 -0.3537
  143DOPC  H15A16910   1.566   2.745   7.240 -1.8192  1.5477  0.6019
  143DOPC  H15B16911   1.566   2.669   7.389  2.7556  0.3914 -1.4814
  143DOPC  H15C16912   1.417   2.676   7.294 -0.1748 -0.8732 -1.0599
  143DOPC   C1116913   1.560   2.635   6.981 -0.7029 -0.1210  0.2982
  143DOPC  H11A16914   1.505   2.617   6.886  0.4768  0.6112 -0.5523
  143DOPC  H11B16915   1.539   2.737   7.021 -0.9133  0.9519 -2.3187
  143DOPC     P16916   1.760   2.553   6.835  0.0567  0.1086 -0.1676
  143DOPC   O1316917   1.666   2.446   6.793 -0.2219 -0.0160 -0.2279
  143DOPC   O1416918   1.893   2.502   6.859 -0.2251 -0.5798  0.2199
  143DOPC   O1216919   1.707   2.621   6.966  0.7583  0.3253  0.2916
  143DOPC   O1116920   1.758   2.665   6.729  0.1859  0.1244  0.0621
  143DOPC    C116921   1.829   2.792   6.727  0.4809  1.0409 -0.5596
  143DOPC    HA16922   1.892   2.796   6.636  0.7657  0.8879 -0.3710
  143DOPC    HB16923   1.902   2.791   6.811  0.7156 -0.2475 -0.7701
  143DOPC    C216924   1.732   2.914   6.733  0.0323 -0.2649  0.0242
  143DOPC    HS16925   1.663   2.896   6.817  0.6157 -0.7465  0.4066
  143DOPC   O2116926   1.660   2.921   6.610 -0.5148 -0.3118 -0.2827
  143DOPC   C2116927   1.563   2.832   6.591 -0.3064 -0.3876 -0.5646
  143DOPC   O2216928   1.511   2.758   6.670 -0.1533  0.1135  0.0852
  143DOPC   C2216929   1.519   2.842   6.448  0.6400 -0.2133  0.3534
  143DOPC   H2R16930   1.607   2.799   6.396  0.8881  1.6046 -0.8359
  143DOPC   H2S16931   1.525   2.951   6.424  2.7859 -0.1700  0.8847
  143DOPC    C316932   1.810   3.046   6.760 -0.1316 -0.7620  0.3313
  143DOPC    HX16933   1.864   3.033   6.856 -0.1833  1.3277  0.6778
  143DOPC    HY16934   1.727   3.117   6.781 -1.0724 -1.5035 -0.7810
  143DOPC   O3116935   1.899   3.089   6.661  0.1662  0.1014  0.6032
  143DOPC   C3116936   2.023   3.068   6.675 -0.7697 -0.4759 -0.2777
  143DOPC   O3216937   2.081   3.008   6.769  0.2647  0.0520  0.2815
  143DOPC   C3216938   2.097   3.125   6.555 -0.3660  0.5166  0.1245
  143DOPC   H2X16939   2.051   3.219   6.517 -2.2768 -0.1728  0.6034
  143DOPC   H2Y16940   2.203   3.145   6.583 -0.2015 -0.8441  0.5139
  143DOPC   C2316941   1.381   2.777   6.402  0.7960  0.4453 -0.1097
  143DOPC   H3R16942   1.304   2.835   6.457  1.5005 -1.3344  2.9445
  143DOPC   H3S16943   1.366   2.671   6.431  1.0449  0.4143 -0.0962
  143DOPC   C2416944   1.375   2.790   6.251  0.9647 -0.5330  0.2889
  143DOPC   H4R16945   1.478   2.768   6.216  1.3771 -0.5370  1.4585
  143DOPC   H4S16946   1.346   2.895   6.230 -2.3970 -1.3019  0.4664
  143DOPC   C2516947   1.270   2.706   6.175 -0.4187  0.2923  0.8052
  143DOPC   H5R16948   1.168   2.739   6.203 -0.3882  1.0438  0.0765
  143DOPC   H5S16949   1.292   2.605   6.217  0.3830  0.2507  0.3179
  143DOPC   C2616950   1.270   2.696   6.019  0.0267 -0.1811 -0.2664
  143DOPC   H6R16951   1.191   2.624   5.989 -0.2083  0.7339 -1.9446
  143DOPC   H6S16952   1.371   2.664   5.986 -0.3068  0.2545 -1.7513
  143DOPC   C2716953   1.227   2.828   5.961 -0.0135  1.2702 -0.1176
  143DOPC   H7R16954   1.288   2.910   6.003  1.0484 -0.4235  1.7736
  143DOPC   H7S16955   1.128   2.842   6.010  1.1910  1.2628  2.4392
  143DOPC   C2816956   1.220   2.819   5.809  0.6573 -0.6725 -0.3115
  143DOPC   H8R16957   1.161   2.905   5.771  0.4573 -1.7628 -2.6096
  143DOPC   H8S16958   1.157   2.730   5.788 -1.1036  0.8408 -1.7738
  143DOPC   C2916959   1.348   2.809   5.735  0.7946 -0.6403 -0.2710
  143DOPC   H9R16960   1.380   2.704   5.729 -0.9111 -1.2289  0.4303
  143DOPC  C21016961   1.417   2.904   5.672 -0.4987 -0.3261  0.4502
  143DOPC  H10R16962   1.510   2.874   5.621 -1.2801  0.9934 -1.8931
  143DOPC  C21116963   1.382   3.050   5.673  0.3506  0.0045  0.3564
  143DOPC  H11R16964   1.441   3.094   5.756 -2.1194 -0.2974  2.3686
  143DOPC  H11S16965   1.275   3.075   5.687  0.0742 -1.7686  1.7484
  143DOPC  C21216966   1.440   3.121   5.550 -0.2140  0.8497 -0.6495
  143DOPC  H12R16967   1.373   3.105   5.462  0.7216 -2.6792 -0.8802
  143DOPC  H12S16968   1.535   3.079   5.510 -0.0813 -0.6593  1.1345
  143DOPC  C21316969   1.468   3.274   5.570  0.0538  0.3074  0.0217
  143DOPC  H13R16970   1.542   3.294   5.650  0.0485  2.9883 -0.5708
  143DOPC  H13S16971   1.376   3.320   5.612  0.9773  0.1492  2.3479
  143DOPC  C21416972   1.515   3.335   5.434  0.6940  0.3013 -0.6157
  143DOPC  H14R16973   1.595   3.265   5.402 -0.8940 -1.5385 -0.7616
  143DOPC  H14S16974   1.556   3.437   5.452  0.3938  0.1123  1.3858
  143DOPC  C21516975   1.405   3.344   5.326 -0.8837  0.3310  0.3344
  143DOPC  H15R16976   1.316   3.394   5.368 -1.7934  0.1715 -1.2929
  143DOPC  H15S16977   1.376   3.242   5.294 -3.0214  0.7626  0.7751
  143DOPC  C21616978   1.449   3.418   5.200  0.5855  0.1387 -0.6656
  143DOPC  H16R16979   1.529   3.365   5.143  1.4694  0.7293  0.0045
  143DOPC  H16S16980   1.464   3.523   5.230  1.9065 -0.6763  1.7902
  143DOPC  C21716981   1.339   3.406   5.094 -0.0487 -0.4242  0.5680
  143DOPC  H17R16982   1.241   3.433   5.138  0.3823  0.2714  1.1360
  143DOPC  H17S16983   1.314   3.300   5.069 -3.4810  0.3883  0.0512
  143DOPC  C21816984   1.367   3.486   4.972  0.3906 -0.5348  0.8535
  143DOPC  H18R16985   1.319   3.585   4.989  0.9603 -0.4861  2.3246
  143DOPC  H18S16986   1.318   3.441   4.883  1.4212 -1.5023  0.7635
  143DOPC  H18T16987   1.473   3.489   4.938  0.3634 -1.2247  0.7020
  143DOPC   C3316988   2.097   3.032   6.433 -0.4039  0.6599  0.0580
  143DOPC   H3X16989   2.152   2.938   6.454  0.0721  0.7870 -0.5890
  143DOPC   H3Y16990   2.160   3.089   6.361  2.3642 -1.2009  0.8676
  143DOPC   C3416991   1.956   2.989   6.385 -0.2779 -0.2381  0.0187
  143DOPC   H4X16992   1.901   3.081   6.357  0.6471  0.5738  0.7464
  143DOPC   H4Y16993   1.908   2.922   6.460 -0.3765 -0.7699 -0.5122
  143DOPC   C3516994   1.978   2.910   6.248  0.7073 -0.3712 -0.0837
  143DOPC   H5X16995   2.015   2.806   6.260  2.7061  0.0282 -2.1176
  143DOPC   H5Y16996   2.060   2.961   6.194  0.1877  1.4916  0.7853
  143DOPC   C3616997   1.845   2.902   6.165 -1.0314  0.0795 -0.6220
  143DOPC   H6X16998   1.775   2.829   6.210  0.5714 -0.8113  0.5220
  143DOPC   H6Y16999   1.784   2.994   6.168 -2.7108 -1.0181  0.0141
  143DOPC   C3717000   1.878   2.858   6.021  0.1321  0.5511 -0.1694
  143DOPC   H7X17001   1.949   2.937   5.988 -1.8065  2.4682 -0.0007
  143DOPC   H7Y17002   1.931   2.760   6.025 -0.1670  0.4274  0.9323
  143DOPC   C3817003   1.761   2.852   5.924 -0.2138  1.1177 -0.0657
  143DOPC   H8X17004   1.719   2.954   5.907 -2.0010  0.5995  0.9579
  143DOPC   H8Y17005   1.682   2.790   5.971 -0.1884  1.6191  0.6604
  143DOPC   C3917006   1.807   2.807   5.788  0.1694 -0.8291  0.9833
  143DOPC   H9X17007   1.881   2.871   5.738  1.3529 -1.9259  1.2661
  143DOPC  C31017008   1.791   2.690   5.723  0.1630  0.9303  0.1641
  143DOPC  H10X17009   1.861   2.678   5.639 -1.4770  0.7968 -1.2394
  143DOPC  C31117010   1.717   2.571   5.778 -0.4671  0.0413 -0.0310
  143DOPC  H11X17011   1.654   2.601   5.865  0.1731  0.0747  0.4253
  143DOPC  H11Y17012   1.783   2.484   5.797  2.6075  2.0579 -0.8878
  143DOPC  C31217013   1.627   2.521   5.667 -0.4943  0.1320 -0.0851
  143DOPC  H12X17014   1.670   2.516   5.565 -1.0079  1.7747 -0.4206
  143DOPC  H12Y17015   1.545   2.596   5.658  0.7406  1.3424 -2.3316
  143DOPC  C31317016   1.572   2.376   5.712  0.3685 -0.2812  0.4015
  143DOPC  H13X17017   1.652   2.299   5.709 -0.0498 -0.7581  1.0827
  143DOPC  H13Y17018   1.538   2.390   5.817  0.5153 -0.0347  0.4178
  143DOPC  C31417019   1.465   2.323   5.613  0.2500 -0.6421  0.0326
  143DOPC  H14X17020   1.435   2.219   5.639  0.0982 -0.6533 -0.1927
  143DOPC  H14Y17021   1.372   2.382   5.625 -0.7878 -1.8968 -1.4993
  143DOPC  C31517022   1.520   2.326   5.467 -0.8954 -0.0253  0.2625
  143DOPC  H15X17023   1.625   2.297   5.489 -1.2568 -0.9804  0.7741
  143DOPC  H15Y17024   1.506   2.431   5.433  0.4866  0.1843  0.2575
  143DOPC  C31617025   1.466   2.217   5.375  0.4343  0.1606  0.1956
  143DOPC  H16X17026   1.493   2.123   5.428  1.4103  0.6652  0.6302
  143DOPC  H16Y17027   1.355   2.224   5.369  0.4781  0.9495  0.1649
  143DOPC  C31717028   1.539   2.201   5.239  0.4652  0.6112  0.2592
  143DOPC  H17X17029   1.507   2.284   5.173  1.1064  0.4730 -0.2377
  143DOPC  H17Y17030   1.648   2.197   5.260  0.8742 -3.0572 -1.6053
  143DOPC  C31817031   1.497   2.066   5.184  0.2353  0.6688  0.0803
  143DOPC  H18X17032   1.554   2.035   5.094  1.5660 -0.5581  1.2910
  143DOPC  H18Y17033   1.518   1.987   5.259 -0.7952 -2.2783 -2.5041
  143DOPC  H18Z17034   1.387   2.059   5.171 -0.0801 -1.6335  2.9288
  144DOPC     N17035   3.666   2.687   7.259 -0.3584  0.0262  0.2069
  144DOPC   C1217036   3.533   2.665   7.191  0.1860 -0.5893  0.0279
  144DOPC  H12A17037   3.521   2.756   7.134 -0.5450 -0.1875  0.8035
  144DOPC  H12B17038   3.455   2.659   7.265  1.1562  0.3038  1.1459
  144DOPC   C1317039   3.706   2.567   7.337 -0.7308 -0.2345 -0.1171
  144DOPC  H13A17040   3.645   2.569   7.427 -1.5116 -2.1104 -0.5538
  144DOPC  H13B17041   3.665   2.477   7.292 -2.1382 -0.7145  1.9681
  144DOPC  H13C17042   3.810   2.566   7.365 -0.3086  0.4772 -1.5632
  144DOPC   C1417043   3.658   2.806   7.349 -0.0977  0.2874 -0.0600
  144DOPC  H14A17044   3.589   2.797   7.432 -0.5598 -0.5709 -0.5256
  144DOPC  H14B17045   3.747   2.828   7.407 -0.5656  4.3718 -0.5920
  144DOPC  H14C17046   3.634   2.898   7.297 -2.0341 -1.6273 -2.8189
  144DOPC   C1517047   3.780   2.710   7.163  0.0048  1.0788 -0.6524
  144DOPC  H15A17048   3.868   2.755   7.207  1.1245 -0.8709 -0.7560
  144DOPC  H15B17049   3.750   2.791   7.099 -1.7595  1.6392  0.8008
  144DOPC  H15C17050   3.796   2.616   7.111 -1.7475  0.5265 -0.2598
  144DOPC   C1117051   3.519   2.546   7.093 -0.1778  0.1516 -0.0778
  144DOPC  H11A17052   3.421   2.554   7.042 -0.2985 -1.7256 -0.1831
  144DOPC  H11B17053   3.605   2.563   7.024 -2.4138  1.4663 -2.7229
  144DOPC     P17054   3.547   2.297   7.066 -0.5738 -0.1828 -0.4235
  144DOPC   O1317055   3.431   2.205   7.096 -0.2606  0.0483  0.0909
  144DOPC   O1417056   3.678   2.241   7.093 -0.3646 -0.3452 -0.3850
  144DOPC   O1217057   3.530   2.423   7.162 -0.0546  0.1391  0.3592
  144DOPC   O1117058   3.559   2.352   6.923  0.7977 -0.2182 -0.4535
  144DOPC    C117059   3.454   2.315   6.830 -0.0587  0.3725  1.2769
  144DOPC    HA17060   3.361   2.360   6.869 -0.6304 -0.9575  1.5013
  144DOPC    HB17061   3.443   2.204   6.828  0.8204  0.2838  0.6147
  144DOPC    C217062   3.488   2.357   6.686 -1.3144  1.1306 -0.2768
  144DOPC    HS17063   3.417   2.308   6.616  0.3850 -2.2981  0.1858
  144DOPC   O2117064   3.627   2.319   6.652 -0.2650  0.2574  0.0319
  144DOPC   C2117065   3.642   2.192   6.629 -0.0157  0.1440  0.2657
  144DOPC   O2217066   3.553   2.107   6.647 -0.0598  0.7823 -0.8327
  144DOPC   C2217067   3.786   2.159   6.579  0.3658  0.1061  0.1880
  144DOPC   H2R17068   3.854   2.174   6.665 -0.8099  0.5094  1.0698
  144DOPC   H2S17069   3.811   2.235   6.502  0.8232 -0.6116 -0.3941
  144DOPC    C317070   3.481   2.516   6.702 -0.1871  0.2978 -0.5169
  144DOPC    HX17071   3.553   2.546   6.781 -3.3357  1.7262  2.0339
  144DOPC    HY17072   3.384   2.533   6.753  1.2004  1.9304  1.7816
  144DOPC   O3117073   3.487   2.585   6.576  0.3327  0.0794 -0.0926
  144DOPC   C3117074   3.588   2.654   6.544 -0.0341  0.4956 -0.4588
  144DOPC   O3217075   3.683   2.680   6.613 -0.4152 -0.0940  0.2331
  144DOPC   C3217076   3.568   2.712   6.404  0.8003 -0.1644 -0.6215
  144DOPC   H2X17077   3.503   2.646   6.344  1.0773  0.1082 -1.2281
  144DOPC   H2Y17078   3.512   2.804   6.431 -0.4264 -0.5452 -1.8164
  144DOPC   C2317079   3.795   2.017   6.521  0.1870 -0.1623  0.5183
  144DOPC   H3R17080   3.738   1.954   6.593  0.5191  0.1765  1.0896
  144DOPC   H3S17081   3.902   1.987   6.524  0.5259  0.7670 -0.9509
  144DOPC   C2417082   3.740   1.993   6.371  0.0546  0.4159 -0.6018
  144DOPC   H4R17083   3.630   2.003   6.376 -0.0756 -1.2882  1.1571
  144DOPC   H4S17084   3.762   1.885   6.357  1.3798  0.4745  0.7312
  144DOPC   C2517085   3.819   2.072   6.262  0.5001  0.2331  0.3073
  144DOPC   H5R17086   3.922   2.032   6.266  0.4855  0.2451  0.8271
  144DOPC   H5S17087   3.819   2.182   6.279  2.0684  0.3621 -0.3846
  144DOPC   C2617088   3.746   2.055   6.125  0.0840 -0.3244 -0.2954
  144DOPC   H6R17089   3.654   2.115   6.145  0.0012 -0.7892  0.7939
  144DOPC   H6S17090   3.729   1.946   6.114 -2.0847  0.0376 -1.1035
  144DOPC   C2717091   3.828   2.118   6.013 -0.0429 -0.3767  0.6049
  144DOPC   H7R17092   3.908   2.041   6.000  1.4548  1.2526 -0.2884
  144DOPC   H7S17093   3.887   2.209   6.038  1.9203 -0.7792 -2.0748
  144DOPC   C2817094   3.738   2.135   5.888 -1.1187 -0.0511  0.3176
  144DOPC   H8R17095   3.682   2.231   5.898  1.2800  1.3230  1.8455
  144DOPC   H8S17096   3.668   2.049   5.888 -0.4120 -0.6560  1.7411
  144DOPC   C2917097   3.825   2.141   5.768  0.1343  0.1594  0.2362
  144DOPC   H9R17098   3.934   2.126   5.780 -0.1331 -1.4989  0.9294
  144DOPC  C21017099   3.790   2.188   5.648 -0.0453 -0.1048  0.0720
  144DOPC  H10R17100   3.857   2.183   5.561 -1.3566 -0.0929 -0.9566
  144DOPC  C21117101   3.656   2.242   5.611  1.0688 -0.5712 -0.2017
  144DOPC  H11R17102   3.665   2.346   5.575  1.8061 -1.2674 -2.1454
  144DOPC  H11S17103   3.596   2.250   5.704  2.3856 -0.9519  0.7189
  144DOPC  C21217104   3.587   2.155   5.504 -0.0687 -0.0698 -0.0364
  144DOPC  H12R17105   3.573   2.049   5.534  2.5710 -0.0604  1.5059
  144DOPC  H12S17106   3.642   2.147   5.407  0.0634 -2.0291  0.1597
  144DOPC  C21317107   3.447   2.216   5.460 -0.0461  0.7657 -0.2438
  144DOPC  H13R17108   3.462   2.321   5.426  3.2272 -0.1312 -2.0910
  144DOPC  H13S17109   3.390   2.220   5.555  1.0508  0.2974  0.4542
  144DOPC  C21417110   3.371   2.131   5.353  0.8443  1.0362 -0.2264
  144DOPC  H14R17111   3.343   2.028   5.385 -1.6214  1.7806  0.2838
  144DOPC  H14S17112   3.443   2.116   5.270  0.1460 -0.7628 -0.5463
  144DOPC  C21517113   3.234   2.198   5.319 -0.1750 -0.2864 -0.0216
  144DOPC  H15R17114   3.198   2.169   5.218  0.8441  0.6978 -0.7023
  144DOPC  H15S17115   3.244   2.308   5.304 -0.0344  0.1258  2.5792
  144DOPC  C21617116   3.128   2.179   5.430 -0.3120  0.0796  0.1271
  144DOPC  H16R17117   3.033   2.230   5.402 -1.1364 -0.6335  1.5058
  144DOPC  H16S17118   3.161   2.229   5.524  0.2561 -0.2951  0.1341
  144DOPC  C21717119   3.088   2.037   5.438 -0.3739  0.2968  0.1709
  144DOPC  H17R17120   3.175   1.978   5.476 -1.3538 -0.8766  0.6615
  144DOPC  H17S17121   3.060   1.997   5.338  0.2967  1.2638 -0.4148
  144DOPC  C21817122   2.962   2.016   5.522  0.2199 -0.1752 -0.0968
  144DOPC  H18R17123   2.874   2.031   5.455 -0.1993  2.2502  0.9192
  144DOPC  H18S17124   2.968   2.082   5.610 -1.1652 -1.4989  1.0529
  144DOPC  H18T17125   2.962   1.908   5.548  0.0552 -0.4330 -1.1158
  144DOPC   C3317126   3.691   2.752   6.320  0.4350 -0.0520  0.3747
  144DOPC   H3X17127   3.768   2.797   6.386 -1.0073 -0.8560  2.7006
  144DOPC   H3Y17128   3.659   2.823   6.240 -2.0990  0.5087  1.7913
  144DOPC   C3417129   3.752   2.630   6.240 -0.3377 -0.0344  0.5480
  144DOPC   H4X17130   3.754   2.538   6.302  0.5128  0.3781  1.1528
  144DOPC   H4Y17131   3.859   2.643   6.213 -0.7769  0.8150 -0.9008
  144DOPC   C3517132   3.658   2.590   6.122  0.1737  0.0446  0.3907
  144DOPC   H5X17133   3.561   2.561   6.168  1.0689 -0.9193  1.7351
  144DOPC   H5Y17134   3.704   2.500   6.076  2.0307  0.4268  1.4280
  144DOPC   C3617135   3.646   2.684   5.999  0.0801  0.0115 -0.3978
  144DOPC   H6X17136   3.549   2.659   5.950 -2.4663  4.5644  1.6586
  144DOPC   H6Y17137   3.635   2.791   6.023 -3.0099 -0.4949  0.9701
  144DOPC   C3717138   3.759   2.694   5.901 -1.0344  0.1341 -0.0674
  144DOPC   H7X17139   3.843   2.754   5.942  0.0859 -0.1711 -1.8459
  144DOPC   H7Y17140   3.801   2.593   5.882 -0.9860  0.5682 -2.5843
  144DOPC   C3817141   3.730   2.770   5.767  0.0777 -0.4814 -0.1054
  144DOPC   H8X17142   3.683   2.866   5.797  0.9578 -0.3818  1.0182
  144DOPC   H8Y17143   3.650   2.711   5.718 -2.0599  3.2176 -1.5175
  144DOPC   C3917144   3.853   2.790   5.675 -0.0707 -0.1348 -0.4896
  144DOPC   H9X17145   3.917   2.877   5.695  1.1988 -0.2733 -3.3839
  144DOPC  C31017146   3.899   2.709   5.579  1.0590  0.2378  0.3073
  144DOPC  H10X17147   3.985   2.742   5.519  1.8036  3.7968  2.9351
  144DOPC  C31117148   3.829   2.579   5.546 -0.1278 -0.0122  0.0034
  144DOPC  H11X17149   3.746   2.557   5.616  0.5584  2.5348  1.7605
  144DOPC  H11Y17150   3.897   2.496   5.575 -0.7398  0.5988  3.7398
  144DOPC  C31217151   3.798   2.569   5.395  0.2442  0.4316 -0.3696
  144DOPC  H12X17152   3.891   2.577   5.334  0.0178 -1.2203 -0.9937
  144DOPC  H12Y17153   3.733   2.655   5.369 -2.8911 -2.1589 -1.8638
  144DOPC  C31317154   3.726   2.442   5.344  0.4917 -0.6645  0.8079
  144DOPC  H13X17155   3.787   2.360   5.388  0.5312 -1.3693 -0.5083
  144DOPC  H13Y17156   3.624   2.449   5.387  0.0860 -0.8079 -0.1083
  144DOPC  C31417157   3.719   2.412   5.191  0.4725 -0.9285  0.1767
  144DOPC  H14X17158   3.685   2.505   5.140  0.2344 -1.5798 -0.8714
  144DOPC  H14Y17159   3.823   2.398   5.154  0.4526 -0.3093 -0.1233
  144DOPC  C31517160   3.642   2.293   5.151  0.4656 -0.1810 -0.0928
  144DOPC  H15X17161   3.534   2.319   5.162  0.4477 -0.9838  2.5398
  144DOPC  H15Y17162   3.669   2.200   5.205 -0.4102 -1.0814 -1.1548
  144DOPC  C31617163   3.651   2.259   4.996  0.0493  0.0565 -0.5201
  144DOPC  H16X17164   3.610   2.348   4.943 -4.4842  0.7911  3.4554
  144DOPC  H16Y17165   3.757   2.239   4.973 -0.0155  0.9148 -1.6158
  144DOPC  C31717166   3.567   2.135   4.965  0.1177  0.4663 -0.2753
  144DOPC  H17X17167   3.593   2.057   5.041 -2.0737 -1.8184 -1.7038
  144DOPC  H17Y17168   3.460   2.161   4.977  0.2634  0.8961  0.1058
  144DOPC  C31817169   3.597   2.087   4.823 -0.2647  0.3513  0.6194
  144DOPC  H18X17170   3.541   2.155   4.756 -1.4161 -0.5284  0.6647
  144DOPC  H18Y17171   3.707   2.096   4.807 -0.0845 -1.2867  0.7766
  144DOPC  H18Z17172   3.569   1.982   4.801  0.4118  0.2493  0.1987
  145DOPC     N17173   4.032   4.019   7.416 -0.3484 -1.0558 -0.6062
  145DOPC   C1217174   4.071   4.040   7.261  0.5321  1.0611 -0.1180
  145DOPC  H12A17175   4.129   3.955   7.231  0.2639  0.7547  0.2213
  145DOPC  H12B17176   4.138   4.125   7.269 -0.0628  1.3617  3.2211
  145DOPC   C1317177   3.944   3.900   7.421  0.4685  0.1760  0.1570
  145DOPC  H13A17178   3.861   3.903   7.352 -0.6124  1.3853  1.4718
  145DOPC  H13B17179   3.985   3.804   7.392 -3.3351 -2.0573  1.4052
  145DOPC  H13C17180   3.911   3.894   7.524  0.9689  1.3864  0.4036
  145DOPC   C1417181   3.956   4.132   7.469  0.3241 -0.3487 -0.3891
  145DOPC  H14A17182   3.857   4.123   7.427  0.4778 -0.7699 -0.6705
  145DOPC  H14B17183   3.958   4.121   7.576  0.9029 -0.1760 -0.3785
  145DOPC  H14C17184   3.994   4.228   7.437  0.1075  0.4626  1.6763
  145DOPC   C1517185   4.155   3.997   7.492 -0.7751 -0.1404 -0.0033
  145DOPC  H15A17186   4.220   3.932   7.436  0.5193  1.3640 -0.3011
  145DOPC  H15B17187   4.132   3.956   7.590 -0.2980  2.6811  1.3851
  145DOPC  H15C17188   4.208   4.089   7.507  3.2000 -2.3968  1.4406
  145DOPC   C1117189   3.960   4.089   7.159  0.0053  0.2643 -0.8026
  145DOPC  H11A17190   3.998   4.076   7.055  1.5567  1.3767 -0.4039
  145DOPC  H11B17191   3.878   4.015   7.172 -1.8111  2.2027 -0.8799
  145DOPC     P17192   3.962   4.351   7.194 -0.1565 -0.0989  0.1429
  145DOPC   O1317193   4.103   4.325   7.242  0.5279  0.2053  0.4204
  145DOPC   O1417194   3.887   4.453   7.267 -0.0126  0.1924 -0.0924
  145DOPC   O1217195   3.894   4.211   7.193  0.0568 -0.7590  0.0888
  145DOPC   O1117196   3.970   4.405   7.040 -0.3790 -0.6513 -0.0285
  145DOPC    C117197   3.863   4.382   6.951 -0.3718  0.1356 -0.4493
  145DOPC    HA17198   3.775   4.443   6.983 -1.3563 -1.4744  0.0694
  145DOPC    HB17199   3.837   4.274   6.958  1.6845 -0.2999  2.8099
  145DOPC    C217200   3.909   4.393   6.809 -0.2031 -0.6211  0.1590
  145DOPC    HS17201   3.838   4.360   6.729  1.0532  1.1040 -1.7744
  145DOPC   O2117202   4.044   4.329   6.793 -0.2670 -0.4453  0.0458
  145DOPC   C2117203   4.030   4.202   6.779  0.8095  0.6906  0.6115
  145DOPC   O2217204   3.923   4.143   6.760 -0.4868  0.0101 -0.1146
  145DOPC   C2217205   4.168   4.127   6.786 -0.1990 -0.3700 -0.0735
  145DOPC   H2R17206   4.179   4.077   6.885  2.2993 -1.2643 -0.7236
  145DOPC   H2S17207   4.250   4.200   6.769 -1.8830  1.5063 -0.5297
  145DOPC    C317208   3.934   4.552   6.765  0.0417 -0.2831 -0.2030
  145DOPC    HX17209   3.997   4.582   6.852 -0.8562 -3.4230  1.7338
  145DOPC    HY17210   3.839   4.608   6.764  0.8531  1.1218 -0.3293
  145DOPC   O3117211   4.001   4.561   6.637  0.5745 -0.1721 -0.0708
  145DOPC   C3117212   4.135   4.572   6.635  0.5210  0.3387  0.6524
  145DOPC   O3217213   4.208   4.569   6.729 -0.1269 -0.2346  0.6310
  145DOPC   C3217214   4.181   4.580   6.485  0.2574 -0.2437  0.3582
  145DOPC   H2X17215   4.119   4.498   6.443  0.8730 -1.0530  0.9920
  145DOPC   H2Y17216   4.146   4.674   6.436  0.9401  0.7285  1.6634
  145DOPC   C2317217   4.166   4.022   6.683  0.0951  0.1615  0.6205
  145DOPC   H3R17218   4.078   3.954   6.691  0.1359 -0.0048 -0.2008
  145DOPC   H3S17219   4.254   3.956   6.695  1.9962  2.2535 -0.9836
  145DOPC   C2417220   4.178   4.081   6.540 -0.4273  0.4080 -0.2456
  145DOPC   H4R17221   4.099   4.159   6.534 -0.5167  0.3177 -0.2334
  145DOPC   H4S17222   4.145   4.012   6.460 -0.4337  1.4060 -1.1319
  145DOPC   C2517223   4.316   4.131   6.498 -0.7648 -0.1346  0.6261
  145DOPC   H5R17224   4.386   4.044   6.504 -1.3233 -0.7188 -0.8415
  145DOPC   H5S17225   4.358   4.203   6.571  0.0288 -0.1011  0.1509
  145DOPC   C2617226   4.328   4.192   6.360 -0.2980 -0.3324 -0.4395
  145DOPC   H6R17227   4.434   4.220   6.343  0.2860 -1.8993  0.3755
  145DOPC   H6S17228   4.268   4.286   6.362  1.1326  0.6335  2.5274
  145DOPC   C2717229   4.276   4.102   6.245 -0.2507 -0.8133 -1.3260
  145DOPC   H7R17230   4.165   4.095   6.245 -0.4253  1.0383  0.6891
  145DOPC   H7S17231   4.320   4.003   6.270  0.2194 -0.2368  0.2402
  145DOPC   C2817232   4.336   4.132   6.100 -0.0250 -0.3610 -0.5486
  145DOPC   H8R17233   4.301   4.047   6.039 -1.9365 -0.4756  0.6403
  145DOPC   H8S17234   4.447   4.132   6.098  0.0372  1.7444 -3.7273
  145DOPC   C2917235   4.285   4.262   6.052  0.1042  0.4383  0.3378
  145DOPC   H9R17236   4.326   4.342   6.116 -0.2091  0.3684  0.6276
  145DOPC  C21017237   4.189   4.281   5.960 -0.1286  0.1076  0.3333
  145DOPC  H10R17238   4.161   4.382   5.928 -1.6274  0.1518  1.6533
  145DOPC  C21117239   4.109   4.174   5.892 -0.2921 -0.4770 -0.5009
  145DOPC  H11R17240   4.146   4.069   5.892  2.2348  0.3402 -1.1587
  145DOPC  H11S17241   4.116   4.208   5.786 -1.0877  1.5205  0.0451
  145DOPC  C21217242   3.953   4.183   5.913  0.1587  0.3298 -0.2820
  145DOPC  H12R17243   3.915   4.284   5.890  1.9083  0.4171 -3.2428
  145DOPC  H12S17244   3.917   4.163   6.017  0.1877  0.1425 -0.3063
  145DOPC  C21317245   3.875   4.100   5.806 -0.1447  0.7320 -0.4148
  145DOPC  H13R17246   3.918   4.128   5.708  2.2962 -1.0439  0.0477
  145DOPC  H13S17247   3.769   4.133   5.808 -1.2516 -2.5308  0.9852
  145DOPC  C21417248   3.890   3.947   5.820 -0.5467 -0.4036  0.4415
  145DOPC  H14R17249   3.835   3.904   5.906  2.4714 -2.0663  1.6968
  145DOPC  H14S17250   3.999   3.929   5.825 -0.2714 -0.2202 -2.7609
  145DOPC  C21517251   3.847   3.869   5.693 -0.1182  0.6675  0.3090
  145DOPC  H15R17252   3.926   3.868   5.614 -1.7809  0.2128 -1.4337
  145DOPC  H15S17253   3.751   3.914   5.660 -0.4048  1.1519  1.7236
  145DOPC  C21617254   3.837   3.713   5.724 -0.5957  0.1873  0.4844
  145DOPC  H16R17255   3.758   3.687   5.798 -1.0367 -0.0691 -0.0701
  145DOPC  H16S17256   3.929   3.675   5.773 -0.8687 -0.3608  0.5720
  145DOPC  C21717257   3.827   3.628   5.589  0.3001 -0.2259 -0.3064
  145DOPC  H17R17258   3.910   3.646   5.518 -0.9530 -0.4744 -1.8829
  145DOPC  H17S17259   3.727   3.648   5.547  0.9391 -0.6863 -2.1263
  145DOPC  C21817260   3.823   3.480   5.608  0.2571 -0.0715  0.4134
  145DOPC  H18R17261   3.821   3.418   5.515  1.1187 -0.7466  0.8284
  145DOPC  H18S17262   3.747   3.445   5.681 -2.0651  3.4761 -0.0411
  145DOPC  H18T17263   3.920   3.461   5.657 -1.2738  1.1196  4.2688
  145DOPC   C3317264   4.331   4.574   6.477 -0.6968  0.4463 -0.6479
  145DOPC   H3X17265   4.368   4.483   6.528 -2.0273  0.5930  0.6383
  145DOPC   H3Y17266   4.366   4.662   6.535 -2.3243  0.4567  0.3693
  145DOPC   C3417267   4.383   4.583   6.333 -0.4906  0.0668 -0.9576
  145DOPC   H4X17268   4.309   4.639   6.272 -1.4423  0.4364  0.4700
  145DOPC   H4Y17269   4.389   4.477   6.302 -0.0821 -0.2004  0.0012
  145DOPC   C3517270   4.529   4.640   6.313 -0.3366 -0.4035 -0.0433
  145DOPC   H5X17271   4.598   4.585   6.380  2.7987  3.5923  0.4009
  145DOPC   H5Y17272   4.531   4.742   6.355  2.1602 -0.2331 -0.4063
  145DOPC   C3617273   4.588   4.626   6.171  0.2424 -0.5888 -0.8856
  145DOPC   H6X17274   4.668   4.703   6.166  1.2144 -1.4944  0.1107
  145DOPC   H6Y17275   4.636   4.527   6.161  2.2142 -0.0243  1.7185
  145DOPC   C3717276   4.496   4.638   6.053 -0.3225  0.0149 -0.3159
  145DOPC   H7X17277   4.413   4.565   6.066  0.5195 -0.7097  1.2287
  145DOPC   H7Y17278   4.448   4.737   6.063 -1.0161 -0.2765 -0.6523
  145DOPC   C3817279   4.578   4.610   5.918  0.0591 -0.3701 -0.9626
  145DOPC   H8X17280   4.502   4.573   5.846  0.3069 -1.2355 -0.7922
  145DOPC   H8Y17281   4.656   4.536   5.946  1.2180  1.9357  2.6904
  145DOPC   C3917282   4.639   4.739   5.867 -0.3896 -0.1037  0.3091
  145DOPC   H9X17283   4.572   4.797   5.802 -0.7852 -1.2994 -0.3762
  145DOPC  C31017284   4.761   4.794   5.889 -0.0411  0.3929  1.2969
  145DOPC  H10X17285   4.782   4.890   5.840  0.9500 -0.4400  0.0299
  145DOPC  C31117286   4.872   4.731   5.970 -0.5408 -0.2735  0.7606
  145DOPC  H11X17287   4.969   4.706   5.921  0.0418 -0.6367  2.0556
  145DOPC  H11Y17288   4.851   4.626   5.998 -0.1112 -0.8960 -1.1321
  145DOPC  C31217289   4.908   4.814   6.101 -0.9236 -0.1659  0.7959
  145DOPC  H12X17290   4.816   4.832   6.160 -2.0596  0.9626 -1.2309
  145DOPC  H12Y17291   4.940   4.911   6.057  2.0225 -1.8419 -1.1522
  145DOPC  C31317292   5.027   4.753   6.176 -0.4080 -0.3537  0.3002
  145DOPC  H13X17293   5.009   4.644   6.174 -1.6688 -0.1486 -0.6606
  145DOPC  H13Y17294   5.121   4.777   6.122  0.6725  1.7431  2.8553
  145DOPC  C31417295   5.038   4.811   6.314  0.6130 -0.1308 -0.3837
  145DOPC  H14X17296   5.134   4.783   6.361  0.7130 -1.1196 -1.1259
  145DOPC  H14Y17297   5.031   4.922   6.316 -1.5070 -0.2370  0.6865
  145DOPC  C31517298   4.929   4.764   6.417  0.2968  0.6774  0.0548
  145DOPC  H15X17299   4.928   4.653   6.426 -2.8690  0.6906  0.8488
  145DOPC  H15Y17300   4.824   4.791   6.394  0.2631 -0.5039 -1.3415
  145DOPC  C31617301   4.960   4.815   6.556  0.6996  0.2100 -0.1805
  145DOPC  H16X17302   5.066   4.793   6.582 -0.4196 -1.4127  3.9239
  145DOPC  H16Y17303   4.937   4.923   6.562 -1.4665 -0.2653  1.6005
  145DOPC  C31717304   4.862   4.762   6.658 -0.2714 -0.3065 -0.5585
  145DOPC  H17X17305   4.888   4.807   6.756  1.7766 -0.1290 -1.1276
  145DOPC  H17Y17306   4.757   4.782   6.630 -0.5886  0.0751  0.8360
  145DOPC  C31817307   4.881   4.615   6.692  0.1153  0.0411  0.0513
  145DOPC  H18X17308   4.836   4.545   6.618 -0.1857  0.2765  0.0089
  145DOPC  H18Y17309   4.989   4.596   6.707  0.3828  1.0547 -0.5036
  145DOPC  H18Z17310   4.820   4.600   6.783 -0.1980 -1.3600 -0.3569
  146DOPC     N17311   5.175   3.614   7.655 -0.0179  0.3198  0.6996
  146DOPC   C1217312   5.087   3.547   7.567  0.0029  0.4040 -0.0735
  146DOPC  H12A17313   4.986   3.583   7.578 -0.7619 -0.5926 -2.8041
  146DOPC  H12B17314   5.079   3.445   7.600  0.2046  0.8925  1.5315
  146DOPC   C1317315   5.220   3.741   7.599 -0.0204 -0.1809 -0.0823
  146DOPC  H13A17316   5.260   3.818   7.663  1.6185  1.7655 -3.2053
  146DOPC  H13B17317   5.295   3.728   7.522  0.0519 -0.1370 -0.0200
  146DOPC  H13C17318   5.146   3.792   7.539  1.1034  0.5619 -0.8763
  146DOPC   C1417319   5.290   3.524   7.672 -0.5060  0.1480  0.0175
  146DOPC  H14A17320   5.274   3.458   7.756  2.5200  1.7595  2.0602
  146DOPC  H14B17321   5.311   3.468   7.583 -0.2406 -1.5693  1.1182
  146DOPC  H14C17322   5.372   3.589   7.700 -2.0111  2.0737  0.1660
  146DOPC   C1517323   5.101   3.627   7.787 -0.2442  0.6140 -0.4214
  146DOPC  H15A17324   5.087   3.528   7.829  2.4902  1.3370  2.5751
  146DOPC  H15B17325   5.002   3.670   7.785 -0.9662 -0.4400  3.6276
  146DOPC  H15C17326   5.150   3.684   7.864 -2.2416 -1.5084  2.6537
  146DOPC   C1117327   5.117   3.543   7.417 -0.7466 -0.5590  0.2075
  146DOPC  H11A17328   5.027   3.499   7.368 -0.5174 -1.7337  0.8195
  146DOPC  H11B17329   5.130   3.635   7.356  0.1423 -1.6359 -1.2936
  146DOPC     P17330   5.229   3.301   7.384 -0.1077 -0.4273  0.0334
  146DOPC   O1317331   5.109   3.255   7.458  0.5521 -0.3352 -0.2580
  146DOPC   O1417332   5.361   3.238   7.427  0.4289 -0.5413  0.5049
  146DOPC   O1217333   5.233   3.456   7.401 -0.0832 -0.2389 -0.4550
  146DOPC   O1117334   5.206   3.291   7.231  0.2838  0.1262 -0.1320
  146DOPC    C117335   5.074   3.294   7.171  0.1769 -0.3667  0.7725
  146DOPC    HA17336   5.076   3.394   7.121  3.8115 -0.8960 -0.4776
  146DOPC    HB17337   4.987   3.280   7.239 -1.6496 -0.7821 -1.5269
  146DOPC    C217338   5.053   3.185   7.063 -0.3141  0.3696 -0.1567
  146DOPC    HS17339   5.081   3.089   7.111 -1.7869 -0.4799 -0.9311
  146DOPC   O2117340   5.132   3.208   6.948 -0.0409  0.0868 -0.4002
  146DOPC   C2117341   5.178   3.097   6.881  0.8110  0.6491  0.4703
  146DOPC   O2217342   5.154   2.981   6.908 -0.3329 -0.1115  0.1284
  146DOPC   C2217343   5.272   3.138   6.777 -0.5579  0.3464 -0.3751
  146DOPC   H2R17344   5.344   3.057   6.753  0.5916  0.7846  1.3431
  146DOPC   H2S17345   5.332   3.226   6.810 -1.0676  0.3261  0.6629
  146DOPC    C317346   4.904   3.180   7.030 -0.1124  0.2640 -0.0476
  146DOPC    HX17347   4.866   3.280   7.000 -0.8986 -0.5437 -1.9364
  146DOPC    HY17348   4.841   3.151   7.117 -0.7626  4.3505  1.0556
  146DOPC   O3117349   4.876   3.097   6.912 -0.0609 -0.0332 -0.4816
  146DOPC   C3117350   4.833   2.970   6.920  0.1087  1.0049 -0.0797
  146DOPC   O3217351   4.807   2.910   7.024  0.0281 -0.4657 -0.0869
  146DOPC   C3217352   4.800   2.915   6.777  0.3438  0.1179 -0.1989
  146DOPC   H2X17353   4.713   2.971   6.737  2.0088  1.0959 -2.6688
  146DOPC   H2Y17354   4.877   2.951   6.705 -1.0487  0.9114 -1.3210
  146DOPC   C2317355   5.204   3.175   6.645  0.5407  0.1293 -0.3499
  146DOPC   H3R17356   5.271   3.234   6.578  2.0369 -0.9361  0.1374
  146DOPC   H3S17357   5.114   3.233   6.672 -0.8197 -2.3052  0.6164
  146DOPC   C2417358   5.174   3.046   6.564 -0.1774  0.7149 -0.7202
  146DOPC   H4R17359   5.111   2.984   6.631  0.7774  0.9173  0.3964
  146DOPC   H4S17360   5.272   2.998   6.546  0.6067  1.6330  0.9254
  146DOPC   C2517361   5.085   3.054   6.441  0.2881  0.1351 -0.2992
  146DOPC   H5R17362   5.148   3.107   6.366  2.2848 -0.1832  1.0505
  146DOPC   H5S17363   5.001   3.125   6.458  1.2738  2.0404 -2.7330
  146DOPC   C2617364   5.041   2.909   6.408  0.4344 -0.6802 -0.0896
  146DOPC   H6R17365   4.970   2.885   6.491 -2.9290  0.2548 -2.4792
  146DOPC   H6S17366   5.127   2.839   6.417  0.6871 -0.0989  3.0860
  146DOPC   C2717367   4.985   2.883   6.269 -0.5295 -0.3864 -0.5090
  146DOPC   H7R17368   5.056   2.922   6.193 -0.7114 -0.1117 -0.5369
  146DOPC   H7S17369   4.895   2.948   6.266 -1.3470 -1.3859  0.9052
  146DOPC   C2817370   4.944   2.730   6.247  0.4876  0.0602 -0.1299
  146DOPC   H8R17371   4.856   2.697   6.306  1.2558 -1.5605  0.1461
  146DOPC   H8S17372   5.030   2.662   6.264  1.0328  0.9727  0.8627
  146DOPC   C2917373   4.917   2.704   6.101  0.0852  0.6139 -0.3456
  146DOPC   H9R17374   5.000   2.671   6.037 -0.9638  2.2642 -2.7152
  146DOPC  C21017375   4.791   2.713   6.046 -0.1408  0.7012 -0.3367
  146DOPC  H10R17376   4.785   2.691   5.938  0.9237 -2.5717  0.1572
  146DOPC  C21117377   4.661   2.746   6.121 -0.7383 -0.5425 -0.6142
  146DOPC  H11R17378   4.677   2.772   6.228 -3.1568 -1.0255 -0.0863
  146DOPC  H11S17379   4.591   2.660   6.120  0.3095 -1.4401  0.1957
  146DOPC  C21217380   4.595   2.867   6.051 -0.2374  0.3754 -0.0614
  146DOPC  H12R17381   4.659   2.954   6.024 -0.3951 -0.3157 -2.9826
  146DOPC  H12S17382   4.522   2.904   6.126 -1.5975 -2.4020  0.0934
  146DOPC  C21317383   4.508   2.835   5.924  0.7284  0.2537 -0.2612
  146DOPC  H13R17384   4.439   2.748   5.924  0.0028  0.8084  0.5899
  146DOPC  H13S17385   4.573   2.813   5.836  0.3095 -2.2512 -0.0065
  146DOPC  C21417386   4.417   2.954   5.878  0.2258  1.0802  0.2733
  146DOPC  H14R17387   4.481   3.041   5.855  0.4618  0.7275 -0.4328
  146DOPC  H14S17388   4.344   2.980   5.957  0.0858 -0.1538  0.5718
  146DOPC  C21517389   4.355   2.929   5.743  0.2457 -0.1129  0.2573
  146DOPC  H15R17390   4.287   2.842   5.755 -3.3803  2.1821 -1.6762
  146DOPC  H15S17391   4.431   2.909   5.664  3.2773  2.9462  2.1178
  146DOPC  C21617392   4.268   3.044   5.702 -0.1904 -0.3725  0.8109
  146DOPC  H16R17393   4.195   3.063   5.784 -1.5421  2.7063 -0.9424
  146DOPC  H16S17394   4.221   3.008   5.608 -0.3295 -1.0386  1.1314
  146DOPC  C21717395   4.342   3.183   5.677 -0.3241 -0.1372 -0.6794
  146DOPC  H17R17396   4.361   3.252   5.762  1.8397  0.6221 -1.7087
  146DOPC  H17S17397   4.276   3.252   5.622 -0.3620  0.9435  0.6540
  146DOPC  C21817398   4.471   3.167   5.607  0.2834  0.0638  0.2557
  146DOPC  H18R17399   4.545   3.142   5.685 -0.1811 -1.9062  0.1129
  146DOPC  H18S17400   4.499   3.259   5.552 -1.3500  0.1273 -0.5469
  146DOPC  H18T17401   4.473   3.085   5.531  0.4597  0.0335  0.2943
  146DOPC   C3317402   4.781   2.761   6.775 -0.1677  0.3932 -0.0304
  146DOPC   H3X17403   4.697   2.736   6.842  0.3160  0.1218  0.4778
  146DOPC   H3Y17404   4.870   2.709   6.817  0.4241 -0.8792 -2.6324
  146DOPC   C3417405   4.749   2.697   6.644  0.0258 -0.0642 -0.0359
  146DOPC   H4X17406   4.753   2.587   6.659  0.2559 -0.2889 -1.5968
  146DOPC   H4Y17407   4.830   2.723   6.572  2.0804  1.3203  2.5675
  146DOPC   C3517408   4.602   2.728   6.601 -0.5848 -0.4239  0.0604
  146DOPC   H5X17409   4.605   2.838   6.581  0.4888 -0.6714 -1.2585
  146DOPC   H5Y17410   4.529   2.718   6.685 -1.3504  1.0927 -0.3810
  146DOPC   C3617411   4.560   2.649   6.478 -0.6179 -0.4193 -0.0370
  146DOPC   H6X17412   4.467   2.689   6.432  0.2386 -0.3113 -1.7737
  146DOPC   H6Y17413   4.644   2.666   6.407 -1.3725  0.2892 -0.7801
  146DOPC   C3717414   4.552   2.506   6.499  0.0321  0.2886 -0.5663
  146DOPC   H7X17415   4.653   2.463   6.518 -0.7062 -1.2857  0.0239
  146DOPC   H7Y17416   4.488   2.475   6.585  0.7684  0.3731  0.0143
  146DOPC   C3817417   4.489   2.437   6.378  0.1276  0.0411  1.0924
  146DOPC   H8X17418   4.537   2.477   6.286 -0.5285 -2.0913 -0.2610
  146DOPC   H8Y17419   4.383   2.471   6.370  1.0736  2.8555 -4.0047
  146DOPC   C3917420   4.492   2.284   6.391 -0.4488  0.6840  0.4420
  146DOPC   H9X17421   4.482   2.256   6.497  0.9639  0.6175  0.5686
  146DOPC  C31017422   4.508   2.195   6.286 -0.1058 -0.5951  0.1540
  146DOPC  H10X17423   4.506   2.086   6.303 -0.2249 -0.3889  1.6864
  146DOPC  C31117424   4.528   2.230   6.145  0.7619 -1.1284  0.0740
  146DOPC  H11X17425   4.545   2.335   6.115 -0.6117 -1.3957 -1.8413
  146DOPC  H11Y17426   4.432   2.213   6.093  0.7201 -1.9941  0.4060
  146DOPC  C31217427   4.639   2.142   6.091  0.4911  0.4151 -0.4742
  146DOPC  H12X17428   4.617   2.034   6.104  1.3894 -0.1961 -3.2941
  146DOPC  H12Y17429   4.739   2.167   6.131 -1.1138  3.3881  2.0967
  146DOPC  C31317430   4.678   2.148   5.941  0.3664 -0.3970  0.1802
  146DOPC  H13X17431   4.578   2.145   5.893  0.0929 -1.2456  0.7858
  146DOPC  H13Y17432   4.718   2.251   5.929  0.1233 -0.3315 -0.0858
  146DOPC  C31417433   4.773   2.040   5.892  0.1496  0.0959 -0.1823
  146DOPC  H14X17434   4.873   2.040   5.941  0.0408  2.1381  0.1118
  146DOPC  H14Y17435   4.734   1.941   5.925  0.3094  0.5732  1.4889
  146DOPC  C31517436   4.803   2.026   5.744 -1.0173 -0.4989  0.0820
  146DOPC  H15X17437   4.867   1.938   5.721 -0.8387 -0.1494 -0.7898
  146DOPC  H15Y17438   4.858   2.116   5.709 -1.7681 -0.4483 -0.9915
  146DOPC  C31617439   4.690   2.024   5.648  0.5815  0.6899 -0.3426
  146DOPC  H16X17440   4.639   1.925   5.642  1.6473  0.1366 -0.5585
  146DOPC  H16Y17441   4.606   2.093   5.672  0.1929  0.9531 -2.2586
  146DOPC  C31717442   4.711   2.061   5.504 -0.5500 -0.5702  0.7563
  146DOPC  H17X17443   4.786   2.141   5.488 -0.6292 -0.7727 -0.8658
  146DOPC  H17Y17444   4.754   1.968   5.461 -2.8158 -0.9729 -0.8175
  146DOPC  C31817445   4.575   2.094   5.448  0.3440  0.2776 -0.8945
  146DOPC  H18X17446   4.574   2.125   5.341 -1.0394  2.0577 -0.4215
  146DOPC  H18Y17447   4.508   2.010   5.474  0.0568  0.8028  0.1263
  146DOPC  H18Z17448   4.536   2.183   5.501 -0.3626 -1.2932  1.3801
  147DOPC     N17449   1.467   1.944   6.728 -0.4262  0.1668 -0.2829
  147DOPC   C1217450   1.614   1.990   6.740  0.0194  1.3597  0.5062
  147DOPC  H12A17451   1.613   2.083   6.796 -1.5285  1.2458  0.6874
  147DOPC  H12B17452   1.648   2.022   6.642 -0.5013  2.5466  0.6977
  147DOPC   C1317453   1.455   1.830   6.633 -0.3498 -0.8162 -0.2514
  147DOPC  H13A17454   1.460   1.873   6.535 -0.3208  0.9166  0.4865
  147DOPC  H13B17455   1.526   1.751   6.652 -1.1270 -0.8070  3.5662
  147DOPC  H13C17456   1.358   1.782   6.638 -0.0482 -1.6599 -1.7121
  147DOPC   C1417457   1.385   2.056   6.679 -0.1350  0.0946 -0.3647
  147DOPC  H14A17458   1.281   2.031   6.672 -0.1167 -0.1735  0.3302
  147DOPC  H14B17459   1.387   2.143   6.744  0.8244  2.4547 -3.2807
  147DOPC  H14C17460   1.408   2.099   6.582 -0.8702  0.1410 -0.5224
  147DOPC   C1517461   1.417   1.891   6.859 -0.2180  0.2075  0.3507
  147DOPC  H15A17462   1.309   1.884   6.857 -0.3890  1.8292  1.7245
  147DOPC  H15B17463   1.441   1.970   6.929 -2.3021  0.4668  0.8250
  147DOPC  H15C17464   1.476   1.804   6.883  0.9739  0.4646 -1.4363
  147DOPC   C1117465   1.717   1.879   6.780 -0.3387 -0.5915 -0.2529
  147DOPC  H11A17466   1.816   1.920   6.809 -2.2219  4.7188 -0.2454
  147DOPC  H11B17467   1.684   1.842   6.879 -0.4323 -0.8464 -0.3791
  147DOPC     P17468   1.820   1.747   6.583 -0.1512  0.5889 -0.2541
  147DOPC   O1317469   1.938   1.660   6.631 -0.4621 -0.6587 -0.0997
  147DOPC   O1417470   1.847   1.875   6.516  0.0145  0.4698  0.0941
  147DOPC   O1217471   1.719   1.764   6.698 -0.3084  0.0797  0.6894
  147DOPC   O1117472   1.728   1.668   6.468 -0.2444 -0.2569 -0.4852
  147DOPC    C117473   1.745   1.526   6.447 -0.0207 -0.0040 -0.3817
  147DOPC    HA17474   1.640   1.493   6.428 -0.6111  0.8029  1.2969
  147DOPC    HB17475   1.783   1.473   6.537  1.4502  2.3053  0.4361
  147DOPC    C217476   1.834   1.496   6.320  0.2541 -0.7138  0.2376
  147DOPC    HS17477   1.937   1.525   6.350  0.2354 -0.0745 -0.2948
  147DOPC   O2117478   1.790   1.566   6.207 -0.1230 -0.2652  0.6374
  147DOPC   C2117479   1.879   1.588   6.113 -0.9822  0.3960 -0.0896
  147DOPC   O2217480   1.995   1.552   6.123 -0.5667  0.4246 -0.2624
  147DOPC   C2217481   1.822   1.661   5.991 -0.0063  0.3083  0.1925
  147DOPC   H2R17482   1.760   1.745   6.029 -0.1285 -0.6169  2.1693
  147DOPC   H2S17483   1.755   1.587   5.941 -2.4360  2.0187  0.7602
  147DOPC    C317484   1.832   1.338   6.284 -0.5686  0.6796 -0.1708
  147DOPC    HX17485   1.845   1.282   6.379 -0.4378  1.1115  0.0678
  147DOPC    HY17486   1.922   1.322   6.222 -1.3958  2.0552 -1.8130
  147DOPC   O3117487   1.724   1.301   6.207  0.2034 -0.4856  0.6818
  147DOPC   C3117488   1.609   1.269   6.274 -1.2212  0.0406 -0.1106
  147DOPC   O3217489   1.604   1.232   6.389  0.2796 -0.2517  0.1249
  147DOPC   C3217490   1.491   1.272   6.174 -0.1524  0.5447 -0.5457
  147DOPC   H2X17491   1.507   1.178   6.117 -0.3037 -0.6985  1.3811
  147DOPC   H2Y17492   1.398   1.252   6.232 -0.2339 -2.0297 -1.4080
  147DOPC   C2317493   1.926   1.719   5.893  0.5247  0.1145  0.5782
  147DOPC   H3R17494   1.872   1.747   5.800  1.2020 -2.2729 -0.6368
  147DOPC   H3S17495   2.008   1.651   5.860 -1.3397 -0.5551 -3.2941
  147DOPC   C2417496   1.986   1.842   5.956 -0.7482 -0.5397 -0.0782
  147DOPC   H4R17497   2.061   1.810   6.031  0.6459 -2.0559 -2.0118
  147DOPC   H4S17498   1.911   1.896   6.017 -0.0616 -0.7578  0.9712
  147DOPC   C2517499   2.042   1.949   5.862 -0.1835  0.0730 -0.6001
  147DOPC   H5R17500   1.968   1.973   5.783 -0.1824  2.3807  0.0195
  147DOPC   H5S17501   2.140   1.927   5.813  1.1171  1.3849  1.2708
  147DOPC   C2617502   2.077   2.076   5.940  0.4221 -0.3697 -0.2724
  147DOPC   H6R17503   1.985   2.094   6.000 -0.4092 -1.8166 -1.0571
  147DOPC   H6S17504   2.099   2.162   5.873  2.4950 -1.8425 -1.5860
  147DOPC   C2717505   2.188   2.072   6.045  0.1063  0.9421  0.2099
  147DOPC   H7R17506   2.147   1.987   6.103  0.2049 -0.1812 -1.3103
  147DOPC   H7S17507   2.181   2.167   6.104 -1.5914  0.3086  1.1215
  147DOPC   C2817508   2.324   2.051   5.986 -0.3440  0.1718  0.3516
  147DOPC   H8R17509   2.314   1.968   5.912 -0.8579  1.2199 -0.8043
  147DOPC   H8S17510   2.388   2.007   6.066 -1.6436 -1.3793  0.5959
  147DOPC   C2917511   2.396   2.169   5.927 -0.3580 -0.1782 -0.9702
  147DOPC   H9R17512   2.433   2.249   5.992 -0.3979  0.9221 -2.2392
  147DOPC  C21017513   2.413   2.197   5.797 -0.7326  0.1183  0.0052
  147DOPC  H10R17514   2.446   2.300   5.777  0.8041 -0.7278 -2.1449
  147DOPC  C21117515   2.371   2.115   5.677  0.6471  0.3417 -0.6244
  147DOPC  H11R17516   2.326   2.186   5.605  1.0319  0.8550 -0.3615
  147DOPC  H11S17517   2.310   2.023   5.684  1.5118 -0.1839  0.3619
  147DOPC  C21217518   2.494   2.077   5.589 -0.0218  0.1098 -0.2821
  147DOPC  H12R17519   2.558   2.040   5.672 -1.5827  1.6670  1.7312
  147DOPC  H12S17520   2.540   2.172   5.552 -0.7720  0.9632  0.8889
  147DOPC  C21317521   2.471   1.976   5.476 -0.0863 -0.3336 -0.4871
  147DOPC  H13R17522   2.434   2.029   5.387  0.1616  0.5400 -0.0828
  147DOPC  H13S17523   2.416   1.887   5.511 -0.6457  0.0739 -0.3249
  147DOPC  C21417524   2.604   1.918   5.425 -0.3307 -0.7902  0.1672
  147DOPC  H14R17525   2.661   1.897   5.517 -0.8433  0.3759  0.7792
  147DOPC  H14S17526   2.668   1.986   5.364  3.4908 -1.2355  3.3560
  147DOPC  C21517527   2.596   1.791   5.336 -0.0022 -0.2953 -0.4827
  147DOPC  H15R17528   2.555   1.702   5.388 -2.5203  1.0299 -0.0375
  147DOPC  H15S17529   2.698   1.772   5.296  0.8416  2.4627  0.1218
  147DOPC  C21617530   2.499   1.819   5.226  0.3485 -0.7734  0.3795
  147DOPC  H16R17531   2.516   1.917   5.177 -2.1453 -0.8812 -0.8804
  147DOPC  H16S17532   2.393   1.824   5.259  0.6719  2.9604  1.2149
  147DOPC  C21717533   2.498   1.718   5.107 -0.4610 -0.4961  0.2221
  147DOPC  H17R17534   2.603   1.708   5.071 -0.3037  0.3893  0.4280
  147DOPC  H17S17535   2.435   1.758   5.026 -1.5133 -0.5885  0.9770
  147DOPC  C21817536   2.454   1.583   5.150  0.4342 -0.3498 -0.3528
  147DOPC  H18R17537   2.449   1.504   5.072  0.4526  0.2566 -0.9803
  147DOPC  H18S17538   2.355   1.589   5.199  0.2155 -0.2259 -0.8107
  147DOPC  H18T17539   2.522   1.537   5.226  1.2945  0.2613 -0.7309
  147DOPC   C3317540   1.481   1.398   6.084  0.0288  0.3895  0.3638
  147DOPC   H3X17541   1.530   1.389   5.985  1.0586 -0.0259  0.8993
  147DOPC   H3Y17542   1.521   1.494   6.124 -0.2183  0.6583 -0.0241
  147DOPC   C3417543   1.336   1.425   6.053 -0.6696  0.0158  0.5488
  147DOPC   H4X17544   1.277   1.442   6.145 -1.0842  2.3373 -0.0701
  147DOPC   H4Y17545   1.289   1.334   6.010  0.8513 -0.5676  0.0542
  147DOPC   C3517546   1.308   1.542   5.955  0.4236  0.0529  0.1613
  147DOPC   H5X17547   1.362   1.524   5.860 -0.4428 -1.1730 -0.1387
  147DOPC   H5Y17548   1.340   1.640   5.996  1.0098  0.5328 -1.3762
  147DOPC   C3617549   1.152   1.558   5.926  0.0662 -0.4279  0.2351
  147DOPC   H6X17550   1.106   1.473   5.872 -1.6437  0.2974  0.4686
  147DOPC   H6Y17551   1.107   1.573   6.027 -0.1122  1.1517 -0.0465
  147DOPC   C3717552   1.131   1.680   5.837  0.3197 -0.2018 -0.0101
  147DOPC   H7X17553   1.201   1.763   5.861 -0.6800  0.8347 -0.5676
  147DOPC   H7Y17554   1.147   1.650   5.731 -1.2724 -3.0051  0.4310
  147DOPC   C3817555   0.988   1.725   5.848 -0.4513 -0.0639 -0.4113
  147DOPC   H8X17556   0.928   1.638   5.814  1.0084 -3.1356  4.0417
  147DOPC   H8Y17557   0.984   1.819   5.788  0.0595  0.9211  1.0404
  147DOPC   C3917558   0.952   1.779   5.988  0.6045  0.4487 -0.4863
  147DOPC   H9X17559   1.033   1.834   6.038 -1.0901  0.8650  1.9583
  147DOPC  C31017560   0.841   1.750   6.064 -0.1812  0.1695  0.3757
  147DOPC  H10X17561   0.826   1.803   6.160 -0.8002 -0.9985  0.9464
  147DOPC  C31117562   0.725   1.660   6.035 -0.3052  0.1266 -0.2126
  147DOPC  H11X17563   0.680   1.619   6.127 -0.7745  1.4621  0.1680
  147DOPC  H11Y17564   0.769   1.572   5.983  0.2207 -0.3136  0.9414
  147DOPC  C31217565   0.613   1.727   5.950 -0.5173 -0.0549  0.5319
  147DOPC  H12X17566   0.664   1.781   5.867 -0.1398 -0.6938  0.3396
  147DOPC  H12Y17567   0.557   1.792   6.020 -0.0966 -0.5174  1.3020
  147DOPC  C31317568   0.505   1.626   5.904  0.6462  0.2759 -0.2823
  147DOPC  H13X17569   0.553   1.536   5.861  0.5520  0.4279 -0.7103
  147DOPC  H13Y17570   0.458   1.583   5.995 -0.6263 -1.6519 -1.7674
  147DOPC  C31417571   0.400   1.672   5.802  0.0407 -0.5311  0.0604
  147DOPC  H14X17572   0.391   1.783   5.802 -0.0253 -0.5350  0.2301
  147DOPC  H14Y17573   0.423   1.650   5.696 -1.3047  0.8880 -0.5728
  147DOPC  C31517574   0.258   1.622   5.840 -0.4652  0.6345 -0.2471
  147DOPC  H15X17575   0.227   1.673   5.933  1.2944 -1.4206  1.5964
  147DOPC  H15Y17576   0.256   1.513   5.862 -2.9009  0.2914 -1.8583
  147DOPC  C31617577   0.165   1.648   5.718 -0.4853 -0.3752 -0.4609
  147DOPC  H16X17578   0.062   1.633   5.757  0.0215  0.6208  1.4055
  147DOPC  H16Y17579   0.182   1.756   5.693  2.0438 -0.6265 -0.0858
  147DOPC  C31717580   0.198   1.571   5.585 -0.0753 -0.3056 -0.4222
  147DOPC  H17X17581   0.303   1.589   5.554  0.0486  3.0473  1.4064
  147DOPC  H17Y17582   0.179   1.462   5.596 -0.3022 -0.2771 -0.5201
  147DOPC  C31817583   0.117   1.629   5.482 -0.1417 -0.0062  0.1681
  147DOPC  H18X17584   0.007   1.622   5.491 -0.3293  0.1225 -1.7752
  147DOPC  H18Y17585   0.137   1.737   5.463  0.0883 -0.1871 -0.6461
  147DOPC  H18Z17586   0.145   1.580   5.387 -0.2110  0.0628  0.1122
  148DOPC     N17587   2.992   4.644   7.158  0.0009 -0.1945  0.1491
  148DOPC   C1217588   3.140   4.624   7.184  0.0741  0.1819  0.4655
  148DOPC  H12A17589   3.149   4.539   7.250  0.1948  0.5244  0.8902
  148DOPC  H12B17590   3.181   4.700   7.248  1.2797 -0.4638  0.5024
  148DOPC   C1317591   2.918   4.517   7.121  0.5117  0.0403 -0.3317
  148DOPC  H13A17592   2.930   4.436   7.191  0.2082 -2.0295 -2.5598
  148DOPC  H13B17593   2.812   4.536   7.126  0.0131 -2.5240 -0.2910
  148DOPC  H13C17594   2.959   4.473   7.031  1.0231  2.2377 -1.2450
  148DOPC   C1417595   2.959   4.754   7.064 -0.3063  0.1953 -0.5780
  148DOPC  H14A17596   3.000   4.844   7.107  0.8768 -1.0691  1.0537
  148DOPC  H14B17597   2.985   4.747   6.959 -1.6443  2.4373 -1.1076
  148DOPC  H14C17598   2.852   4.760   7.057 -0.6892 -2.4294  1.5129
  148DOPC   C1517599   2.928   4.681   7.285  0.9280 -0.4169 -0.0832
  148DOPC  H15A17600   2.941   4.610   7.365  0.5281  0.6740  0.9731
  148DOPC  H15B17601   2.823   4.706   7.278  1.4215  2.2595  0.8056
  148DOPC  H15C17602   2.969   4.768   7.334 -0.6561 -1.3865  3.2100
  148DOPC   C1117603   3.224   4.596   7.065 -0.4976 -0.1436 -0.1340
  148DOPC  H11A17604   3.229   4.686   7.000 -2.9593  0.6860  0.7490
  148DOPC  H11B17605   3.325   4.573   7.107 -0.4719  0.7850  0.3563
  148DOPC     P17606   3.262   4.365   6.937  0.0219 -0.1068  0.0974
  148DOPC   O1317607   3.202   4.301   6.819 -0.1281  0.5961 -0.1672
  148DOPC   O1417608   3.308   4.278   7.046  0.0209  0.0841 -0.3388
  148DOPC   O1217609   3.170   4.480   6.999 -0.4831 -0.2426  0.3152
  148DOPC   O1117610   3.381   4.453   6.879 -0.4266 -0.5607 -0.2795
  148DOPC    C117611   3.499   4.403   6.816  0.3967  0.4155 -0.2340
  148DOPC    HA17612   3.538   4.310   6.862 -0.7063 -0.1183 -0.3453
  148DOPC    HB17613   3.587   4.470   6.829  1.2374 -0.9061  1.2564
  148DOPC    C217614   3.485   4.367   6.667 -0.2027 -0.5894  0.6048
  148DOPC    HS17615   3.396   4.302   6.650 -0.0368 -0.3775 -1.3936
  148DOPC   O2117616   3.605   4.306   6.613 -0.3664  0.1139  0.2717
  148DOPC   C2117617   3.589   4.186   6.561 -0.1017 -0.3428  0.0794
  148DOPC   O2217618   3.486   4.117   6.567  0.1677 -0.4515  0.3412
  148DOPC   C2217619   3.710   4.152   6.475  0.0193 -0.0013  1.5333
  148DOPC   H2R17620   3.709   4.044   6.446 -1.7644  0.0305  1.3798
  148DOPC   H2S17621   3.801   4.171   6.536  1.1488  1.1158 -0.4085
  148DOPC    C317622   3.451   4.493   6.592  0.1366 -0.2297  0.5069
  148DOPC    HX17623   3.528   4.566   6.625 -1.7004  0.7187  3.0307
  148DOPC    HY17624   3.358   4.544   6.627  0.3672  1.3834 -1.0775
  148DOPC   O3117625   3.443   4.470   6.449 -0.5809  0.1411 -0.1073
  148DOPC   C3117626   3.495   4.557   6.376 -0.3915 -0.0042 -0.1346
  148DOPC   O3217627   3.560   4.656   6.406 -0.2199  0.1499 -0.4021
  148DOPC   C3217628   3.444   4.524   6.234  0.1655  1.1390 -0.5982
  148DOPC   H2X17629   3.494   4.427   6.211 -1.1900  0.4466 -0.7418
  148DOPC   H2Y17630   3.344   4.477   6.242  1.5743 -2.2056 -1.0543
  148DOPC   C2317631   3.724   4.231   6.339  0.2971 -0.1768 -0.3685
  148DOPC   H3R17632   3.620   4.244   6.300  0.5432 -0.2157 -1.0454
  148DOPC   H3S17633   3.757   4.158   6.262 -0.1142 -0.9108  0.1376
  148DOPC   C2417634   3.833   4.335   6.345  0.2711 -0.5985 -0.3861
  148DOPC   H4R17635   3.931   4.289   6.369  0.4237 -0.5124 -0.8435
  148DOPC   H4S17636   3.804   4.403   6.428  0.2936 -1.3064  0.2114
  148DOPC   C2517637   3.840   4.411   6.209 -0.4012  0.6524 -0.3959
  148DOPC   H5R17638   3.741   4.455   6.186 -0.6383 -0.2352 -1.1506
  148DOPC   H5S17639   3.857   4.339   6.126  0.6277 -0.5317  0.7945
  148DOPC   C2617640   3.955   4.512   6.202  0.0493  0.8091  0.4489
  148DOPC   H6R17641   4.046   4.455   6.233  0.3289 -0.0142 -1.7145
  148DOPC   H6S17642   3.943   4.599   6.270 -2.4777  1.8821 -1.2382
  148DOPC   C2717643   3.972   4.570   6.063  0.1339  0.6543 -0.7621
  148DOPC   H7R17644   3.884   4.634   6.039 -1.4438 -0.7608  0.9708
  148DOPC   H7S17645   3.963   4.488   5.988 -0.7453 -0.4284  0.4971
  148DOPC   C2817646   4.111   4.640   6.052 -0.5684 -0.3439 -0.3942
  148DOPC   H8R17647   4.136   4.659   5.945 -0.0707  1.6737  0.0460
  148DOPC   H8S17648   4.193   4.570   6.080 -1.1239 -0.0425  2.1555
  148DOPC   C2917649   4.121   4.762   6.139  0.2244  0.4143 -0.0993
  148DOPC   H9R17650   4.116   4.747   6.248  1.6277  0.7257  0.0223
  148DOPC  C21017651   4.133   4.886   6.098  0.3839 -0.0270  0.5503
  148DOPC  H10R17652   4.147   4.963   6.175  1.6585 -0.5711  0.8841
  148DOPC  C21117653   4.135   4.939   5.955  0.0987  0.1996  0.3981
  148DOPC  H11R17654   4.086   5.039   5.955 -0.6485 -0.1423 -1.1359
  148DOPC  H11S17655   4.091   4.864   5.885  0.2240  0.3928  0.1097
  148DOPC  C21217656   4.283   4.972   5.921 -0.6628  0.1141  0.3131
  148DOPC  H12R17657   4.340   4.877   5.920 -1.1601 -0.2350  2.0516
  148DOPC  H12S17658   4.329   5.047   5.989  1.9171 -0.5801 -0.5518
  148DOPC  C21317659   4.314   5.026   5.774  0.2262 -0.4461 -0.1378
  148DOPC  H13R17660   4.424   5.015   5.765 -0.0085 -0.8438 -4.7644
  148DOPC  H13S17661   4.283   5.132   5.766  2.2635  0.0783 -2.0531
  148DOPC  C21417662   4.257   4.943   5.656  0.2140  0.2627  0.4919
  148DOPC  H14R17663   4.296   4.987   5.562 -1.2425  0.4920 -0.0367
  148DOPC  H14S17664   4.152   4.976   5.668  1.0042  2.6070  1.4915
  148DOPC  C21517665   4.278   4.788   5.655  0.5253 -0.1477  0.4969
  148DOPC  H15R17666   4.242   4.739   5.748  1.0873  2.9698  2.5024
  148DOPC  H15S17667   4.385   4.763   5.640  0.8691 -0.1075  2.6213
  148DOPC  C21617668   4.204   4.722   5.541 -1.1458 -0.5605 -0.0434
  148DOPC  H16R17669   4.232   4.777   5.449 -3.5052 -0.0440 -0.5196
  148DOPC  H16S17670   4.097   4.738   5.567 -0.9620  0.8024 -0.0812
  148DOPC  C21717671   4.220   4.568   5.523 -0.1163 -0.1764 -0.0779
  148DOPC  H17R17672   4.328   4.549   5.503 -0.3924 -1.1385 -0.7148
  148DOPC  H17S17673   4.166   4.551   5.427 -1.1004  1.1419  0.2203
  148DOPC  C21817674   4.158   4.481   5.633  0.1141 -0.0462 -0.6411
  148DOPC  H18R17675   4.056   4.453   5.601  0.6624 -1.0408 -1.5639
  148DOPC  H18S17676   4.157   4.537   5.729 -0.6862 -1.5450  0.2654
  148DOPC  H18T17677   4.217   4.388   5.647 -2.5980 -2.0632 -1.7312
  148DOPC   C3317678   3.450   4.634   6.135  0.3407 -0.0884 -0.0141
  148DOPC   H3X17679   3.555   4.648   6.099  0.9805 -1.9437  1.0316
  148DOPC   H3Y17680   3.420   4.732   6.178  0.0427 -0.2581  0.1603
  148DOPC   C3417681   3.366   4.601   6.012 -1.0040 -0.5292 -0.4306
  148DOPC   H4X17682   3.273   4.551   6.048 -0.8634  0.7172  1.8279
  148DOPC   H4Y17683   3.427   4.527   5.956 -0.1829  0.3042 -0.6598
  148DOPC   C3517684   3.339   4.721   5.919  0.1236 -0.0743 -0.2947
  148DOPC   H5X17685   3.435   4.775   5.905  3.0383 -4.4063  1.0941
  148DOPC   H5Y17686   3.269   4.789   5.973 -1.3715 -1.2193 -0.7189
  148DOPC   C3617687   3.273   4.684   5.784  0.5307 -0.2997 -0.1459
  148DOPC   H6X17688   3.337   4.618   5.722  0.8757 -2.6107  2.4630
  148DOPC   H6Y17689   3.178   4.631   5.803  0.2953  0.0651 -0.3057
  148DOPC   C3717690   3.227   4.805   5.703  0.5068 -0.2750  0.3769
  148DOPC   H7X17691   3.167   4.868   5.773  0.0143 -1.6699  1.2707
  148DOPC   H7Y17692   3.326   4.844   5.673  1.6038 -2.8893  0.3285
  148DOPC   C3817693   3.152   4.765   5.577 -0.3078 -0.1291 -0.7328
  148DOPC   H8X17694   3.055   4.717   5.606 -1.6834  2.5736 -0.5776
  148DOPC   H8Y17695   3.210   4.683   5.531 -1.2236 -0.5909 -1.0941
  148DOPC   C3917696   3.144   4.872   5.481  0.0034  0.1371  0.0861
  148DOPC   H9X17697   3.240   4.918   5.453 -0.9129  1.3524 -1.2328
  148DOPC  C31017698   3.033   4.912   5.415 -0.4747  0.2880 -0.2182
  148DOPC  H10X17699   3.043   4.981   5.331  1.8150  0.0691 -0.1868
  148DOPC  C31117700   2.896   4.853   5.436 -0.2959 -0.2995 -0.1097
  148DOPC  H11X17701   2.836   4.914   5.506  2.0624  0.0816  1.7203
  148DOPC  H11Y17702   2.900   4.749   5.476  2.2451 -0.0994  0.2995
  148DOPC  C31217703   2.810   4.837   5.309 -0.6171  0.4729 -0.4866
  148DOPC  H12X17704   2.722   4.773   5.334 -0.6286  0.1168 -1.4101
  148DOPC  H12Y17705   2.872   4.778   5.238  1.0021  1.2135  0.2551
  148DOPC  C31317706   2.767   4.970   5.249 -0.1614 -0.0234  0.2293
  148DOPC  H13X17707   2.717   5.032   5.326 -1.9594 -2.4473  1.1005
  148DOPC  H13Y17708   2.861   5.017   5.212  0.7854 -1.7351  0.3641
  148DOPC  C31417709   2.682   4.952   5.118  0.5871 -0.2440  0.3626
  148DOPC  H14X17710   2.723   4.877   5.048  0.1889 -1.5838  1.5167
  148DOPC  H14Y17711   2.591   4.897   5.152 -0.1898  0.6393 -0.2321
  148DOPC  C31517712   2.645   5.081   5.047  0.4487 -0.7455  1.0940
  148DOPC  H15X17713   2.740   5.138   5.034  0.5801 -0.2304  3.6607
  148DOPC  H15Y17714   2.581   5.153   5.102  0.3571  0.2304 -0.2386
  148DOPC  C31617715   2.583   5.060   4.912  0.1741  0.1672 -0.4472
  148DOPC  H16X17716   2.497   4.992   4.931  0.4976 -0.7104 -1.9787
  148DOPC  H16Y17717   2.521   5.145   4.874  1.5496 -0.0945 -3.5584
  148DOPC  C31717718   2.671   4.998   4.802 -0.2373  0.4271 -0.0710
  148DOPC  H17X17719   2.712   4.900   4.835  0.7966  0.9965  0.3589
  148DOPC  H17Y17720   2.609   4.968   4.715  0.5263  0.3169 -0.5882
  148DOPC  C31817721   2.785   5.084   4.756 -0.1880 -0.5036 -0.2576
  148DOPC  H18X17722   2.859   5.103   4.836  2.4671  1.4992 -2.9414
  148DOPC  H18Y17723   2.833   5.034   4.668  0.1343  0.2896 -0.5358
  148DOPC  H18Z17724   2.753   5.182   4.714  0.5945 -0.3222 -0.4457
  149DOPC     N17725   2.349   1.866   6.605 -0.4552  0.1378  0.5172
  149DOPC   C1217726   2.425   1.928   6.720  0.2492  0.3596  0.0305
  149DOPC  H12A17727   2.434   1.851   6.795  1.7635 -1.7828 -2.2097
  149DOPC  H12B17728   2.362   2.005   6.762  1.3828  1.0714  0.5034
  149DOPC   C1317729   2.416   1.736   6.567  0.5411  0.1853  0.5171
  149DOPC  H13A17730   2.410   1.668   6.650 -0.4631  0.6816  0.8749
  149DOPC  H13B17731   2.352   1.686   6.496 -0.8661  2.6512 -0.0971
  149DOPC  H13C17732   2.517   1.741   6.530 -0.4989  2.2439 -2.4807
  149DOPC   C1417733   2.342   1.952   6.485  0.1969 -0.0341  0.0886
  149DOPC  H14A17734   2.298   1.896   6.403  1.4322 -1.1938  0.1798
  149DOPC  H14B17735   2.289   2.044   6.504  2.1296  0.8417  1.5771
  149DOPC  H14C17736   2.442   1.971   6.448  0.4868 -1.0710  0.3081
  149DOPC   C1517737   2.210   1.825   6.659 -0.1440 -0.4216 -0.1436
  149DOPC  H15A17738   2.157   1.915   6.688  2.1262  0.9523 -0.0145
  149DOPC  H15B17739   2.221   1.764   6.747 -0.9892 -1.6879 -0.8808
  149DOPC  H15C17740   2.149   1.770   6.589  0.0419 -2.1968  1.0307
  149DOPC   C1117741   2.567   1.967   6.693  0.5067 -0.0944  0.1033
  149DOPC  H11A17742   2.636   1.882   6.670  1.1615  0.3468  0.3921
  149DOPC  H11B17743   2.563   2.030   6.602  0.7480 -0.3403 -0.0836
  149DOPC     P17744   2.669   1.945   6.932 -0.3737 -0.3425  0.0930
  149DOPC   O1317745   2.559   1.872   6.995 -0.5163  0.2002 -0.8061
  149DOPC   O1417746   2.747   2.038   7.019  0.1058  0.2260  0.4721
  149DOPC   O1217747   2.617   2.032   6.810 -0.0958 -0.1447 -0.2319
  149DOPC   O1117748   2.765   1.840   6.868 -0.2013 -0.4199  0.5646
  149DOPC    C117749   2.907   1.854   6.866 -0.8094 -0.1511  0.0616
  149DOPC    HA17750   2.954   1.754   6.871  0.0242  0.0902 -1.8315
  149DOPC    HB17751   2.950   1.914   6.949 -0.7910  1.0947 -0.8210
  149DOPC    C217752   2.954   1.921   6.733  0.0706 -0.4195 -0.5573
  149DOPC    HS17753   2.897   2.016   6.733 -1.9439 -1.5285  1.7627
  149DOPC   O2117754   2.919   1.836   6.618  0.6478 -0.2137  0.3524
  149DOPC   C2117755   2.878   1.909   6.512 -0.2419  0.0071  0.4733
  149DOPC   O2217756   2.864   2.027   6.503  0.3044 -0.4182  0.0758
  149DOPC   C2217757   2.848   1.816   6.397 -0.2509 -0.1165  0.0747
  149DOPC   H2R17758   2.809   1.718   6.434  1.8451  0.1774  3.5721
  149DOPC   H2S17759   2.944   1.791   6.347 -0.3432  1.2544 -0.8147
  149DOPC    C317760   3.107   1.938   6.735  0.0508 -0.7613  0.1509
  149DOPC    HX17761   3.143   1.840   6.772  0.4807 -0.7170 -0.1367
  149DOPC    HY17762   3.131   2.008   6.819 -1.9075  0.7588 -0.4845
  149DOPC   O3117763   3.163   1.967   6.606 -0.2108  0.2114  0.0378
  149DOPC   C3117764   3.201   2.098   6.595 -0.1621  0.9460 -0.9552
  149DOPC   O3217765   3.185   2.188   6.675 -0.4001  0.3041  0.5272
  149DOPC   C3217766   3.249   2.127   6.459 -1.0685 -0.3988  0.4097
  149DOPC   H2X17767   3.359   2.123   6.472 -0.7661  2.4537 -0.5905
  149DOPC   H2Y17768   3.226   2.039   6.395  0.2540  0.0062 -0.6699
  149DOPC   C2317769   2.744   1.865   6.292  0.1519 -0.1771  0.0788
  149DOPC   H3R17770   2.786   1.918   6.204  1.3520 -0.1129  0.6687
  149DOPC   H3S17771   2.665   1.929   6.337  1.3287  0.3047  1.5449
  149DOPC   C2417772   2.676   1.744   6.235  0.1013  0.0996 -0.0501
  149DOPC   H4R17773   2.616   1.691   6.311 -0.9186 -0.5193 -1.2636
  149DOPC   H4S17774   2.747   1.667   6.198 -1.6972 -1.2715 -0.7379
  149DOPC   C2517775   2.578   1.782   6.114 -0.2322  0.1394 -0.0902
  149DOPC   H5R17776   2.636   1.840   6.039  0.9678 -0.9527 -0.0499
  149DOPC   H5S17777   2.502   1.839   6.172 -1.5082 -1.0297 -0.5617
  149DOPC   C2617778   2.520   1.658   6.039  0.0678 -0.5929 -0.4675
  149DOPC   H6R17779   2.501   1.591   6.125  1.1209 -0.9344 -0.4868
  149DOPC   H6S17780   2.602   1.606   5.984  3.5011  0.4891  3.2154
  149DOPC   C2717781   2.391   1.688   5.961  0.2400  0.0076 -0.2701
  149DOPC   H7R17782   2.415   1.764   5.884 -2.7054  0.3939 -0.9465
  149DOPC   H7S17783   2.314   1.738   6.024  1.0376  1.3316 -0.3185
  149DOPC   C2817784   2.329   1.564   5.892  0.2778 -0.0370 -0.5072
  149DOPC   H8R17785   2.228   1.591   5.854 -0.0531 -0.0795  0.3096
  149DOPC   H8S17786   2.311   1.486   5.969 -0.2237  0.3823 -0.1945
  149DOPC   C2917787   2.412   1.516   5.782 -0.6309  0.3483 -0.7755
  149DOPC   H9R17788   2.514   1.490   5.813 -1.8996 -1.0887  2.6398
  149DOPC  C21017789   2.377   1.490   5.658  0.0541 -0.4284  0.4424
  149DOPC  H10R17790   2.447   1.453   5.582  2.1531 -1.3157  2.7152
  149DOPC  C21117791   2.238   1.505   5.596  0.2111  0.0492  0.4850
  149DOPC  H11R17792   2.160   1.526   5.672 -1.9172  0.7044 -1.7380
  149DOPC  H11S17793   2.200   1.411   5.550  0.1409 -0.0111  0.6649
  149DOPC  C21217794   2.229   1.635   5.506 -0.1760  0.4310 -0.3689
  149DOPC  H12R17795   2.296   1.631   5.417  0.2287 -2.7147 -0.0161
  149DOPC  H12S17796   2.262   1.726   5.560  0.3717 -1.3514  2.4873
  149DOPC  C21317797   2.082   1.646   5.456  0.5530  0.1127  0.3990
  149DOPC  H13R17798   2.027   1.655   5.552 -1.4489  1.0967 -0.7648
  149DOPC  H13S17799   2.045   1.556   5.403  0.5706  0.1494  0.3230
  149DOPC  C21417800   2.051   1.757   5.348  0.0271 -0.1196  0.1612
  149DOPC  H14R17801   1.940   1.764   5.338 -0.1765 -0.6078  1.8047
  149DOPC  H14S17802   2.107   1.723   5.259  0.3839  1.7790 -0.3666
  149DOPC  C21517803   2.104   1.892   5.385 -0.4769 -0.5388  0.5054
  149DOPC  H15R17804   2.131   1.947   5.293  1.4185 -2.4304 -0.1417
  149DOPC  H15S17805   2.202   1.884   5.436 -0.2306  0.3871  0.2058
  149DOPC  C21617806   1.996   1.964   5.464 -0.1075  0.2073 -0.0866
  149DOPC  H16R17807   2.006   1.930   5.569 -0.6575 -1.6213 -0.5960
  149DOPC  H16S17808   1.895   1.931   5.430  0.3462  0.1361 -1.4040
  149DOPC  C21717809   1.993   2.115   5.465  0.8967 -0.2091 -0.2565
  149DOPC  H17R17810   1.974   2.143   5.359  0.7813 -0.7659 -0.3834
  149DOPC  H17S17811   2.088   2.165   5.495  1.5110 -1.4977  0.0073
  149DOPC  C21817812   1.874   2.163   5.556 -0.2427  0.5904  0.0342
  149DOPC  H18R17813   1.900   2.141   5.662  3.1808  2.6908 -0.2027
  149DOPC  H18S17814   1.776   2.124   5.520 -0.6311  1.7273 -0.1564
  149DOPC  H18T17815   1.870   2.272   5.540  1.6790  0.4478 -1.8133
  149DOPC   C3317816   3.211   2.266   6.410 -0.1906  0.4255  0.5399
  149DOPC   H3X17817   3.263   2.344   6.469  2.8824 -0.8487 -0.2686
  149DOPC   H3Y17818   3.105   2.286   6.433  0.1162 -0.1399  2.7123
  149DOPC   C3417819   3.250   2.280   6.260  0.4889  0.4978 -0.2203
  149DOPC   H4X17820   3.204   2.365   6.204 -0.9112  2.4084  3.4701
  149DOPC   H4Y17821   3.214   2.186   6.214 -0.5246 -0.5384  2.4736
  149DOPC   C3517822   3.399   2.278   6.227  0.0098  0.3550  0.0145
  149DOPC   H5X17823   3.447   2.182   6.257  0.6013  0.9167  0.9070
  149DOPC   H5Y17824   3.459   2.347   6.290 -0.4597  0.1132  0.7362
  149DOPC   C3617825   3.440   2.323   6.087  0.1224 -0.0421  0.3285
  149DOPC   H6X17826   3.425   2.433   6.093  1.3310  0.1780 -0.4321
  149DOPC   H6Y17827   3.548   2.299   6.081  0.8425  2.7809  0.6243
  149DOPC   C3717828   3.366   2.252   5.969  0.2435  0.6152  0.1843
  149DOPC   H7X17829   3.257   2.272   5.963  0.3559  0.7937 -2.5531
  149DOPC   H7Y17830   3.414   2.293   5.877 -1.1425 -0.6458 -1.1634
  149DOPC   C3817831   3.369   2.098   5.964 -0.0313  0.7025 -1.3600
  149DOPC   H8X17832   3.308   2.061   6.049  1.4233  0.2736 -0.4508
  149DOPC   H8Y17833   3.477   2.077   5.979  0.0385  0.3927 -2.2393
  149DOPC   C3917834   3.303   2.049   5.839 -1.4650 -0.5678  0.1429
  149DOPC   H9X17835   3.371   2.054   5.752 -2.5536  2.1084 -0.6852
  149DOPC  C31017836   3.174   2.014   5.820 -0.1975  0.2032 -0.7491
  149DOPC  H10X17837   3.145   1.976   5.721 -4.0046 -1.6264  0.8782
  149DOPC  C31117838   3.063   2.006   5.925 -0.8423  0.7188  0.6397
  149DOPC  H11X17839   2.967   2.058   5.909 -2.3433 -1.0183  3.2510
  149DOPC  H11Y17840   3.094   2.030   6.029 -0.5809  2.3173  0.2131
  149DOPC  C31217841   3.027   1.856   5.956 -0.1480  0.6077 -0.2119
  149DOPC  H12X17842   2.951   1.864   6.036  0.3151 -0.3858  0.3443
  149DOPC  H12Y17843   3.119   1.810   5.999  0.3085  1.0786 -0.6616
  149DOPC  C31317844   2.977   1.769   5.835 -0.3507 -0.1659  0.1358
  149DOPC  H13X17845   3.040   1.788   5.746  0.4410 -2.0028  0.2536
  149DOPC  H13Y17846   3.006   1.668   5.870 -0.0554  0.6955  2.5772
  149DOPC  C31417847   2.835   1.791   5.795  0.4919  0.0547 -0.0890
  149DOPC  H14X17848   2.773   1.819   5.883  1.3869  2.9924 -0.2742
  149DOPC  H14Y17849   2.842   1.885   5.735  0.9687 -0.0196 -0.1487
  149DOPC  C31517850   2.760   1.682   5.718 -0.2209 -0.2529  0.5340
  149DOPC  H15X17851   2.657   1.715   5.695  0.0782 -0.2915 -0.9417
  149DOPC  H15Y17852   2.760   1.606   5.799  1.9441  0.4047  1.2193
  149DOPC  C31617853   2.827   1.617   5.591  0.1562  0.0032 -0.4437
  149DOPC  H16X17854   2.806   1.692   5.512  0.4273  1.5279  0.8873
  149DOPC  H16Y17855   2.937   1.605   5.605 -0.2219 -2.9573  0.8364
  149DOPC  C31717856   2.774   1.474   5.553 -0.6119 -0.1811  0.0402
  149DOPC  H17X17857   2.793   1.407   5.640  2.0651 -0.5785 -0.7578
  149DOPC  H17Y17858   2.666   1.479   5.530 -1.1263  0.5148  2.3087
  149DOPC  C31817859   2.847   1.408   5.433 -0.0777  0.1807 -0.4853
  149DOPC  H18X17860   2.834   1.477   5.347 -0.4021  0.0812 -0.5172
  149DOPC  H18Y17861   2.953   1.385   5.456 -0.1644 -3.5467 -2.8215
  149DOPC  H18Z17862   2.803   1.309   5.404  0.0402  0.4703 -1.7234
  150DOPC     N17863   5.946   5.076   7.657  0.1578 -0.4643  0.5040
  150DOPC   C1217864   6.024   5.186   7.583  0.9984 -0.4043  0.5531
  150DOPC  H12A17865   6.048   5.162   7.481 -1.0762 -1.2709  0.2405
  150DOPC  H12B17866   6.123   5.199   7.625  1.5188  1.5864 -1.0935
  150DOPC   C1317867   5.836   5.021   7.572  0.5446  0.1198  0.1375
  150DOPC  H13A17868   5.791   4.933   7.616 -1.2946 -0.3054 -2.3672
  150DOPC  H13B17869   5.748   5.081   7.552 -0.3192 -1.0242  0.4025
  150DOPC  H13C17870   5.876   4.973   7.483 -0.1118 -0.5776  0.2130
  150DOPC   C1417871   5.892   5.114   7.792 -0.0048 -0.2596 -0.0120
  150DOPC  H14A17872   5.844   5.030   7.840 -0.7706  0.2332  0.1112
  150DOPC  H14B17873   5.972   5.144   7.858  0.5442 -2.3661  0.3318
  150DOPC  H14C17874   5.825   5.197   7.772  0.4125 -0.1149 -0.8552
  150DOPC   C1517875   6.041   4.963   7.694  0.0541  0.0755 -0.0919
  150DOPC  H15A17876   6.098   4.923   7.612  3.6319 -2.1739  3.1771
  150DOPC  H15B17877   5.996   4.882   7.750 -2.3926  0.2542 -1.6124
  150DOPC  H15C17878   6.107   5.007   7.767  0.1984 -1.5013  0.7699
  150DOPC   C1117879   5.970   5.330   7.590 -0.1550  0.4878  0.2472
  150DOPC  H11A17880   5.943   5.353   7.695 -1.8746 -1.7518  0.3723
  150DOPC  H11B17881   6.044   5.408   7.563 -1.1797  1.4730  0.2215
  150DOPC     P17882   5.848   5.375   7.355  0.3775  0.8125  0.1030
  150DOPC   O1317883   5.982   5.415   7.320 -0.0738 -0.4974  0.5445
  150DOPC   O1417884   5.744   5.469   7.322 -0.6069  1.0420 -0.1465
  150DOPC   O1217885   5.847   5.339   7.512 -0.5130 -1.0057 -0.2744
  150DOPC   O1117886   5.818   5.245   7.282  0.0061 -0.4266  0.7148
  150DOPC    C117887   5.694   5.180   7.264  0.7862  0.4720  0.1468
  150DOPC    HA17888   5.613   5.218   7.330  0.3127  0.3504 -0.3568
  150DOPC    HB17889   5.711   5.076   7.298  1.4766  0.9244  1.2610
  150DOPC    C217890   5.640   5.177   7.120  0.3002  0.2811 -0.4799
  150DOPC    HS17891   5.554   5.108   7.115 -1.2021  1.9507  0.9921
  150DOPC   O2117892   5.742   5.166   7.024 -0.0493  0.0302  0.1814
  150DOPC   C2117893   5.742   5.047   6.955  0.9214  0.2454  0.2350
  150DOPC   O2217894   5.653   4.966   6.975  0.3679  0.7016 -0.4551
  150DOPC   C2217895   5.868   5.023   6.872 -0.0653  0.3782  0.4350
  150DOPC   H2R17896   5.936   4.958   6.931  0.4313 -0.2231 -0.7613
  150DOPC   H2S17897   5.917   5.121   6.850 -1.9141  1.4927  1.0576
  150DOPC    C317898   5.563   5.313   7.087 -0.2082  0.4969 -0.0335
  150DOPC    HX17899   5.644   5.388   7.098  1.8226 -1.5798  0.0753
  150DOPC    HY17900   5.492   5.329   7.170  1.7894  0.2661  1.7948
  150DOPC   O3117901   5.497   5.307   6.961 -0.2592 -0.5133  0.4475
  150DOPC   C3117902   5.555   5.392   6.874  0.1069 -0.3261 -0.0393
  150DOPC   O3217903   5.648   5.466   6.899 -0.3284  0.2854 -0.1991
  150DOPC   C3217904   5.500   5.376   6.729 -0.6472  0.1261  0.4161
  150DOPC   H2X17905   5.489   5.274   6.686 -1.7510  1.0756 -1.6912
  150DOPC   H2Y17906   5.399   5.420   6.743 -0.9779 -0.6651  0.5629
  150DOPC   C2317907   5.828   4.950   6.736 -0.5835 -0.0118 -0.0451
  150DOPC   H3R17908   5.729   4.981   6.698  0.5901 -0.1376 -3.5344
  150DOPC   H3S17909   5.829   4.839   6.745 -0.3743  0.1236  2.3808
  150DOPC   C2417910   5.927   4.986   6.622 -0.2624  0.5682 -0.1344
  150DOPC   H4R17911   6.024   4.950   6.662 -1.1258 -1.4458  0.2558
  150DOPC   H4S17912   5.932   5.097   6.617  1.6554  0.5564  0.6337
  150DOPC   C2517913   5.900   4.927   6.486 -0.3154  0.0778  0.1705
  150DOPC   H5R17914   5.796   4.949   6.452 -0.5110  0.3836  0.9430
  150DOPC   H5S17915   5.920   4.818   6.496  3.8058  0.6962  0.3944
  150DOPC   C2617916   6.000   4.977   6.381 -0.4074 -0.8148 -0.0344
  150DOPC   H6R17917   6.103   4.991   6.420 -0.2786  1.0160 -0.9441
  150DOPC   H6S17918   5.973   5.079   6.347 -0.2470 -0.8348 -0.2239
  150DOPC   C2717919   6.011   4.878   6.269 -0.6131 -0.9994 -0.4705
  150DOPC   H7R17920   6.047   4.778   6.302 -1.0453 -0.8644  0.4481
  150DOPC   H7S17921   6.090   4.925   6.206 -0.7135 -1.0610 -0.6453
  150DOPC   C2817922   5.881   4.865   6.189 -0.0090  0.5312 -0.2048
  150DOPC   H8R17923   5.797   4.840   6.258  0.0774 -0.4145 -0.4255
  150DOPC   H8S17924   5.887   4.777   6.122 -2.2882 -0.3618  0.6566
  150DOPC   C2917925   5.851   4.996   6.125  0.1677 -0.4525 -0.0132
  150DOPC   H9R17926   5.783   5.060   6.182  2.0790 -1.9926  4.4348
  150DOPC  C21017927   5.912   5.046   6.012  0.4507 -0.3445  0.2505
  150DOPC  H10R17928   5.869   5.133   5.959  2.8602  1.2940  0.8497
  150DOPC  C21117929   6.021   4.981   5.930  1.0619  0.0920 -0.3114
  150DOPC  H11R17930   6.073   4.912   6.000  0.8629 -0.2910 -0.5328
  150DOPC  H11S17931   6.097   5.059   5.909  0.4495  0.8095  0.0940
  150DOPC  C21217932   5.978   4.903   5.803 -0.0739  0.0561  0.7597
  150DOPC  H12R17933   5.897   4.828   5.811 -1.0110  1.0238  0.4941
  150DOPC  H12S17934   6.069   4.844   5.778  0.7651  1.1234  1.1986
  150DOPC  C21317935   5.928   4.999   5.692  0.0130 -0.1583 -0.3612
  150DOPC  H13R17936   6.006   5.078   5.692  1.0763 -1.1905 -0.9132
  150DOPC  H13S17937   5.828   5.040   5.720 -1.2951 -1.9544 -2.1288
  150DOPC  C21417938   5.935   4.928   5.558  0.4443  0.5861  0.5540
  150DOPC  H14R17939   5.864   4.842   5.562 -0.9626  1.7247  0.9869
  150DOPC  H14S17940   6.038   4.890   5.541  0.7305  1.3088  0.6631
  150DOPC  C21517941   5.904   5.023   5.435  0.0387 -0.5421  0.4657
  150DOPC  H15R17942   5.982   5.102   5.425 -0.6826  0.1771  0.4783
  150DOPC  H15S17943   5.807   5.076   5.446  1.3542  2.1139  0.2133
  150DOPC  C21617944   5.914   4.937   5.305 -0.1102 -0.3169 -0.3471
  150DOPC  H16R17945   5.840   4.856   5.320  1.1661 -1.5715 -0.5755
  150DOPC  H16S17946   6.019   4.900   5.302  0.4214  0.6040  2.8403
  150DOPC  C21717947   5.886   5.022   5.180 -0.1373 -0.0598  0.0754
  150DOPC  H17R17948   5.942   5.117   5.176 -0.2540  0.0317 -3.9810
  150DOPC  H17S17949   5.784   5.061   5.200  0.7671  1.7554  1.4497
  150DOPC  C21817950   5.871   4.948   5.049 -0.3233  0.2498 -0.3704
  150DOPC  H18R17951   5.845   4.841   5.066 -1.3824  0.4398 -0.6776
  150DOPC  H18S17952   5.971   4.955   5.001 -0.6188 -0.6968 -1.1799
  150DOPC  H18T17953   5.801   4.993   4.974  0.9840  0.6279 -1.4071
  150DOPC   C3317954   5.579   5.464   6.625  0.9297  0.4010 -1.0872
  150DOPC   H3X17955   5.602   5.570   6.650 -0.6468  0.9100 -1.6848
  150DOPC   H3Y17956   5.523   5.465   6.530  0.2757 -1.2052 -0.7466
  150DOPC   C3417957   5.711   5.400   6.569  0.0651 -0.6855  0.1326
  150DOPC   H4X17958   5.778   5.387   6.657  1.9318 -0.1920 -1.1501
  150DOPC   H4Y17959   5.747   5.471   6.491  1.1655 -0.0407  1.1919
  150DOPC   C3517960   5.707   5.267   6.500 -0.4422 -0.1230  0.3372
  150DOPC   H5X17961   5.688   5.179   6.563 -0.2788 -0.2308  0.2372
  150DOPC   H5Y17962   5.811   5.258   6.460  0.1551  0.5509  1.6745
  150DOPC   C3617963   5.615   5.246   6.382  0.2187 -0.6546  0.5202
  150DOPC   H6X17964   5.634   5.146   6.337  2.2346 -0.8498  1.6896
  150DOPC   H6Y17965   5.508   5.263   6.403 -0.2131  0.2327 -1.9489
  150DOPC   C3717966   5.639   5.336   6.259 -0.8910  0.0055 -0.3432
  150DOPC   H7X17967   5.625   5.445   6.274  1.5050  0.4331 -0.8230
  150DOPC   H7Y17968   5.750   5.338   6.254 -0.6058 -2.1902  2.4443
  150DOPC   C3817969   5.561   5.288   6.136  0.7896  0.1129  0.7407
  150DOPC   H8X17970   5.456   5.265   6.165  1.3166 -0.7713  2.0599
  150DOPC   H8Y17971   5.590   5.188   6.098  1.6700  0.2485  1.0276
  150DOPC   C3917972   5.568   5.384   6.019  0.2289 -0.3996  0.4233
  150DOPC   H9X17973   5.574   5.489   6.051  2.0469 -0.5491  0.6886
  150DOPC  C31017974   5.588   5.359   5.886 -0.2520  0.4287 -0.0369
  150DOPC  H10X17975   5.593   5.443   5.815 -0.1647  1.3013  0.9793
  150DOPC  C31117976   5.616   5.227   5.824  0.2095 -0.1326 -0.4955
  150DOPC  H11X17977   5.566   5.143   5.876 -1.3140  0.9133 -0.1938
  150DOPC  H11Y17978   5.725   5.206   5.820  0.4618  1.2597 -1.6980
  150DOPC  C31217979   5.580   5.229   5.675  0.0529  0.2144 -0.2441
  150DOPC  H12X17980   5.572   5.121   5.649 -2.2884 -0.3085  2.1579
  150DOPC  H12Y17981   5.667   5.276   5.623 -0.2600  0.0220 -0.9444
  150DOPC  C31317982   5.453   5.297   5.630  0.0989 -0.1402 -0.8091
  150DOPC  H13X17983   5.373   5.246   5.688  2.1434 -0.2030  2.1807
  150DOPC  H13Y17984   5.456   5.408   5.644 -0.8211 -0.2908  0.7953
  150DOPC  C31417985   5.424   5.284   5.476  0.4128 -0.2617  0.2123
  150DOPC  H14X17986   5.331   5.338   5.448  0.3291 -0.5129  0.0003
  150DOPC  H14Y17987   5.504   5.339   5.422  0.6768 -0.9240 -0.0889
  150DOPC  C31517988   5.414   5.139   5.417  0.0440 -0.3287 -0.4116
  150DOPC  H15X17989   5.350   5.076   5.483 -1.3895  0.7300 -0.7317
  150DOPC  H15Y17990   5.511   5.087   5.406  0.1055 -0.2274 -0.3485
  150DOPC  C31617991   5.358   5.159   5.280  0.4453  0.3308 -0.4304
  150DOPC  H16X17992   5.258   5.203   5.295 -0.4211 -1.7341  0.2883
  150DOPC  H16Y17993   5.433   5.210   5.216 -0.3073 -0.5394 -2.0595
  150DOPC  C31717994   5.334   5.026   5.212 -0.0735  0.9729  0.5357
  150DOPC  H17X17995   5.433   4.988   5.178 -0.7652 -0.8941  0.4419
  150DOPC  H17Y17996   5.286   4.951   5.279  0.0522 -1.1702 -1.6211
  150DOPC  C31817997   5.249   5.040   5.084  0.5792 -0.3472  0.2404
  150DOPC  H18X17998   5.248   4.943   5.032  0.4574  0.7883 -1.9980
  150DOPC  H18Y17999   5.143   5.051   5.116  1.2681  0.1417  2.6082
  150DOPC  H18Z18000   5.275   5.118   5.009 -1.2687 -1.8898 -2.1350
  151DOPC     N18001   2.463   2.424   6.870  0.4980  0.0977  0.0203
  151DOPC   C1218002   2.347   2.511   6.805  0.1745 -0.6160  0.1636
  151DOPC  H12A18003   2.372   2.536   6.703 -0.6083  0.1671  0.1518
  151DOPC  H12B18004   2.347   2.607   6.854 -0.6337  0.1109 -1.2215
  151DOPC   C1318005   2.453   2.417   7.014  0.0856 -0.0193  0.4749
  151DOPC  H13A18006   2.391   2.495   7.057  1.8828 -0.9565  5.4811
  151DOPC  H13B18007   2.404   2.325   7.041 -1.3417 -0.0394 -1.9858
  151DOPC  H13C18008   2.548   2.418   7.066 -0.3338  2.0218  1.2830
  151DOPC   C1418009   2.587   2.502   6.834 -0.2327  0.1394 -0.0142
  151DOPC  H14A18010   2.674   2.438   6.843  0.4356  0.8184 -1.3133
  151DOPC  H14B18011   2.586   2.527   6.729  0.5115  0.0626 -0.0468
  151DOPC  H14C18012   2.599   2.592   6.892 -2.6219 -1.1752  2.8170
  151DOPC   C1518013   2.467   2.287   6.809  0.2023  0.5060  0.5141
  151DOPC  H15A18014   2.472   2.291   6.701  2.2063  0.5662  0.5664
  151DOPC  H15B18015   2.371   2.242   6.827 -0.1540  0.6477 -0.8741
  151DOPC  H15C18016   2.552   2.227   6.839  1.7878  2.8785  1.0240
  151DOPC   C1118017   2.205   2.448   6.809 -0.0710 -0.5044  0.8264
  151DOPC  H11A18018   2.169   2.428   6.911 -2.3887  2.7471  0.7788
  151DOPC  H11B18019   2.129   2.521   6.775  0.4072 -1.6361 -3.2889
  151DOPC     P18020   2.211   2.335   6.565 -0.1593 -0.8492  0.2109
  151DOPC   O1318021   2.125   2.236   6.493  0.3324 -0.2447 -0.0237
  151DOPC   O1418022   2.355   2.322   6.551 -0.1810 -0.1316  0.2466
  151DOPC   O1218023   2.184   2.330   6.725 -0.5229  0.4094  0.5785
  151DOPC   O1118024   2.175   2.485   6.526  0.2571 -0.8990 -0.8162
  151DOPC    C118025   2.037   2.523   6.536  0.6634  0.0835  0.4225
  151DOPC    HA18026   2.027   2.633   6.553  1.9712  0.3189 -0.1862
  151DOPC    HB18027   1.977   2.477   6.617  1.3487 -0.9001  0.3953
  151DOPC    C218028   1.969   2.502   6.399  0.1528  0.6444 -0.4857
  151DOPC    HS18029   1.950   2.393   6.389  0.7841  0.3402  1.2411
  151DOPC   O2118030   2.056   2.545   6.288  0.8981  0.6600 -0.3403
  151DOPC   C2118031   2.039   2.480   6.174  0.1267  0.3549  1.0776
  151DOPC   O2218032   1.969   2.379   6.151 -0.0238  0.3878  0.1211
  151DOPC   C2218033   2.148   2.529   6.079 -0.5645 -0.2543 -0.1908
  151DOPC   H2R18034   2.238   2.465   6.095 -2.0508 -1.9708  1.9511
  151DOPC   H2S18035   2.169   2.636   6.100 -0.4833 -0.6674  2.0965
  151DOPC    C318036   1.832   2.566   6.391  0.4645 -0.5848  0.5651
  151DOPC    HX18037   1.851   2.675   6.387  1.3002 -0.6885  1.1852
  151DOPC    HY18038   1.767   2.546   6.479 -0.4750 -1.3572 -0.2895
  151DOPC   O3118039   1.775   2.527   6.265  0.3766  0.6772 -0.3043
  151DOPC   C3118040   1.685   2.427   6.267 -0.0194 -0.2896 -0.2798
  151DOPC   O3218041   1.652   2.370   6.369  0.5344  0.1596 -0.2409
  151DOPC   C3218042   1.633   2.406   6.127 -0.5402  0.2717 -0.3662
  151DOPC   H2X18043   1.566   2.489   6.093 -0.7696 -0.0265 -0.6511
  151DOPC   H2Y18044   1.719   2.445   6.069 -0.1660 -0.7248 -0.4917
  151DOPC   C2318045   2.107   2.492   5.933 -0.3582 -0.1624 -0.0700
  151DOPC   H3R18046   2.000   2.517   5.915  0.0430  1.6497 -0.0438
  151DOPC   H3S18047   2.117   2.381   5.930 -0.8863 -0.1923 -1.2235
  151DOPC   C2418048   2.199   2.559   5.831 -0.3002  0.1829  0.5555
  151DOPC   H4R18049   2.303   2.546   5.868  0.2669 -0.9537 -1.3149
  151DOPC   H4S18050   2.176   2.667   5.816  2.0350  0.6622  0.0866
  151DOPC   C2518051   2.183   2.482   5.699 -0.7509 -0.2413 -0.1751
  151DOPC   H5R18052   2.076   2.491   5.670 -1.0607  0.5281  1.1362
  151DOPC   H5S18053   2.210   2.375   5.710  1.9615 -0.0271 -3.3487
  151DOPC   C2618054   2.269   2.540   5.591  0.1304  0.1036  0.7736
  151DOPC   H6R18055   2.377   2.539   5.616  1.5531  1.1693 -4.2106
  151DOPC   H6S18056   2.238   2.646   5.574 -1.1743 -0.6630 -2.4748
  151DOPC   C2718057   2.265   2.468   5.456  0.6767 -0.0333 -0.2452
  151DOPC   H7R18058   2.278   2.359   5.474 -0.9476 -0.0135  1.3698
  151DOPC   H7S18059   2.341   2.508   5.386 -1.5744 -0.0194 -2.8056
  151DOPC   C2818060   2.127   2.491   5.375 -1.0707 -0.6035 -0.1056
  151DOPC   H8R18061   2.127   2.595   5.336  0.8043 -0.4486  0.2398
  151DOPC   H8S18062   2.052   2.472   5.455 -0.7795 -0.3951  0.2186
  151DOPC   C2918063   2.109   2.385   5.272  0.6879  0.4502  0.3362
  151DOPC   H9R18064   2.137   2.282   5.301 -2.7967 -0.8436 -0.4304
  151DOPC  C21018065   2.043   2.416   5.159  0.2249  0.2654 -0.2398
  151DOPC  H10R18066   2.011   2.333   5.094 -1.6615  0.9699 -0.2739
  151DOPC  C21118067   1.986   2.548   5.122  0.5550 -0.3116 -0.0568
  151DOPC  H11R18068   1.962   2.558   5.013 -1.7249 -0.8331  0.3369
  151DOPC  H11S18069   2.044   2.642   5.132 -0.3520  0.1441  1.1429
  151DOPC  C21218070   1.843   2.578   5.186  0.5518  0.3549 -0.2756
  151DOPC  H12R18071   1.840   2.581   5.297  2.1616  1.9437 -0.2236
  151DOPC  H12S18072   1.775   2.501   5.144  1.5084 -0.3361 -0.6059
  151DOPC  C21318073   1.797   2.724   5.161 -0.0578 -0.6070  0.2495
  151DOPC  H13R18074   1.794   2.751   5.053  1.7216 -1.5616 -0.0703
  151DOPC  H13S18075   1.879   2.790   5.196 -0.3228 -0.1774  0.0765
  151DOPC  C21418076   1.669   2.754   5.236  1.1618 -0.1125 -0.2818
  151DOPC  H14R18077   1.673   2.716   5.340 -2.0911  1.4453  0.5288
  151DOPC  H14S18078   1.587   2.698   5.186  0.0652  1.0437  0.1767
  151DOPC  C21518079   1.624   2.904   5.228  0.2314 -0.2596 -0.6712
  151DOPC  H15R18080   1.697   2.975   5.275  0.1659  0.8671 -2.1966
  151DOPC  H15S18081   1.531   2.910   5.288  1.4813 -2.0633  1.5967
  151DOPC  C21618082   1.599   2.939   5.084 -0.0169  0.0437 -0.1425
  151DOPC  H16R18083   1.565   2.854   5.022  1.9872 -2.3583  1.8345
  151DOPC  H16S18084   1.700   2.952   5.039  0.7517  0.0061  1.5146
  151DOPC  C21718085   1.520   3.067   5.073 -0.7733 -0.0696  0.9390
  151DOPC  H17R18086   1.589   3.144   5.114  1.2874 -0.9172 -0.7527
  151DOPC  H17S18087   1.423   3.063   5.127  0.2029 -0.3777  2.7570
  151DOPC  C21818088   1.494   3.113   4.928 -0.0301 -0.5732  0.4185
  151DOPC  H18R18089   1.583   3.103   4.862 -0.3711 -1.3629  0.0622
  151DOPC  H18S18090   1.448   3.214   4.925  0.7122 -0.2072  0.9479
  151DOPC  H18T18091   1.413   3.050   4.886 -1.5136  1.3323  0.3038
  151DOPC   C3318092   1.579   2.267   6.094 -0.3558 -0.1132 -0.1663
  151DOPC   H3X18093   1.525   2.285   5.999 -3.2028  0.8743  1.5082
  151DOPC   H3Y18094   1.504   2.234   6.170 -0.7659  2.2074  0.5257
  151DOPC   C3418095   1.688   2.165   6.063 -0.0606 -0.0759  0.0878
  151DOPC   H4X18096   1.745   2.141   6.155  1.4204  0.0087 -0.7775
  151DOPC   H4Y18097   1.756   2.214   5.990  0.3447 -0.4015  0.2481
  151DOPC   C3518098   1.637   2.038   5.996 -0.2928  0.5095  0.2350
  151DOPC   H5X18099   1.557   1.993   6.059  0.5772 -1.0821  0.2584
  151DOPC   H5Y18100   1.708   1.953   5.993 -0.6051  0.2518  0.1051
  151DOPC   C3618101   1.600   2.050   5.846  0.0410  1.2006 -0.9009
  151DOPC   H6X18102   1.525   2.131   5.830 -0.6033  0.9667  0.7058
  151DOPC   H6Y18103   1.691   2.081   5.790  0.5163 -0.3551 -1.0131
  151DOPC   C3718104   1.554   1.916   5.785  0.4645  0.4576 -0.8073
  151DOPC   H7X18105   1.636   1.841   5.796  0.8214  0.6883 -1.7946
  151DOPC   H7Y18106   1.459   1.889   5.836  0.8133 -2.4044 -1.4728
  151DOPC   C3818107   1.525   1.923   5.640 -0.2421  0.3053 -0.1396
  151DOPC   H8X18108   1.605   1.959   5.571 -1.4981  0.2265 -1.7127
  151DOPC   H8Y18109   1.454   2.006   5.621  0.3988  0.5421 -1.6743
  151DOPC   C3918110   1.455   1.793   5.590  0.0550  0.2440  0.5584
  151DOPC   H9X18111   1.349   1.784   5.617 -0.1586 -1.4403 -0.7055
  151DOPC  C31018112   1.502   1.712   5.495 -0.5205 -0.2886 -0.2480
  151DOPC  H10X18113   1.438   1.627   5.468 -0.9206 -0.7217  1.8797
  151DOPC  C31118114   1.630   1.709   5.417 -0.1077  0.3526  0.4978
  151DOPC  H11X18115   1.713   1.673   5.481  0.9640 -1.2989 -1.7178
  151DOPC  H11Y18116   1.651   1.814   5.389 -0.4071  0.4583  0.6612
  151DOPC  C31218117   1.627   1.626   5.286  0.6503 -0.1131 -0.3724
  151DOPC  H12X18118   1.618   1.517   5.306  2.0457 -0.4895 -1.5652
  151DOPC  H12Y18119   1.729   1.642   5.245  0.1667 -1.5295 -2.2439
  151DOPC  C31318120   1.506   1.655   5.194  0.4092 -0.0833  0.2591
  151DOPC  H13X18121   1.466   1.757   5.209 -0.8004 -0.5658  0.3934
  151DOPC  H13Y18122   1.538   1.643   5.088 -0.4135 -0.0798  0.0107
  151DOPC  C31418123   1.385   1.556   5.198  0.2607  0.1856  0.1286
  151DOPC  H14X18124   1.426   1.452   5.201 -2.9946 -1.2447  0.0009
  151DOPC  H14Y18125   1.335   1.578   5.295 -3.0604  2.7898 -1.9370
  151DOPC  C31518126   1.293   1.561   5.080  0.3727 -0.1669 -0.0100
  151DOPC  H15X18127   1.348   1.566   4.983  0.7941 -0.4254  0.2105
  151DOPC  H15Y18128   1.238   1.657   5.086 -0.2650 -0.4339 -1.1716
  151DOPC  C31618129   1.187   1.448   5.082  0.3923  0.0678 -0.1199
  151DOPC  H16X18130   1.186   1.395   4.984 -0.0073 -3.0091  1.4336
  151DOPC  H16Y18131   1.213   1.367   5.153 -0.3368 -0.7668 -0.7792
  151DOPC  C31718132   1.047   1.495   5.124  0.2174 -0.1993 -0.0021
  151DOPC  H17X18133   1.034   1.497   5.234 -0.4240  0.4335 -0.0833
  151DOPC  H17Y18134   1.023   1.598   5.088  0.3403 -0.4250 -0.7539
  151DOPC  C31818135   0.925   1.404   5.079 -0.3202  0.3435 -0.2341
  151DOPC  H18X18136   0.924   1.307   5.133 -3.4708 -0.0366 -0.7717
  151DOPC  H18Y18137   0.828   1.450   5.106  0.1131 -0.3337  2.8348
  151DOPC  H18Z18138   0.921   1.383   4.969  2.2495 -2.6595  0.1035
  152DOPC     N18139   2.977   1.358   7.047 -0.2507 -0.1467  0.0807
  152DOPC   C1218140   3.121   1.352   7.000  0.0514 -0.4415  0.3492
  152DOPC  H12A18141   3.186   1.337   7.085  1.9399 -0.4071 -1.0078
  152DOPC  H12B18142   3.141   1.450   6.958  2.0137 -1.2086 -0.6330
  152DOPC   C1318143   2.887   1.381   6.931  0.1475 -0.7323 -1.2758
  152DOPC  H13A18144   2.870   1.486   6.914 -0.9240  0.0853  3.4534
  152DOPC  H13B18145   2.929   1.345   6.838 -0.5622 -1.1851 -1.4291
  152DOPC  H13C18146   2.787   1.347   6.954 -0.0559  0.3217 -0.5084
  152DOPC   C1418147   2.955   1.469   7.146  0.2158 -0.0133 -0.4750
  152DOPC  H14A18148   3.006   1.442   7.238  0.1333 -1.6510 -0.8798
  152DOPC  H14B18149   3.003   1.557   7.107 -1.3829  1.8258  1.4503
  152DOPC  H14C18150   2.851   1.496   7.160 -0.2626 -1.9982  0.2463
  152DOPC   C1518151   2.944   1.232   7.116 -0.2894 -0.2248 -0.0229
  152DOPC  H15A18152   3.022   1.214   7.189  1.4866  0.7391 -1.5750
  152DOPC  H15B18153   2.953   1.151   7.046  1.8853 -1.0462  1.1263
  152DOPC  H15C18154   2.852   1.238   7.172 -0.9924 -0.1143 -1.1592
  152DOPC   C1118155   3.165   1.241   6.904 -0.1383 -0.6607 -0.2515
  152DOPC  H11A18156   3.105   1.254   6.811 -2.3553  1.6173  1.3875
  152DOPC  H11B18157   3.269   1.261   6.870  0.0826 -1.9893 -0.4481
  152DOPC     P18158   3.114   0.983   6.880  0.0452  0.0570 -0.0437
  152DOPC   O1318159   2.967   1.000   6.863 -0.3438 -0.4213 -0.0974
  152DOPC   O1418160   3.164   0.871   6.960 -0.5150  0.1856  0.0779
  152DOPC   O1218161   3.160   1.107   6.957  0.4066 -0.3578  0.1168
  152DOPC   O1118162   3.183   0.987   6.737  0.3713 -0.5011  0.1158
  152DOPC    C118163   3.319   0.963   6.730 -0.2495  0.4798  0.7902
  152DOPC    HA18164   3.338   0.855   6.714  2.2243  1.3619 -4.4774
  152DOPC    HB18165   3.381   1.003   6.813  0.0633  2.0606 -0.1606
  152DOPC    C218166   3.370   1.028   6.596  0.0544  0.3318 -0.1220
  152DOPC    HS18167   3.337   1.134   6.595 -1.4898 -0.0786  1.8592
  152DOPC   O2118168   3.318   0.949   6.485  0.2485  0.4476  0.0737
  152DOPC   C2118169   3.201   0.996   6.437  0.1252 -0.9447  0.6145
  152DOPC   O2218170   3.138   1.093   6.476  0.1281 -0.4376  0.0280
  152DOPC   C2218171   3.154   0.900   6.327  0.1749 -0.3353  0.4900
  152DOPC   H2R18172   3.136   0.797   6.363 -0.3337 -1.1888 -2.0068
  152DOPC   H2S18173   3.233   0.891   6.249  0.9180 -0.6390  1.2703
  152DOPC    C318174   3.525   1.023   6.575 -0.4567  0.0125  0.0026
  152DOPC    HX18175   3.557   0.918   6.594  1.4874  0.6543  0.5831
  152DOPC    HY18176   3.569   1.096   6.647 -1.8386  3.7843 -2.7184
  152DOPC   O3118177   3.567   1.058   6.440 -0.6014 -0.1192 -0.0046
  152DOPC   C3118178   3.585   1.184   6.403 -0.4310 -0.3413 -0.4236
  152DOPC   O3218179   3.560   1.284   6.465 -0.0974 -0.0826  0.5731
  152DOPC   C3218180   3.672   1.183   6.276  0.4743  0.6109  0.5003
  152DOPC   H2X18181   3.773   1.219   6.305  0.4403  0.4464  0.8207
  152DOPC   H2Y18182   3.699   1.077   6.256  3.5587  1.5437 -1.0053
  152DOPC   C2318183   3.020   0.946   6.265  0.3257  0.0550  0.4304
  152DOPC   H3R18184   3.012   1.035   6.200  1.2686 -0.4636 -0.4216
  152DOPC   H3S18185   2.946   0.965   6.346 -1.2744 -0.0030 -0.9660
  152DOPC   C2418186   2.950   0.829   6.180 -0.7947  0.8617  0.2883
  152DOPC   H4R18187   2.842   0.848   6.165 -0.4166  1.7314 -1.6335
  152DOPC   H4S18188   2.953   0.734   6.237 -0.1981  0.6669 -0.0602
  152DOPC   C2518189   3.031   0.817   6.045  0.6721 -0.1111  0.5872
  152DOPC   H5R18190   3.137   0.786   6.063  0.8594 -0.1786 -0.5480
  152DOPC   H5S18191   3.039   0.920   6.005 -1.3952 -0.0440  0.2342
  152DOPC   C2618192   2.969   0.724   5.942 -0.0510  0.3447 -0.6785
  152DOPC   H6R18193   2.870   0.761   5.907 -0.9116 -1.1256  0.1041
  152DOPC   H6S18194   2.954   0.625   5.990 -2.4201  0.4021 -1.1897
  152DOPC   C2718195   3.056   0.690   5.824  0.1504 -0.0224 -0.2515
  152DOPC   H7R18196   3.023   0.595   5.777 -0.6153  0.5597 -0.9098
  152DOPC   H7S18197   3.164   0.685   5.852  0.2183  2.3448  0.1495
  152DOPC   C2818198   3.035   0.800   5.714  0.2659  0.9742 -0.0503
  152DOPC   H8R18199   3.039   0.907   5.744  1.4478  0.6683  0.9268
  152DOPC   H8S18200   2.930   0.783   5.681  0.5251 -2.2658  0.4854
  152DOPC   C2918201   3.122   0.792   5.593  0.2464 -1.0737 -0.5171
  152DOPC   H9R18202   3.230   0.791   5.615 -0.0150 -1.8340  0.7913
  152DOPC  C21018203   3.081   0.772   5.466 -1.2119 -0.0917  0.5860
  152DOPC  H10R18204   3.155   0.791   5.387 -1.0356  0.1454  0.8074
  152DOPC  C21118205   2.935   0.756   5.427 -0.5904  0.1663 -0.6341
  152DOPC  H11R18206   2.878   0.670   5.467 -1.8351  1.2428  0.0061
  152DOPC  H11S18207   2.937   0.744   5.316  1.2431  0.9563 -0.7230
  152DOPC  C21218208   2.841   0.876   5.442 -0.2698 -0.6598 -0.2413
  152DOPC  H12R18209   2.840   0.899   5.550  0.0505 -1.6501 -0.0111
  152DOPC  H12S18210   2.744   0.853   5.393  0.1673 -1.3223 -0.8220
  152DOPC  C21318211   2.877   1.002   5.371 -0.1639 -0.3063 -0.2813
  152DOPC  H13R18212   2.974   1.039   5.409 -0.9881  0.4334  1.1987
  152DOPC  H13S18213   2.802   1.081   5.394  0.1416  0.4057 -1.6104
  152DOPC  C21418214   2.890   0.999   5.217  0.7716 -0.0908  0.3208
  152DOPC  H14R18215   2.792   0.967   5.176  0.6968 -1.3651  1.4359
  152DOPC  H14S18216   2.957   0.918   5.181  0.4696  0.8025 -2.5172
  152DOPC  C21518217   2.945   1.125   5.148 -0.3295  0.6838 -0.1292
  152DOPC  H15R18218   2.886   1.212   5.182 -2.4423 -0.7857  0.1647
  152DOPC  H15S18219   2.925   1.122   5.039  0.7787  1.0306 -0.3538
  152DOPC  C21618220   3.099   1.144   5.164  0.4534  0.0679 -0.4035
  152DOPC  H16R18221   3.151   1.051   5.133  0.8502  0.1974 -0.1413
  152DOPC  H16S18222   3.116   1.152   5.274 -0.3581  0.8990 -0.3278
  152DOPC  C21718223   3.156   1.262   5.085  0.2440  0.0657 -0.5378
  152DOPC  H17R18224   3.257   1.281   5.127  1.3334 -0.8476 -2.5952
  152DOPC  H17S18225   3.096   1.354   5.102 -1.1180 -0.6946 -1.0502
  152DOPC  C21818226   3.173   1.233   4.931  0.1319  0.1856  0.6036
  152DOPC  H18R18227   3.260   1.164   4.924  1.2664  1.4609  1.4295
  152DOPC  H18S18228   3.212   1.326   4.884  1.1580  0.4511  1.9107
  152DOPC  H18T18229   3.086   1.197   4.873 -0.8336  2.9134  0.2262
  152DOPC   C3318230   3.603   1.259   6.161  0.4764 -0.3269 -0.7400
  152DOPC   H3X18231   3.686   1.258   6.087 -0.1524 -1.4322 -1.4589
  152DOPC   H3Y18232   3.581   1.363   6.190  1.5200  0.5532 -2.9149
  152DOPC   C3418233   3.490   1.185   6.092  0.0688  0.2665 -0.0272
  152DOPC   H4X18234   3.426   1.255   6.033 -1.6526 -1.0557  0.1836
  152DOPC   H4Y18235   3.425   1.146   6.173  0.4804  1.5117  0.9150
  152DOPC   C3518236   3.541   1.066   6.006 -0.0916  0.2781  0.1921
  152DOPC   H5X18237   3.445   1.013   5.985 -0.5024  1.0298  0.1388
  152DOPC   H5Y18238   3.594   0.993   6.070 -0.5900 -0.8188 -0.6045
  152DOPC   C3618239   3.604   1.111   5.870  0.0737 -0.0172  0.4653
  152DOPC   H6X18240   3.539   1.180   5.812 -2.8456 -0.0964  3.4033
  152DOPC   H6Y18241   3.686   1.173   5.912 -0.7840  0.8967  0.8129
  152DOPC   C3718242   3.653   0.997   5.776  0.9727 -0.5681  0.1494
  152DOPC   H7X18243   3.725   1.036   5.700  0.6223  0.6870  0.4437
  152DOPC   H7Y18244   3.697   0.917   5.840  2.9787 -0.7997 -1.3895
  152DOPC   C3818245   3.533   0.935   5.691  0.0209 -0.1080 -0.5547
  152DOPC   H8X18246   3.447   0.910   5.757  0.3612  0.0809 -0.0321
  152DOPC   H8Y18247   3.577   0.840   5.654  1.5951  0.2954  0.1647
  152DOPC   C3918248   3.504   1.020   5.569  0.1219 -0.2119 -0.0314
  152DOPC   H9X18249   3.563   1.000   5.478  0.4026  4.3407 -1.0888
  152DOPC  C31018250   3.388   1.096   5.553  0.5005  0.4408  0.2901
  152DOPC  H10X18251   3.375   1.153   5.460  0.4135 -1.7652 -1.1152
  152DOPC  C31118252   3.271   1.107   5.651  0.2091 -0.4731 -0.0612
  152DOPC  H11X18253   3.283   1.052   5.747 -0.0262 -0.9775 -0.3138
  152DOPC  H11Y18254   3.177   1.073   5.602  0.0613 -2.7262  1.6274
  152DOPC  C31218255   3.251   1.255   5.706 -0.0639  0.8709 -0.4664
  152DOPC  H12X18256   3.213   1.330   5.633 -2.6497 -0.1609 -0.2857
  152DOPC  H12Y18257   3.346   1.300   5.743  1.1788 -0.9230 -1.2936
  152DOPC  C31318258   3.135   1.253   5.805  0.0805  0.5418  0.0646
  152DOPC  H13X18259   3.042   1.224   5.752  1.1144 -0.5042 -1.2390
  152DOPC  H13Y18260   3.162   1.166   5.868  1.9392 -0.5506 -2.0869
  152DOPC  C31418261   3.113   1.380   5.875 -0.1823 -1.1355 -1.0113
  152DOPC  H14X18262   3.127   1.463   5.802  1.3245 -0.5270 -0.0873
  152DOPC  H14Y18263   3.014   1.373   5.923  1.0884 -3.4533  1.5301
  152DOPC  C31518264   3.222   1.411   5.976 -0.7437  0.3264  0.2873
  152DOPC  H15X18265   3.318   1.395   5.923 -1.2674 -1.3949 -0.2299
  152DOPC  H15Y18266   3.213   1.342   6.063 -1.5369  0.0338 -0.0147
  152DOPC  C31618267   3.227   1.552   6.040  0.3922  0.4520  0.2474
  152DOPC  H16X18268   3.266   1.615   5.958  1.6269 -0.0676  0.4177
  152DOPC  H16Y18269   3.124   1.587   6.063  1.2389  1.5995  2.5543
  152DOPC  C31718270   3.324   1.571   6.158 -0.2163 -0.5548  0.3101
  152DOPC  H17X18271   3.311   1.487   6.230  0.4847 -0.4866  0.5237
  152DOPC  H17Y18272   3.429   1.570   6.120  0.6195  1.4909  2.3518
  152DOPC  C31818273   3.316   1.706   6.231  0.1373  0.2936 -0.1577
  152DOPC  H18X18274   3.378   1.706   6.324 -1.2565 -3.0577  0.9230
  152DOPC  H18Y18275   3.351   1.787   6.163 -1.2200  1.3213  0.3122
  152DOPC  H18Z18276   3.210   1.720   6.261  0.0564 -0.5734 -0.0208
  153DOPC     N18277   4.496   7.035   6.724 -0.0980  0.2561 -0.1335
  153DOPC   C1218278   4.596   6.932   6.676  0.4091 -0.0925 -0.1931
  153DOPC  H12A18279   4.539   6.860   6.619  0.5595  0.8255 -1.5488
  153DOPC  H12B18280   4.642   6.883   6.761  0.4374 -0.5282 -0.4567
  153DOPC   C1318281   4.563   7.159   6.783 -0.2744  0.5023  0.2559
  153DOPC  H13A18282   4.627   7.128   6.864 -1.3835  1.4906  1.5646
  153DOPC  H13B18283   4.619   7.210   6.706 -1.2071  0.5204 -0.4226
  153DOPC  H13C18284   4.483   7.222   6.820 -3.1397 -2.8491  0.2385
  153DOPC   C1418285   4.416   6.970   6.834  0.4422  0.5339 -0.1588
  153DOPC  H14A18286   4.333   7.038   6.843 -0.7949 -0.4805 -2.7152
  153DOPC  H14B18287   4.369   6.880   6.796 -2.3799  0.7398  2.4979
  153DOPC  H14C18288   4.475   6.964   6.924 -1.3790  2.8014  1.2957
  153DOPC   C1518289   4.398   7.081   6.616 -0.1208  0.3645  0.6575
  153DOPC  H15A18290   4.450   7.139   6.541  1.4781 -2.5559 -0.6532
  153DOPC  H15B18291   4.319   7.145   6.653 -0.4396 -0.2218  1.0056
  153DOPC  H15C18292   4.358   6.997   6.562  0.8366  1.0778 -1.2550
  153DOPC   C1118293   4.699   6.981   6.576  0.5111  0.3749  0.6283
  153DOPC  H11A18294   4.761   6.895   6.543 -0.9654 -1.0462  1.3816
  153DOPC  H11B18295   4.643   7.012   6.485  1.8266 -0.8482 -0.6434
  153DOPC     P18296   4.914   7.070   6.707 -0.1182  0.1163  0.3539
  153DOPC   O1318297   4.870   6.983   6.819  0.0696  0.9394 -0.0250
  153DOPC   O1418298   4.960   7.207   6.741 -0.7178  0.5602 -0.0199
  153DOPC   O1218299   4.784   7.098   6.616  0.3213 -0.0521 -0.6261
  153DOPC   O1118300   5.020   6.995   6.612 -0.2728 -0.0813 -0.3620
  153DOPC    C118301   5.073   7.047   6.492  0.8984  0.0558  0.2070
  153DOPC    HA18302   5.174   7.000   6.489  1.1219  0.4319  1.3060
  153DOPC    HB18303   5.087   7.156   6.504 -0.0733  0.2677 -0.4325
  153DOPC    C218304   5.000   7.020   6.358  0.5124  0.6080  0.5108
  153DOPC    HS18305   4.897   7.059   6.366 -0.1842 -1.2438  1.1313
  153DOPC   O2118306   4.993   6.875   6.330 -0.2318  0.4859 -0.0192
  153DOPC   C2118307   4.897   6.842   6.248  0.3745  0.4398 -0.2315
  153DOPC   O2218308   4.796   6.905   6.213  0.0041  0.0136  0.0598
  153DOPC   C2218309   4.935   6.696   6.201  0.6290 -0.7059 -0.6545
  153DOPC   H2R18310   4.839   6.640   6.194  0.6408 -0.8179  0.0711
  153DOPC   H2S18311   4.993   6.650   6.283 -0.6470  0.0119  0.7024
  153DOPC    C318312   5.074   7.100   6.238 -0.6835  0.0252 -0.2118
  153DOPC    HX18313   5.171   7.051   6.215 -1.2481 -1.4255  0.3266
  153DOPC    HY18314   5.092   7.203   6.276  1.7764  0.5692 -2.5713
  153DOPC   O3118315   5.002   7.100   6.117 -0.1245 -0.1925  0.1131
  153DOPC   C3118316   4.912   7.197   6.098 -0.0225  0.0347  0.8906
  153DOPC   O3218317   4.870   7.279   6.176  0.1855  0.1158 -0.5529
  153DOPC   C3218318   4.852   7.183   5.953  0.4520  0.0555  0.3073
  153DOPC   H2X18319   4.888   7.274   5.900 -1.7326  0.1807 -1.1291
  153DOPC   H2Y18320   4.901   7.098   5.902  0.0288  0.0128 -0.0391
  153DOPC   C2318321   5.021   6.706   6.075  0.4266  0.5648 -0.0612
  153DOPC   H3R18322   5.050   6.600   6.059 -1.9697 -0.4495  1.6987
  153DOPC   H3S18323   5.102   6.781   6.089 -1.4186  2.4408  1.1495
  153DOPC   C2418324   4.957   6.761   5.944  0.1581  0.2237 -0.5308
  153DOPC   H4R18325   5.035   6.811   5.883 -0.6374  2.1292 -0.0461
  153DOPC   H4S18326   4.878   6.836   5.968 -2.1279 -1.9843 -0.7259
  153DOPC   C2518327   4.881   6.647   5.872 -0.2840  0.4302  0.2271
  153DOPC   H5R18328   4.816   6.598   5.947  0.8633  0.7920  1.5093
  153DOPC   H5S18329   4.956   6.571   5.841  0.0009  0.8486 -0.1250
  153DOPC   C2618330   4.801   6.684   5.753 -0.1845 -0.5643  0.1559
  153DOPC   H6R18331   4.859   6.750   5.685  0.6179 -0.7597  0.6364
  153DOPC   H6S18332   4.712   6.744   5.783 -0.1538  0.1948 -1.1806
  153DOPC   C2718333   4.759   6.570   5.664  0.1503 -0.0997  0.1850
  153DOPC   H7R18334   4.698   6.496   5.721 -2.9832  0.4944 -2.1535
  153DOPC   H7S18335   4.843   6.511   5.621 -1.1563 -2.2040  0.3362
  153DOPC   C2818336   4.679   6.619   5.544  0.2840  0.3537  0.3368
  153DOPC   H8R18337   4.733   6.699   5.489  2.2653 -0.3453  1.1784
  153DOPC   H8S18338   4.578   6.648   5.582 -0.6759 -1.3607 -0.7660
  153DOPC   C2918339   4.668   6.512   5.443 -0.6257  0.6701 -0.2366
  153DOPC   H9R18340   4.762   6.474   5.401 -0.7137 -0.0902  0.2498
  153DOPC  C21018341   4.562   6.435   5.427  0.1949 -0.0776 -0.0394
  153DOPC  H10R18342   4.571   6.364   5.344 -0.9322  0.4661 -0.6417
  153DOPC  C21118343   4.424   6.433   5.491 -0.0418 -0.4872 -0.2952
  153DOPC  H11R18344   4.414   6.506   5.575  1.4775 -1.4969  0.8227
  153DOPC  H11S18345   4.410   6.330   5.530 -0.2715  0.0092  1.0071
  153DOPC  C21218346   4.313   6.477   5.390 -0.4577 -0.0415  0.1214
  153DOPC  H12R18347   4.312   6.401   5.309  0.7731  1.7708 -1.6926
  153DOPC  H12S18348   4.345   6.569   5.335 -1.1910  0.0055 -0.2475
  153DOPC  C21318349   4.166   6.496   5.449  0.3061  0.4002  0.0083
  153DOPC  H13R18350   4.176   6.575   5.527 -0.1090 -0.7651  1.2824
  153DOPC  H13S18351   4.126   6.400   5.488 -1.3913 -0.8544 -4.3532
  153DOPC  C21418352   4.059   6.547   5.343 -0.5882 -0.1906  0.1148
  153DOPC  H14R18353   4.082   6.480   5.257  1.9836 -3.0598  2.8246
  153DOPC  H14S18354   4.075   6.653   5.316 -3.5284  0.0876 -0.9181
  153DOPC  C21518355   3.917   6.521   5.395 -0.2741 -0.4715  0.0339
  153DOPC  H15R18356   3.896   6.599   5.471 -0.5702  2.9636 -3.2588
  153DOPC  H15S18357   3.904   6.417   5.432 -0.1365  0.0122  1.5263
  153DOPC  C21618358   3.822   6.546   5.271 -0.1331 -0.3498 -0.5939
  153DOPC  H16R18359   3.724   6.495   5.279 -1.1128  1.5475  0.0410
  153DOPC  H16S18360   3.874   6.504   5.182  1.7863 -1.9474  1.1616
  153DOPC  C21718361   3.802   6.694   5.248 -0.0448 -0.4177  1.2352
  153DOPC  H17R18362   3.736   6.712   5.160  0.9261 -0.2758  0.5232
  153DOPC  H17S18363   3.902   6.741   5.232 -0.6869  0.6574  0.1378
  153DOPC  C21818364   3.719   6.766   5.356  0.2989 -0.1137  0.4993
  153DOPC  H18R18365   3.615   6.734   5.375  0.0199  0.9069  0.7520
  153DOPC  H18S18366   3.701   6.871   5.322  0.0212 -0.2630  0.1819
  153DOPC  H18T18367   3.769   6.771   5.456  0.4442 -1.4823  0.5137
  153DOPC   C3318368   4.696   7.185   5.938 -0.5735  0.7372 -0.0921
  153DOPC   H3X18369   4.666   7.292   5.942 -0.1384  0.8381  0.5673
  153DOPC   H3Y18370   4.637   7.121   6.007 -0.6427 -0.0954 -0.9149
  153DOPC   C3418371   4.652   7.133   5.795  0.2615  0.1948  0.8960
  153DOPC   H4X18372   4.542   7.128   5.787  0.3806 -0.2320 -0.8297
  153DOPC   H4Y18373   4.686   7.027   5.799  0.8322  0.1385 -2.6319
  153DOPC   C3518374   4.707   7.200   5.671  0.5250 -0.3427  0.3223
  153DOPC   H5X18375   4.814   7.223   5.688  0.7479 -1.6812  0.8463
  153DOPC   H5Y18376   4.650   7.295   5.666 -0.7390 -1.1100 -2.8590
  153DOPC   C3618377   4.687   7.125   5.539  0.1566  0.3863 -0.6140
  153DOPC   H6X18378   4.729   7.024   5.559  0.7827  0.3998 -1.7809
  153DOPC   H6Y18379   4.579   7.101   5.526  0.3965 -2.2462  1.3374
  153DOPC   C3718380   4.755   7.177   5.415  0.0797  0.2693  0.1687
  153DOPC   H7X18381   4.709   7.277   5.404 -0.1209  0.4753  2.3540
  153DOPC   H7Y18382   4.864   7.182   5.434 -0.1821 -0.0619  2.0266
  153DOPC   C3818383   4.710   7.111   5.286  0.5057  0.3326  0.0764
  153DOPC   H8X18384   4.729   7.174   5.197  2.9806  1.5963  1.4080
  153DOPC   H8Y18385   4.601   7.094   5.280  0.5674 -0.4857  0.9548
  153DOPC   C3918386   4.774   6.975   5.263 -0.3507  0.0695 -0.5564
  153DOPC   H9X18387   4.883   6.984   5.251 -0.3310  2.7470  0.7202
  153DOPC  C31018388   4.710   6.856   5.243  0.3392  0.3379  0.2433
  153DOPC  H10X18389   4.760   6.765   5.208 -3.4719 -1.6316 -0.5741
  153DOPC  C31118390   4.559   6.832   5.243  0.8731 -0.4411  0.2515
  153DOPC  H11X18391   4.508   6.929   5.264 -1.2392 -1.1191 -1.4000
  153DOPC  H11Y18392   4.526   6.765   5.325 -0.0890  1.5944  1.6467
  153DOPC  C31218393   4.490   6.787   5.110  0.4282  0.5831  0.2469
  153DOPC  H12X18394   4.526   6.683   5.094 -1.2628  0.0027 -0.0509
  153DOPC  H12Y18395   4.518   6.852   5.024 -2.6577 -0.0746 -1.3948
  153DOPC  C31318396   4.337   6.800   5.108 -0.5363 -0.5375  0.4571
  153DOPC  H13X18397   4.292   6.733   5.184 -0.4668 -1.0640  0.0368
  153DOPC  H13Y18398   4.311   6.907   5.127 -2.5474 -0.7885 -0.6862
  153DOPC  C31418399   4.285   6.754   4.971  0.1292 -0.2463 -0.1935
  153DOPC  H14X18400   4.256   6.850   4.923  0.9499  0.1443  0.0701
  153DOPC  H14Y18401   4.366   6.707   4.914  1.0312  0.3965  0.5210
  153DOPC  C31518402   4.169   6.655   4.978  0.9200 -0.0913  0.7460
  153DOPC  H15X18403   4.084   6.716   5.014  2.2927  1.8978  0.7949
  153DOPC  H15Y18404   4.192   6.572   5.048  1.0090  0.1317  0.9818
  153DOPC  C31618405   4.138   6.590   4.851  0.1345 -0.3772  0.5271
  153DOPC  H16X18406   4.066   6.656   4.797  1.1001 -0.5864 -1.1031
  153DOPC  H16Y18407   4.230   6.584   4.788  0.6459 -0.4524  1.2722
  153DOPC  C31718408   4.070   6.461   4.866  0.8282  0.4832 -0.2733
  153DOPC  H17X18409   4.128   6.391   4.930 -0.3748 -1.0136 -0.7935
  153DOPC  H17Y18410   3.975   6.479   4.921  2.1174  4.0305  1.1342
  153DOPC  C31818411   4.027   6.393   4.734 -0.3492 -0.2900  0.3543
  153DOPC  H18X18412   4.117   6.403   4.670  0.1995  1.9019  1.4000
  153DOPC  H18Y18413   3.999   6.286   4.748 -2.0776 -0.0546 -0.9361
  153DOPC  H18Z18414   3.955   6.455   4.676  2.6232  1.0643 -2.2066
  154DOPC     N18415   6.603   3.257   7.108  0.3203  0.2158  0.6405
  154DOPC   C1218416   6.520   3.313   6.993  0.5859  0.1619  0.5030
  154DOPC  H12A18417   6.458   3.395   7.026  0.0181  0.6377 -1.5762
  154DOPC  H12B18418   6.451   3.237   6.959  0.5172  0.8132 -0.8909
  154DOPC   C1318419   6.702   3.360   7.164  0.0611 -0.1322  0.8235
  154DOPC  H13A18420   6.636   3.440   7.193 -1.1344 -0.9513  0.4361
  154DOPC  H13B18421   6.761   3.331   7.250  0.8566  1.7669  0.9677
  154DOPC  H13C18422   6.769   3.396   7.087 -1.4919  0.8322 -0.1226
  154DOPC   C1418423   6.681   3.143   7.045  0.3645 -0.2025 -0.0261
  154DOPC  H14A18424   6.760   3.108   7.111  2.0702 -2.3356 -2.9422
  154DOPC  H14B18425   6.617   3.059   7.023 -1.9456  1.4467  0.0456
  154DOPC  H14C18426   6.737   3.176   6.960  1.1036  1.4425  1.0576
  154DOPC   C1518427   6.524   3.210   7.221 -0.4426 -0.7928  0.4510
  154DOPC  H15A18428   6.589   3.193   7.305  1.3052  1.8000 -0.2603
  154DOPC  H15B18429   6.454   3.128   7.210 -0.4673 -0.8560  1.0444
  154DOPC  H15C18430   6.457   3.290   7.250 -0.6408 -0.6790 -0.3044
  154DOPC   C1118431   6.589   3.366   6.865 -0.0695 -0.3388  0.5034
  154DOPC  H11A18432   6.666   3.294   6.830 -0.9014 -1.4352  0.8833
  154DOPC  H11B18433   6.502   3.365   6.796  0.8245 -3.8068 -0.7717
  154DOPC     P18434   6.534   3.617   6.877  0.3932 -0.1354 -0.0745
  154DOPC   O1318435   6.555   3.728   6.965  0.0810 -0.6650  0.0235
  154DOPC   O1418436   6.393   3.569   6.887 -0.3915 -0.3955  0.6999
  154DOPC   O1218437   6.639   3.499   6.890 -0.2155 -0.3139 -0.5170
  154DOPC   O1118438   6.553   3.664   6.724 -0.4911 -0.2994  0.4736
  154DOPC    C118439   6.687   3.681   6.672  0.5340 -0.2516 -0.5198
  154DOPC    HA18440   6.765   3.624   6.727  0.3486 -0.3421 -0.3494
  154DOPC    HB18441   6.708   3.789   6.655  0.0456 -0.1334 -0.3854
  154DOPC    C218442   6.694   3.624   6.523  0.2775  0.2216  0.0472
  154DOPC    HS18443   6.648   3.703   6.460  1.7899  0.6922 -0.5117
  154DOPC   O2118444   6.636   3.492   6.509 -0.3012 -0.0121  0.2810
  154DOPC   C2118445   6.524   3.487   6.450 -0.8519  0.1534 -0.3571
  154DOPC   O2218446   6.468   3.586   6.394 -0.1064  0.2397 -0.1478
  154DOPC   C2218447   6.471   3.342   6.458 -0.1796 -0.1571  0.1212
  154DOPC   H2R18448   6.412   3.332   6.551  0.0099  2.0039  0.5352
  154DOPC   H2S18449   6.551   3.265   6.468  0.6020  0.7964  1.5163
  154DOPC    C318450   6.850   3.620   6.490  0.1802  0.4239 -0.3177
  154DOPC    HX18451   6.914   3.548   6.545  1.2826  0.8667 -0.9935
  154DOPC    HY18452   6.899   3.714   6.523  0.0495  0.1924  0.5701
  154DOPC   O3118453   6.870   3.628   6.349  0.6013 -0.1581 -0.1392
  154DOPC   C3118454   6.908   3.520   6.290 -0.1265  0.4012 -0.0811
  154DOPC   O3218455   6.921   3.409   6.344 -0.0543 -0.3345 -0.6964
  154DOPC   C3218456   6.941   3.554   6.142 -0.1261  0.1028 -0.6288
  154DOPC   H2X18457   7.027   3.625   6.140  0.4363 -0.5101  0.3028
  154DOPC   H2Y18458   6.972   3.456   6.099 -0.7023 -0.4603  0.2003
  154DOPC   C2318459   6.380   3.298   6.338 -0.1174 -0.0159  0.3492
  154DOPC   H3R18460   6.292   3.365   6.322  0.9204  1.1543 -0.7249
  154DOPC   H3S18461   6.338   3.201   6.372  0.6057 -0.2373  0.6168
  154DOPC   C2418462   6.464   3.282   6.205  0.3789 -0.2587  0.8601
  154DOPC   H4R18463   6.535   3.199   6.225 -1.3444 -2.1025 -0.3465
  154DOPC   H4S18464   6.511   3.379   6.178 -1.0467 -0.2213 -1.8097
  154DOPC   C2518465   6.367   3.265   6.080  0.1489  0.0109 -0.2347
  154DOPC   H5R18466   6.428   3.300   5.994  2.5545  1.9682  2.0851
  154DOPC   H5S18467   6.281   3.335   6.087  0.1449  0.2495 -2.2645
  154DOPC   C2618468   6.306   3.128   6.075 -0.0121 -0.5524  0.3101
  154DOPC   H6R18469   6.225   3.120   6.150  0.5345 -1.0601  0.8492
  154DOPC   H6S18470   6.377   3.045   6.091 -0.7746 -1.8715 -2.4501
  154DOPC   C2718471   6.251   3.092   5.933 -0.2394 -0.0506  0.3702
  154DOPC   H7R18472   6.335   3.095   5.860 -1.8697  3.4104 -1.6435
  154DOPC   H7S18473   6.174   3.163   5.894 -1.0209 -1.7367 -1.3247
  154DOPC   C2818474   6.183   2.956   5.928  0.1431 -0.5954 -0.5013
  154DOPC   H8R18475   6.142   2.951   5.825  3.0078 -2.8294 -1.6863
  154DOPC   H8S18476   6.095   2.951   5.995  1.4971 -0.6713  1.3366
  154DOPC   C2918477   6.271   2.842   5.970 -0.2184 -1.1713  0.4282
  154DOPC   H9R18478   6.281   2.818   6.076  0.5691 -0.4783  0.5202
  154DOPC  C21018479   6.352   2.768   5.892  0.5199  0.0643  0.2859
  154DOPC  H10R18480   6.390   2.672   5.931  0.5293 -0.6034 -1.3144
  154DOPC  C21118481   6.366   2.792   5.736 -0.0967 -0.3064 -0.9722
  154DOPC  H11R18482   6.287   2.862   5.703  0.4457 -0.2385 -2.1934
  154DOPC  H11S18483   6.350   2.697   5.681 -0.5007 -1.5005  1.0861
  154DOPC  C21218484   6.492   2.864   5.690 -0.8044  0.7008 -0.2836
  154DOPC  H12R18485   6.568   2.789   5.721 -2.5320  0.4173  3.9082
  154DOPC  H12S18486   6.512   2.960   5.744 -1.7685  0.8749 -0.2309
  154DOPC  C21318487   6.507   2.897   5.544 -0.6175 -0.0747  0.3224
  154DOPC  H13R18488   6.611   2.930   5.520 -0.1767  0.6275  2.8916
  154DOPC  H13S18489   6.439   2.983   5.526 -1.1414 -0.7678 -1.1115
  154DOPC  C21418490   6.464   2.785   5.446 -0.1168  0.5316  0.1577
  154DOPC  H14R18491   6.356   2.770   5.466 -0.7788  1.4675 -2.2998
  154DOPC  H14S18492   6.522   2.692   5.460  1.1707  1.2799 -0.0508
  154DOPC  C21518493   6.490   2.831   5.303 -0.7907 -0.8259  0.0389
  154DOPC  H15R18494   6.600   2.818   5.294 -0.5598 -1.9873  3.4206
  154DOPC  H15S18495   6.468   2.940   5.292 -0.3049 -0.7243  0.0439
  154DOPC  C21618496   6.412   2.764   5.195 -0.3541 -0.0907  0.5022
  154DOPC  H16R18497   6.443   2.799   5.095  0.7336 -1.9251  0.1582
  154DOPC  H16S18498   6.302   2.775   5.211 -0.4072 -0.6100  0.5155
  154DOPC  C21718499   6.444   2.613   5.174 -0.6907  0.0411 -0.4317
  154DOPC  H17R18500   6.382   2.561   5.251 -0.7574  1.5869  0.5953
  154DOPC  H17S18501   6.550   2.589   5.196 -1.3383 -0.9740  1.8802
  154DOPC  C21818502   6.425   2.565   5.031 -0.1663 -0.5270  0.1225
  154DOPC  H18R18503   6.326   2.598   4.993  0.5507  0.1858 -1.1906
  154DOPC  H18S18504   6.413   2.456   5.014 -0.7688 -0.0353 -3.1389
  154DOPC  H18T18505   6.505   2.609   4.968  0.1595 -2.2474 -0.7177
  154DOPC   C3318506   6.828   3.609   6.057  0.1400  0.2484  0.2268
  154DOPC   H3X18507   6.869   3.633   5.957  2.7500 -0.6347  0.9956
  154DOPC   H3Y18508   6.785   3.705   6.094  0.0197 -0.5389  2.2353
  154DOPC   C3418509   6.702   3.517   6.046  0.1154 -0.2445  0.7938
  154DOPC   H4X18510   6.634   3.529   6.134 -1.5266 -0.5915 -0.3667
  154DOPC   H4Y18511   6.724   3.408   6.043  0.4285 -0.1734 -1.3685
  154DOPC   C3518512   6.617   3.555   5.918  0.1913  0.8536 -0.2503
  154DOPC   H5X18513   6.525   3.493   5.918  1.7168 -1.5986  0.3164
  154DOPC   H5Y18514   6.675   3.529   5.827 -0.2473 -0.8579 -0.0703
  154DOPC   C3618515   6.584   3.702   5.920  0.6342  0.1392 -0.4708
  154DOPC   H6X18516   6.527   3.724   6.013  1.8471 -0.7259  0.5197
  154DOPC   H6Y18517   6.673   3.769   5.918  0.4305  0.3875 -1.7488
  154DOPC   C3718518   6.499   3.735   5.794 -0.2549  0.8374  0.2721
  154DOPC   H7X18519   6.540   3.685   5.703  3.2450  0.8466  1.6676
  154DOPC   H7Y18520   6.402   3.691   5.826 -0.1633 -0.7548 -1.4459
  154DOPC   C3818521   6.478   3.888   5.774  0.5139  0.0855 -0.5444
  154DOPC   H8X18522   6.453   3.934   5.872 -0.5939  0.1978 -0.8699
  154DOPC   H8Y18523   6.381   3.914   5.728 -0.4246  0.8672  1.7697
  154DOPC   C3918524   6.585   3.960   5.701  0.1389  0.2568  0.5941
  154DOPC   H9X18525   6.630   4.044   5.756  0.2842  0.6031 -0.0481
  154DOPC  C31018526   6.634   3.938   5.577 -0.4704  0.0807  0.0723
  154DOPC  H10X18527   6.722   3.990   5.534  0.6755 -2.3439 -0.6632
  154DOPC  C31118528   6.593   3.833   5.479  0.9527 -0.7074  0.0884
  154DOPC  H11X18529   6.504   3.779   5.518 -1.1758  2.0395 -0.6483
  154DOPC  H11Y18530   6.676   3.760   5.464  1.3169 -0.7074  1.8987
  154DOPC  C31218531   6.558   3.900   5.345 -0.5510  0.3384  0.0178
  154DOPC  H12X18532   6.528   3.817   5.278 -0.5002  0.4344 -0.1236
  154DOPC  H12Y18533   6.651   3.949   5.308 -0.9003  0.7790 -0.2856
  154DOPC  C31318534   6.452   4.009   5.353 -0.0142  0.0750 -0.5409
  154DOPC  H13X18535   6.344   3.982   5.364 -0.1245  0.1397 -1.3785
  154DOPC  H13Y18536   6.477   4.082   5.433 -1.7286  1.5684 -1.2768
  154DOPC  C31418537   6.458   4.100   5.228 -0.0236 -0.4488 -0.8606
  154DOPC  H14X18538   6.362   4.156   5.223 -0.9713 -1.9334 -0.0195
  154DOPC  H14Y18539   6.545   4.169   5.226 -1.0768  0.8811 -1.6159
  154DOPC  C31518540   6.478   4.027   5.095  0.4327  0.6362 -0.0395
  154DOPC  H15X18541   6.558   3.949   5.095  0.3668  0.5663  0.5461
  154DOPC  H15Y18542   6.515   4.105   5.025 -0.0364  0.1518 -0.8487
  154DOPC  C31618543   6.349   3.954   5.052 -0.5280  0.0726 -0.2946
  154DOPC  H16X18544   6.327   3.877   5.130  2.5856  1.2979  2.0320
  154DOPC  H16Y18545   6.264   4.023   5.067 -1.9457 -1.5023 -0.8125
  154DOPC  C31718546   6.348   3.884   4.912 -0.2558 -0.3334  0.0728
  154DOPC  H17X18547   6.389   3.958   4.841  0.6797  1.5295  2.4312
  154DOPC  H17Y18548   6.419   3.799   4.918  2.0703  1.4565 -0.8349
  154DOPC  C31818549   6.215   3.841   4.860  0.2611 -0.7598  0.3483
  154DOPC  H18X18550   6.158   3.935   4.846 -0.5674 -1.1751  0.8695
  154DOPC  H18Y18551   6.238   3.794   4.762 -0.7807  1.2638 -0.9426
  154DOPC  H18Z18552   6.151   3.787   4.933 -0.1229  0.3843  0.8679
  155DOPC     N18553   0.906   2.398   7.131  0.0916  0.5433 -0.2051
  155DOPC   C1218554   0.878   2.432   6.984  0.3524 -0.3407  0.1721
  155DOPC  H12A18555   0.940   2.514   6.952  0.1404 -0.6431 -1.0751
  155DOPC  H12B18556   0.779   2.473   6.976  0.7634  0.7460  0.4729
  155DOPC   C1318557   0.834   2.500   7.213 -0.4426 -0.3288 -0.0235
  155DOPC  H13A18558   0.855   2.595   7.165 -1.4733  0.0561  0.2588
  155DOPC  H13B18559   0.729   2.478   7.226 -0.5170  1.1519  2.9530
  155DOPC  H13C18560   0.880   2.502   7.311  0.1449  2.4081 -0.2566
  155DOPC   C1418561   1.056   2.396   7.161  0.0973  0.0252 -0.5142
  155DOPC  H14A18562   1.080   2.384   7.266  0.2607 -0.5982 -0.6199
  155DOPC  H14B18563   1.093   2.306   7.114 -1.5975 -0.7760 -0.4351
  155DOPC  H14C18564   1.104   2.487   7.130  0.8468 -0.2434 -0.1662
  155DOPC   C1518565   0.845   2.265   7.167 -0.4983  0.7455  0.0217
  155DOPC  H15A18566   0.880   2.191   7.096  1.0830  3.9235 -2.8111
  155DOPC  H15B18567   0.738   2.260   7.160 -0.6694 -0.9409  2.4161
  155DOPC  H15C18568   0.882   2.230   7.262 -1.2704 -0.4337 -0.0969
  155DOPC   C1118569   0.907   2.323   6.882  0.1134 -0.5976 -0.3405
  155DOPC  H11A18570   0.839   2.236   6.897  0.5363 -0.8183  0.4121
  155DOPC  H11B18571   0.870   2.363   6.786 -0.6578 -0.7894 -0.1301
  155DOPC     P18572   1.154   2.370   6.814 -0.2526 -0.1777  0.1263
  155DOPC   O1318573   1.292   2.316   6.828  0.0949 -0.0560  0.4986
  155DOPC   O1418574   1.133   2.509   6.857 -0.4134 -0.1330  0.0137
  155DOPC   O1218575   1.044   2.282   6.885  0.4854 -0.4010  0.2418
  155DOPC   O1118576   1.098   2.351   6.667  0.7812  0.2221  0.4265
  155DOPC    C118577   1.082   2.216   6.615  0.5137 -0.7978  0.3098
  155DOPC    HA18578   1.019   2.150   6.678 -0.3375 -0.3138 -0.0302
  155DOPC    HB18579   1.182   2.169   6.597 -0.0970 -1.5325 -1.3754
  155DOPC    C218580   1.006   2.208   6.473  1.1875  0.6116 -0.2356
  155DOPC    HS18581   1.012   2.103   6.436 -1.4086  0.8473 -1.5174
  155DOPC   O2118582   1.068   2.299   6.382 -0.2371 -0.0028 -0.3044
  155DOPC   C2118583   1.076   2.256   6.249 -1.0011  0.0169  0.3150
  155DOPC   O2218584   1.044   2.149   6.209  0.5012  0.4477 -0.3675
  155DOPC   C2218585   1.157   2.360   6.170  0.4076 -0.3295  0.4201
  155DOPC   H2R18586   1.241   2.387   6.239 -1.2848 -1.8011  3.2867
  155DOPC   H2S18587   1.092   2.450   6.173  1.0202  0.1194  0.4563
  155DOPC    C318588   0.847   2.232   6.493 -0.1223  0.2410  0.2994
  155DOPC    HX18589   0.847   2.337   6.531  1.1713 -0.6604  3.0919
  155DOPC    HY18590   0.803   2.159   6.564 -0.1579  0.3235  0.3625
  155DOPC   O3118591   0.782   2.234   6.364  0.7274  0.1783 -0.0138
  155DOPC   C3118592   0.755   2.112   6.319  0.2633 -0.2300  0.6470
  155DOPC   O3218593   0.767   2.004   6.377 -0.3372 -0.7437  0.1205
  155DOPC   C3218594   0.713   2.130   6.175  0.2746 -0.1960  0.4017
  155DOPC   H2X18595   0.691   2.236   6.152  0.6999  0.1250  1.4566
  155DOPC   H2Y18596   0.780   2.078   6.103 -1.1976  2.6649 -3.4040
  155DOPC   C2318597   1.210   2.311   6.043  1.0590  0.4527  0.3051
  155DOPC   H3R18598   1.267   2.219   6.070  1.8346  0.9234  0.3186
  155DOPC   H3S18599   1.290   2.379   6.005  2.1967 -0.5157  0.8955
  155DOPC   C2418600   1.099   2.294   5.935  0.2289 -0.1061  0.1321
  155DOPC   H4R18601   1.055   2.392   5.907  0.3934  0.5038  1.8388
  155DOPC   H4S18602   1.016   2.231   5.973 -1.0969  1.4968  0.0168
  155DOPC   C2518603   1.169   2.237   5.812 -0.4927  0.1633  0.5018
  155DOPC   H5R18604   1.193   2.132   5.837 -0.5375  0.6147  2.6296
  155DOPC   H5S18605   1.269   2.285   5.796  0.0046 -0.7771  0.7219
  155DOPC   C2618606   1.080   2.251   5.685 -0.6558 -0.3106 -0.1516
  155DOPC   H6R18607   1.075   2.359   5.657  2.6007 -0.1701 -0.5233
  155DOPC   H6S18608   0.982   2.214   5.722 -0.0222  0.4441  2.5399
  155DOPC   C2718609   1.127   2.175   5.558 -0.3286 -0.1437  0.4881
  155DOPC   H7R18610   1.222   2.223   5.526 -0.7067 -0.9634 -2.0608
  155DOPC   H7S18611   1.045   2.198   5.488  1.2760  0.0139 -1.4299
  155DOPC   C2818612   1.156   2.031   5.572  0.3340 -0.3839 -0.2667
  155DOPC   H8R18613   1.071   1.985   5.627  0.3145  0.6263  0.5806
  155DOPC   H8S18614   1.253   2.024   5.626  0.1988 -1.3036 -0.1299
  155DOPC   C2918615   1.180   1.968   5.439  0.3861  0.1506  0.7115
  155DOPC   H9R18616   1.237   2.031   5.369 -1.1559  0.2952 -0.4536
  155DOPC  C21018617   1.135   1.854   5.387 -0.9000  0.0208  0.1915
  155DOPC  H10R18618   1.170   1.827   5.286  0.7478  1.1487  0.4212
  155DOPC  C21118619   1.039   1.755   5.454 -0.7445 -1.0018  0.4230
  155DOPC  H11R18620   1.064   1.769   5.561  1.7481  0.0043 -0.2328
  155DOPC  H11S18621   1.060   1.654   5.414  0.8973 -0.4423 -0.2253
  155DOPC  C21218622   0.895   1.814   5.431 -0.0217 -0.0633 -0.0580
  155DOPC  H12R18623   0.890   1.918   5.467 -0.1099 -0.1497  0.1793
  155DOPC  H12S18624   0.828   1.753   5.496  1.1898 -1.4453 -0.0299
  155DOPC  C21318625   0.840   1.780   5.285 -0.9849 -0.5626 -0.8854
  155DOPC  H13R18626   0.851   1.670   5.276  0.2040 -0.5093 -0.2958
  155DOPC  H13S18627   0.910   1.824   5.210  0.0653 -1.6240 -0.5530
  155DOPC  C21418628   0.699   1.826   5.246  0.2408 -0.2155 -0.2660
  155DOPC  H14R18629   0.695   1.837   5.136 -0.2248 -1.6260 -0.4091
  155DOPC  H14S18630   0.687   1.926   5.293  1.1222  0.9424 -2.3650
  155DOPC  C21518631   0.594   1.728   5.298 -0.3570 -0.0956  0.0216
  155DOPC  H15R18632   0.617   1.717   5.406 -0.6447 -3.0212 -0.1305
  155DOPC  H15S18633   0.604   1.619   5.279 -1.1792 -0.5715  2.0539
  155DOPC  C21618634   0.449   1.776   5.283 -0.4392 -0.2666 -0.0052
  155DOPC  H16R18635   0.450   1.884   5.312 -1.8745  0.6162 -2.8230
  155DOPC  H16S18636   0.372   1.726   5.345  0.3335 -0.0101  1.1895
  155DOPC  C21718637   0.397   1.780   5.143 -0.2762  0.3063 -0.2496
  155DOPC  H17R18638   0.470   1.833   5.078 -1.4022  2.6250  0.2483
  155DOPC  H17S18639   0.306   1.844   5.142 -0.0061  0.7285  0.9491
  155DOPC  C21818640   0.361   1.645   5.086 -0.4990  0.2227 -0.0748
  155DOPC  H18R18641   0.266   1.611   5.132 -1.8750  0.4145 -2.6085
  155DOPC  H18S18642   0.449   1.579   5.072  0.0949  1.2949 -1.7029
  155DOPC  H18T18643   0.323   1.663   4.983  0.2030 -0.4017 -0.4507
  155DOPC   C3318644   0.574   2.068   6.155  0.4108 -0.5071  0.5112
  155DOPC   H3X18645   0.502   2.112   6.227 -0.4062 -1.4944  0.3215
  155DOPC   H3Y18646   0.578   1.957   6.158  0.8938 -0.4862  0.6449
  155DOPC   C3418647   0.523   2.096   6.004  0.0275 -0.1304 -0.1889
  155DOPC   H4X18648   0.488   2.202   6.005  0.2965 -0.0428  0.7196
  155DOPC   H4Y18649   0.432   2.036   5.981 -0.8996  0.9360  0.6085
  155DOPC   C3518650   0.627   2.087   5.888 -0.0403  0.0857  0.6356
  155DOPC   H5X18651   0.692   1.997   5.896  0.2904  0.3106  0.4871
  155DOPC   H5Y18652   0.686   2.181   5.885  1.0821 -0.6163 -2.4094
  155DOPC   C3618653   0.551   2.060   5.752  0.0791  0.4695 -0.0801
  155DOPC   H6X18654   0.628   2.052   5.671 -0.7897  2.1640 -1.1340
  155DOPC   H6Y18655   0.493   1.966   5.760 -1.4723  1.3888 -0.0171
  155DOPC   C3718656   0.443   2.166   5.713  0.0436  0.1875  0.3232
  155DOPC   H7X18657   0.399   2.121   5.621 -0.3581 -0.9515  1.0439
  155DOPC   H7Y18658   0.359   2.174   5.785  0.6908  0.3626  1.0701
  155DOPC   C3818659   0.506   2.298   5.696 -0.8898 -0.0214 -0.1773
  155DOPC   H8X18660   0.569   2.292   5.605 -1.1812 -0.4028 -0.3550
  155DOPC   H8Y18661   0.559   2.341   5.784 -2.4390  0.1321  0.7156
  155DOPC   C3918662   0.404   2.406   5.660  0.1392  0.0018  0.6752
  155DOPC   H9X18663   0.394   2.415   5.550 -0.6081 -1.2868  0.6244
  155DOPC  C31018664   0.336   2.493   5.742  0.5457 -0.2802  0.2096
  155DOPC  H10X18665   0.262   2.568   5.709  0.7356  0.4925  1.4521
  155DOPC  C31118666   0.349   2.509   5.888  0.4060 -0.0775  0.5835
  155DOPC  H11X18667   0.396   2.605   5.916  0.0394 -0.4645  2.6977
  155DOPC  H11Y18668   0.429   2.444   5.929  0.0149  0.6785  2.6755
  155DOPC  C31218669   0.211   2.486   5.962  0.2953  0.1036 -0.3287
  155DOPC  H12X18670   0.187   2.379   5.942  0.7064 -0.4055  1.6474
  155DOPC  H12Y18671   0.135   2.554   5.917 -0.0502 -0.6347 -0.8843
  155DOPC  C31318672   0.218   2.492   6.119 -0.1684  0.1378  0.1696
  155DOPC  H13X18673   0.296   2.431   6.170  0.0378  0.9369  0.8247
  155DOPC  H13Y18674   0.250   2.595   6.144 -0.4026  0.7831 -1.9474
  155DOPC  C31418675   0.081   2.458   6.182 -1.0259  0.5201 -0.1584
  155DOPC  H14X18676   0.017   2.534   6.133  1.4956  3.6694  1.0412
  155DOPC  H14Y18677   0.051   2.356   6.150 -0.2215  0.4484 -0.7175
  155DOPC  C31518678   0.068   2.463   6.333  0.4144 -0.6133  0.3353
  155DOPC  H15X18679   0.085   2.563   6.378  1.8933 -0.4818 -0.4781
  155DOPC  H15Y18680   0.154   2.406   6.374  0.4967 -0.7239  0.0164
  155DOPC  C31618681  -0.064   2.403   6.390 -0.5217  0.0722  0.7207
  155DOPC  H16X18682  -0.145   2.379   6.317  1.8764 -0.4999 -1.9626
  155DOPC  H16Y18683  -0.038   2.300   6.423  0.7737  0.4127  0.8034
  155DOPC  C31718684  -0.124   2.490   6.500  0.1410 -0.3632 -0.7129
  155DOPC  H17X18685  -0.052   2.484   6.584  0.1600  1.2879 -0.5749
  155DOPC  H17Y18686  -0.127   2.593   6.460 -2.2956 -0.1467 -0.1837
  155DOPC  C31818687  -0.273   2.458   6.528 -0.2750  1.2305 -0.5867
  155DOPC  H18X18688  -0.327   2.527   6.597 -1.1922  0.8687 -0.9297
  155DOPC  H18Y18689  -0.333   2.463   6.435 -0.3352 -1.7203 -0.7767
  155DOPC  H18Z18690  -0.285   2.359   6.577  0.2010  0.4539 -2.0064
  156DOPC     N18691   5.324   6.642   6.896  0.3937  0.1972 -0.3683
  156DOPC   C1218692   5.443   6.723   6.838  0.3320  0.5271 -0.7016
  156DOPC  H12A18693   5.429   6.826   6.867 -1.8401  0.4078 -1.1872
  156DOPC  H12B18694   5.429   6.725   6.731 -1.0124 -0.6032 -0.5729
  156DOPC   C1318695   5.328   6.502   6.845 -0.5346 -0.2680 -0.5552
  156DOPC  H13A18696   5.239   6.449   6.877 -0.0183  0.7685  3.0473
  156DOPC  H13B18697   5.339   6.506   6.738  2.7029 -0.8876 -0.3351
  156DOPC  H13C18698   5.404   6.446   6.897 -1.4449  0.8819  2.1981
  156DOPC   C1418699   5.196   6.700   6.838  0.5610  0.0703 -0.1124
  156DOPC  H14A18700   5.128   6.618   6.821 -0.0657 -0.3023  3.5114
  156DOPC  H14B18701   5.150   6.774   6.901  1.1083 -0.1641  0.5769
  156DOPC  H14C18702   5.206   6.754   6.744  0.3365 -0.6536 -0.5605
  156DOPC   C1518703   5.315   6.640   7.040 -0.0089 -0.1178 -0.3940
  156DOPC  H15A18704   5.232   6.588   7.084 -1.1252  1.6906 -0.2732
  156DOPC  H15B18705   5.293   6.743   7.063  3.2298  0.8220 -0.9175
  156DOPC  H15C18706   5.410   6.603   7.077 -0.2025 -0.7997 -0.5703
  156DOPC   C1118707   5.590   6.681   6.871  0.2127 -0.5212 -0.0638
  156DOPC  H11A18708   5.592   6.587   6.812  0.0658 -0.9232  0.5645
  156DOPC  H11B18709   5.663   6.755   6.830 -1.0916  0.6871 -0.2795
  156DOPC     P18710   5.651   6.512   7.057  0.4568  0.4120  0.2747
  156DOPC   O1318711   5.526   6.433   7.072  0.1032 -0.5822 -0.1969
  156DOPC   O1418712   5.737   6.525   7.177 -0.2971  0.0136 -0.4573
  156DOPC   O1218713   5.615   6.659   7.009 -0.4744 -0.1942  0.1875
  156DOPC   O1118714   5.743   6.449   6.953  0.3310  0.6856  0.8139
  156DOPC    C118715   5.864   6.505   6.909  0.3267 -0.0230 -0.7307
  156DOPC    HA18716   5.959   6.453   6.933  1.3033  2.5540  1.5730
  156DOPC    HB18717   5.878   6.609   6.946  0.1971 -0.6516  1.1779
  156DOPC    C218718   5.866   6.518   6.756 -0.1877  0.2069 -0.1176
  156DOPC    HS18719   5.764   6.559   6.741 -0.7995 -1.0696  0.3659
  156DOPC   O2118720   5.880   6.387   6.701 -0.2230  0.7351  0.6009
  156DOPC   C2118721   5.807   6.369   6.586 -0.0581 -0.1225 -0.0997
  156DOPC   O2218722   5.723   6.448   6.548 -1.1435  0.3221 -0.3261
  156DOPC   C2218723   5.838   6.228   6.530 -0.4734 -0.3074 -0.8869
  156DOPC   H2R18724   5.754   6.164   6.564  1.0114 -1.9612 -0.1983
  156DOPC   H2S18725   5.931   6.192   6.578  0.1175  1.1305 -0.9033
  156DOPC    C318726   5.987   6.609   6.708  0.2111 -0.2716 -0.5573
  156DOPC    HX18727   6.072   6.558   6.760  0.9030 -0.6634 -2.0324
  156DOPC    HY18728   5.969   6.710   6.749 -1.1586 -1.0545  0.9148
  156DOPC   O3118729   6.023   6.612   6.569 -0.4445 -0.2070  0.1070
  156DOPC   C3118730   5.955   6.689   6.485 -0.0005  0.1030 -0.5494
  156DOPC   O3218731   5.879   6.777   6.524 -0.1691 -0.5341 -0.0412
  156DOPC   C3218732   5.994   6.660   6.342 -0.4238 -0.1617  0.3294
  156DOPC   H2X18733   6.104   6.678   6.340  0.6045 -5.2368 -0.3556
  156DOPC   H2Y18734   6.004   6.555   6.309  2.0288 -0.2996  1.3446
  156DOPC   C2318735   5.852   6.232   6.378 -0.0134  1.1345  0.5733
  156DOPC   H3R18736   5.788   6.310   6.331 -0.4783  0.7334  0.5319
  156DOPC   H3S18737   5.815   6.134   6.343  1.7797  0.1886  1.2358
  156DOPC   C2418738   5.997   6.254   6.340 -0.4005 -0.7507  0.4828
  156DOPC   H4R18739   6.055   6.305   6.421 -0.3653 -3.2361  2.1587
  156DOPC   H4S18740   6.004   6.314   6.248 -2.7235  1.9656  1.9320
  156DOPC   C2518741   6.066   6.117   6.315 -0.4720  0.5073  0.2340
  156DOPC   H5R18742   6.005   6.072   6.234  1.7201 -1.6268 -0.3379
  156DOPC   H5S18743   6.054   6.065   6.413 -2.1367  2.3939  1.1005
  156DOPC   C2618744   6.215   6.123   6.285 -0.2958  1.1158 -0.0394
  156DOPC   H6R18745   6.273   6.184   6.357  1.2001  1.1006 -1.1842
  156DOPC   H6S18746   6.226   6.176   6.188 -1.1475  1.8760  0.2707
  156DOPC   C2718747   6.280   5.986   6.305 -0.4612 -0.1462  0.5981
  156DOPC   H7R18748   6.226   5.912   6.242  1.1553 -0.6612 -0.2334
  156DOPC   H7S18749   6.260   5.956   6.410 -2.0989  2.3184  1.0901
  156DOPC   C2818750   6.427   5.969   6.264  0.2266 -0.9350  0.2636
  156DOPC   H8R18751   6.438   5.911   6.169 -1.0611 -0.9246  0.0848
  156DOPC   H8S18752   6.462   5.898   6.342  3.9497  2.0634  1.6718
  156DOPC   C2918753   6.522   6.079   6.288  0.1424 -0.3524  0.5407
  156DOPC   H9R18754   6.521   6.116   6.392 -2.7619  0.1228  0.4361
  156DOPC  C21018755   6.605   6.137   6.200 -0.2063 -0.0279  0.4322
  156DOPC  H10R18756   6.652   6.231   6.233  0.4781 -0.4407  0.6477
  156DOPC  C21118757   6.628   6.097   6.046  0.0631 -0.1771 -0.1334
  156DOPC  H11R18758   6.605   5.988   6.038 -0.3419 -0.0404 -0.9004
  156DOPC  H11S18759   6.731   6.105   6.005 -0.3511 -0.3976 -1.2417
  156DOPC  C21218760   6.524   6.177   5.956 -0.0975 -0.5064  0.2289
  156DOPC  H12R18761   6.527   6.283   5.989 -0.8447  0.0583 -1.3798
  156DOPC  H12S18762   6.424   6.132   5.974  0.0366 -1.1851 -0.6396
  156DOPC  C21318763   6.552   6.189   5.801  0.0949 -0.3507 -0.7492
  156DOPC  H13R18764   6.646   6.245   5.780  1.3193 -1.0458  2.3614
  156DOPC  H13S18765   6.461   6.239   5.759 -1.8493 -1.9880  1.2428
  156DOPC  C21418766   6.553   6.051   5.730 -0.6233  0.3825  0.0490
  156DOPC  H14R18767   6.469   6.065   5.659  1.2795  0.0003 -2.4228
  156DOPC  H14S18768   6.529   5.970   5.802  0.2997  0.4595  0.4553
  156DOPC  C21518769   6.685   6.030   5.647  0.1475  0.6590 -0.7174
  156DOPC  H15R18770   6.767   6.002   5.716  0.2117 -0.2530 -1.1536
  156DOPC  H15S18771   6.719   6.130   5.611  1.1485  0.6112  0.0351
  156DOPC  C21618772   6.671   5.929   5.543  0.2888  0.6774  0.2376
  156DOPC  H16R18773   6.591   5.960   5.472  0.7983 -0.1237 -0.7244
  156DOPC  H16S18774   6.630   5.837   5.591 -0.5863 -0.4742 -2.5134
  156DOPC  C21718775   6.794   5.885   5.460  0.3639  0.0251  0.4326
  156DOPC  H17R18776   6.754   5.803   5.396 -0.0717 -0.5929  1.4598
  156DOPC  H17S18777   6.873   5.848   5.528  1.5016  1.6386  0.0507
  156DOPC  C21818778   6.861   5.989   5.368 -0.3094 -0.1945  0.4897
  156DOPC  H18R18779   6.784   6.047   5.314  0.5771  2.0690  1.5305
  156DOPC  H18S18780   6.938   5.944   5.302 -0.2710 -0.1391  0.4961
  156DOPC  H18T18781   6.922   6.060   5.429  0.1697 -0.9648  0.9280
  156DOPC   C3318782   5.908   6.738   6.240 -0.0391  0.7483  0.5044
  156DOPC   H3X18783   5.913   6.847   6.260 -0.7494  1.0627 -0.9451
  156DOPC   H3Y18784   5.806   6.702   6.265  0.7750 -1.2420  1.1614
  156DOPC   C3418785   5.955   6.717   6.098  0.2057  0.1774 -0.8331
  156DOPC   H4X18786   5.932   6.613   6.069  0.8859 -1.1153  2.7590
  156DOPC   H4Y18787   6.063   6.738   6.084  0.1527  1.2900  0.2113
  156DOPC   C3518788   5.866   6.788   5.998  0.5273  0.2126 -0.0208
  156DOPC   H5X18789   5.884   6.897   5.990 -1.1367  0.3801 -2.9209
  156DOPC   H5Y18790   5.761   6.761   6.024  0.5601 -0.4684 -0.5581
  156DOPC   C3618791   5.880   6.744   5.854 -0.0028 -0.0487  0.3458
  156DOPC   H6X18792   5.860   6.635   5.845  1.8170 -0.3126 -1.2377
  156DOPC   H6Y18793   5.806   6.797   5.791  2.3881  0.4643 -2.2419
  156DOPC   C3718794   6.014   6.779   5.797 -0.1445  0.5786 -0.6222
  156DOPC   H7X18795   6.047   6.876   5.840  0.8443 -0.4563  1.0465
  156DOPC   H7Y18796   6.087   6.707   5.840  1.4410  1.2095 -2.1302
  156DOPC   C3818797   6.022   6.774   5.643  0.1532  0.5879  0.5572
  156DOPC   H8X18798   6.125   6.806   5.618 -0.1497  1.2590  0.1150
  156DOPC   H8Y18799   5.958   6.852   5.595  0.7083 -0.5226 -2.1544
  156DOPC   C3918800   5.992   6.633   5.588  0.1461  0.0971 -0.1909
  156DOPC   H9X18801   5.989   6.568   5.676 -0.4826  0.8953  0.3947
  156DOPC  C31018802   5.934   6.608   5.465  0.2072  0.1412 -0.1880
  156DOPC  H10X18803   5.918   6.503   5.439  0.0405 -0.6461  2.7465
  156DOPC  C31118804   5.900   6.706   5.358  0.1175  0.4273  0.5354
  156DOPC  H11X18805   5.975   6.788   5.362  1.2255 -0.6031  3.4261
  156DOPC  H11Y18806   5.803   6.760   5.363  0.7402  1.7013 -0.5168
  156DOPC  C31218807   5.908   6.649   5.216 -0.4078 -0.2352 -0.6986
  156DOPC  H12X18808   6.008   6.610   5.185  0.2579 -0.8518  2.0032
  156DOPC  H12Y18809   5.886   6.735   5.149 -1.3629 -0.6426 -0.9240
  156DOPC  C31318810   5.794   6.553   5.191 -0.0259 -0.0675  0.0772
  156DOPC  H13X18811   5.838   6.461   5.234  1.6943  0.7044  0.0599
  156DOPC  H13Y18812   5.704   6.577   5.251 -0.6900 -1.6827 -0.2433
  156DOPC  C31418813   5.761   6.540   5.046  0.2826 -0.1694  1.3104
  156DOPC  H14X18814   5.698   6.450   5.028  4.2502 -2.4775 -3.5636
  156DOPC  H14Y18815   5.706   6.630   5.011  1.1992 -0.7981 -2.1566
  156DOPC  C31518816   5.881   6.518   4.958 -0.2235  0.0534  0.5769
  156DOPC  H15X18817   5.951   6.445   5.005  0.5733  1.1773  1.1798
  156DOPC  H15Y18818   5.933   6.615   4.944  1.4160 -0.8308  0.2657
  156DOPC  C31618819   5.840   6.471   4.816  0.4681 -0.3065 -0.2137
  156DOPC  H16X18820   5.769   6.386   4.821  0.2750 -0.1881 -0.8069
  156DOPC  H16Y18821   5.793   6.562   4.773  1.3087  0.8107  1.1505
  156DOPC  C31718822   5.964   6.436   4.736  0.3137 -0.6836 -0.1558
  156DOPC  H17X18823   6.039   6.514   4.760 -0.6897  0.1501  0.3080
  156DOPC  H17Y18824   6.004   6.338   4.770 -1.4044 -0.7675  1.8337
  156DOPC  C31818825   5.921   6.422   4.592 -0.4449 -0.0513  0.4603
  156DOPC  H18X18826   5.871   6.327   4.568  0.4228 -0.1524 -1.0695
  156DOPC  H18Y18827   5.862   6.511   4.562 -1.4258 -0.9032 -0.1862
  156DOPC  H18Z18828   6.012   6.420   4.528  0.0144  0.5421  1.0737
  157DOPC     N18829   6.774   2.544   7.076 -0.0462 -0.1193 -0.1786
  157DOPC   C1218830   6.747   2.405   7.015 -0.5097 -0.5322 -0.0490
  157DOPC  H12A18831   6.814   2.336   7.064 -0.6564 -0.3586  0.3998
  157DOPC  H12B18832   6.764   2.418   6.909  1.4869 -0.5360  0.2193
  157DOPC   C1318833   6.787   2.532   7.226  0.1158  0.3254 -0.7983
  157DOPC  H13A18834   6.719   2.456   7.263  0.3439  1.5475  2.5203
  157DOPC  H13B18835   6.884   2.504   7.263  0.8816  1.3399 -1.9839
  157DOPC  H13C18836   6.779   2.618   7.292  0.9119 -0.6752  0.6637
  157DOPC   C1418837   6.662   2.637   7.042 -0.0517 -0.5374 -0.2599
  157DOPC  H14A18838   6.626   2.639   6.940 -0.8166  4.6907 -0.1354
  157DOPC  H14B18839   6.577   2.608   7.102 -1.2638  0.5674 -1.3792
  157DOPC  H14C18840   6.683   2.738   7.071  0.1642 -1.3061  2.5478
  157DOPC   C1518841   6.898   2.605   7.029  0.1438  0.6588 -0.2261
  157DOPC  H15A18842   6.886   2.622   6.923 -1.3040 -0.7170 -0.3287
  157DOPC  H15B18843   6.981   2.536   7.037  0.3679  1.0309  0.7624
  157DOPC  H15C18844   6.923   2.696   7.081  1.5246 -0.3185  0.9046
  157DOPC   C1118845   6.608   2.347   7.035 -0.2259  0.2692  0.2984
  157DOPC  H11A18846   6.623   2.237   7.032 -1.3605  0.0474  1.7392
  157DOPC  H11B18847   6.584   2.355   7.143  0.3880 -0.2222  0.4809
  157DOPC     P18848   6.516   2.388   6.783 -0.5434  0.1373  0.4188
  157DOPC   O1318849   6.631   2.475   6.735  0.4576 -0.1587 -0.6389
  157DOPC   O1418850   6.386   2.410   6.719  0.0892 -0.8712 -0.0613
  157DOPC   O1218851   6.507   2.402   6.943 -0.3787  0.4304  0.1612
  157DOPC   O1118852   6.559   2.236   6.770 -0.0630 -0.1235 -0.8305
  157DOPC    C118853   6.464   2.132   6.813  0.0616 -0.3780  0.4296
  157DOPC    HA18854   6.371   2.171   6.860  0.0342 -0.0112  0.0830
  157DOPC    HB18855   6.522   2.070   6.885  0.3785  0.8132  1.2378
  157DOPC    C218856   6.416   2.048   6.693  0.4318  0.0676  0.0288
  157DOPC    HS18857   6.330   1.986   6.726  0.5755 -1.7423 -2.7027
  157DOPC   O2118858   6.524   1.966   6.643  0.4743 -0.0505  0.2700
  157DOPC   C2118859   6.556   1.867   6.724 -0.2529  0.0600 -0.3337
  157DOPC   O2218860   6.493   1.837   6.822 -0.3508 -0.2332  0.0263
  157DOPC   C2218861   6.673   1.784   6.668  0.4627  0.0707  0.1549
  157DOPC   H2R18862   6.736   1.751   6.754 -1.0833 -2.1233  0.5356
  157DOPC   H2S18863   6.734   1.848   6.601 -1.4303  2.0714  0.2477
  157DOPC    C318864   6.365   2.127   6.577  0.5807  0.1220  0.1702
  157DOPC    HX18865   6.444   2.191   6.532 -1.2221  2.0144 -0.4704
  157DOPC    HY18866   6.289   2.202   6.609  0.7481  1.1804 -1.7551
  157DOPC   O3118867   6.318   2.044   6.469  0.4608 -0.5003  0.2082
  157DOPC   C3118868   6.197   2.014   6.466  0.3236  0.0146  0.3709
  157DOPC   O3218869   6.107   2.049   6.543 -0.1175  0.4742 -0.2286
  157DOPC   C3218870   6.165   1.933   6.340  0.5117  0.8946 -1.3777
  157DOPC   H2X18871   6.219   1.969   6.250 -0.4886  0.5905 -2.1213
  157DOPC   H2Y18872   6.206   1.832   6.356  0.0779  0.8990 -0.1697
  157DOPC   C2318873   6.626   1.664   6.583  0.2741 -0.9692 -0.6200
  157DOPC   H3R18874   6.541   1.610   6.628  0.3804 -2.3629 -1.9992
  157DOPC   H3S18875   6.710   1.591   6.589  2.3184  1.3866  2.0664
  157DOPC   C2418876   6.590   1.719   6.440 -0.2281  0.2047  0.2151
  157DOPC   H4R18877   6.679   1.775   6.404  1.5674 -1.4378  1.8542
  157DOPC   H4S18878   6.497   1.779   6.444 -0.5581 -0.2620 -0.2739
  157DOPC   C2518879   6.563   1.604   6.345 -0.3314  0.6883 -0.2499
  157DOPC   H5R18880   6.471   1.545   6.365  0.8499 -0.3270  2.6437
  157DOPC   H5S18881   6.655   1.544   6.333 -0.2351  0.2594  2.2218
  157DOPC   C2618882   6.550   1.656   6.203  0.3557  0.3106 -0.0316
  157DOPC   H6R18883   6.555   1.570   6.133  0.8828 -3.1979  3.8897
  157DOPC   H6S18884   6.633   1.728   6.183 -0.8471  1.1807 -2.2459
  157DOPC   C2718885   6.420   1.735   6.183 -0.0631 -0.3139 -0.5492
  157DOPC   H7R18886   6.428   1.837   6.227 -1.0124 -0.7411  0.6733
  157DOPC   H7S18887   6.340   1.682   6.238 -1.5887  1.6184 -0.8109
  157DOPC   C2818888   6.387   1.743   6.035  0.8477  0.6053 -1.1436
  157DOPC   H8R18889   6.284   1.783   6.025  0.2489 -0.4473  0.3877
  157DOPC   H8S18890   6.387   1.637   6.000  3.0860 -0.1250  0.7443
  157DOPC   C2918891   6.490   1.819   5.954  0.9590 -0.1676 -0.1632
  157DOPC   H9R18892   6.584   1.836   6.008 -0.3840  1.6412  1.7481
  157DOPC  C21018893   6.460   1.887   5.845 -0.4353 -0.5075 -0.1972
  157DOPC  H10R18894   6.535   1.935   5.781 -0.5161  1.3559  1.0212
  157DOPC  C21118895   6.329   1.904   5.782  0.4261 -0.1854  0.1420
  157DOPC  H11R18896   6.314   2.002   5.730 -0.9330 -0.9356 -0.9367
  157DOPC  H11S18897   6.242   1.894   5.849  0.9074  0.0045  0.8063
  157DOPC  C21218898   6.296   1.812   5.659 -0.3228  0.4590 -0.2659
  157DOPC  H12R18899   6.192   1.774   5.670 -0.9063  2.3041  1.1179
  157DOPC  H12S18900   6.372   1.732   5.659 -1.2257 -0.5937 -4.1113
  157DOPC  C21318901   6.317   1.875   5.526 -0.5512  0.1488  0.3158
  157DOPC  H13R18902   6.411   1.933   5.522 -0.7323  0.3828 -1.4958
  157DOPC  H13S18903   6.234   1.943   5.498 -0.8850 -0.1422  0.5748
  157DOPC  C21418904   6.311   1.764   5.413 -0.3835  0.5052 -0.1957
  157DOPC  H14R18905   6.206   1.726   5.413  0.0527 -0.7972 -1.5479
  157DOPC  H14S18906   6.368   1.678   5.454 -1.9100 -0.2184  0.5050
  157DOPC  C21518907   6.353   1.822   5.282  0.5850 -0.9395 -0.4800
  157DOPC  H15R18908   6.455   1.863   5.293  0.2907  0.0872 -1.4105
  157DOPC  H15S18909   6.288   1.908   5.255  0.8921 -0.9528 -1.2719
  157DOPC  C21618910   6.347   1.719   5.173 -0.9692  0.3461  0.0952
  157DOPC  H16R18911   6.245   1.675   5.173  0.0402 -2.2655  1.1762
  157DOPC  H16S18912   6.413   1.639   5.213  0.2310  1.9594  1.4867
  157DOPC  C21718913   6.396   1.763   5.035  0.3924 -0.2974 -0.2504
  157DOPC  H17R18914   6.440   1.681   4.974 -1.9771 -1.9919  0.1350
  157DOPC  H17S18915   6.472   1.844   5.039  0.8391 -0.7486  0.4116
  157DOPC  C21818916   6.278   1.804   4.950  0.6835  0.3620  0.3592
  157DOPC  H18R18917   6.205   1.721   4.940  1.0836 -0.1978  1.8090
  157DOPC  H18S18918   6.311   1.841   4.851 -0.8535  1.1956  0.1384
  157DOPC  H18T18919   6.228   1.897   4.982 -1.5817 -0.5635 -0.3151
  157DOPC   C3318920   6.022   1.918   6.311 -0.5993 -0.8274 -0.1588
  157DOPC   H3X18921   5.989   2.017   6.274  0.3025 -0.8587 -1.1222
  157DOPC   H3Y18922   5.973   1.889   6.406  1.5932 -0.8709  1.0345
  157DOPC   C3418923   5.987   1.807   6.208  0.9646  0.1717  0.2559
  157DOPC   H4X18924   6.039   1.712   6.229  0.9982  0.1211 -0.0498
  157DOPC   H4Y18925   6.023   1.839   6.108  1.3104 -0.5158  0.1578
  157DOPC   C3518926   5.834   1.766   6.207  0.4988  0.6482 -0.0381
  157DOPC   H5X18927   5.770   1.852   6.181  0.7252  0.6743 -0.5176
  157DOPC   H5Y18928   5.808   1.747   6.313  0.3098  1.4827  0.0716
  157DOPC   C3618929   5.809   1.637   6.126 -0.0403  0.5540 -0.3526
  157DOPC   H6X18930   5.879   1.558   6.161 -2.9034 -3.1556 -2.2160
  157DOPC   H6Y18931   5.708   1.594   6.140 -0.1653  0.8477 -0.3469
  157DOPC   C3718932   5.827   1.660   5.976  0.0955 -1.2841 -0.4307
  157DOPC   H7X18933   5.772   1.755   5.959  1.0343 -0.8960 -1.4580
  157DOPC   H7Y18934   5.934   1.684   5.960  0.0952 -0.5643  0.6194
  157DOPC   C3818935   5.769   1.558   5.882 -0.0949 -0.1258  0.4740
  157DOPC   H8X18936   5.661   1.536   5.896 -0.0383 -1.5087 -1.0913
  157DOPC   H8Y18937   5.823   1.463   5.902 -1.0728 -0.6510  0.6566
  157DOPC   C3918938   5.815   1.592   5.739  1.0653  0.0394 -0.1262
  157DOPC   H9X18939   5.905   1.535   5.714  1.4202 -0.0121  1.1786
  157DOPC  C31018940   5.762   1.693   5.664  0.5064  0.0927  0.6258
  157DOPC  H10X18941   5.803   1.710   5.563  0.5974  1.4433  0.8643
  157DOPC  C31118942   5.647   1.788   5.699 -0.2150  0.6356  0.7027
  157DOPC  H11X18943   5.679   1.893   5.684  1.1632  0.0509 -0.8019
  157DOPC  H11Y18944   5.602   1.773   5.799 -1.3571 -0.7620  0.0250
  157DOPC  C31218945   5.531   1.759   5.592 -0.4310  0.0169 -0.0001
  157DOPC  H12X18946   5.574   1.795   5.496 -1.6442  0.8343 -0.2620
  157DOPC  H12Y18947   5.440   1.821   5.610 -0.1937  0.3683  0.0154
  157DOPC  C31318948   5.487   1.612   5.579  0.3767  0.3828 -0.7181
  157DOPC  H13X18949   5.570   1.541   5.560  0.5826 -0.1408  1.7931
  157DOPC  H13Y18950   5.438   1.588   5.676  2.5077 -1.7256 -0.0712
  157DOPC  C31418951   5.388   1.579   5.464  0.3599  0.3305  1.0048
  157DOPC  H14X18952   5.435   1.597   5.365  1.7694 -2.5100  1.0399
  157DOPC  H14Y18953   5.363   1.470   5.463 -1.8685  0.7753 -0.9331
  157DOPC  C31518954   5.260   1.669   5.461  0.3443  0.1575 -0.2086
  157DOPC  H15X18955   5.301   1.772   5.466  0.0298  0.2232  1.9848
  157DOPC  H15Y18956   5.215   1.654   5.562 -0.2352  0.2714 -0.4456
  157DOPC  C31618957   5.164   1.639   5.348 -0.3689 -0.1726 -0.6201
  157DOPC  H16X18958   5.202   1.650   5.244  0.6768 -2.8346 -0.6107
  157DOPC  H16Y18959   5.124   1.536   5.343  0.2986 -0.4923  0.3965
  157DOPC  C31718960   5.034   1.729   5.360  0.5623  0.0272 -0.0379
  157DOPC  H17X18961   5.077   1.821   5.406 -1.9689  0.4025  1.8140
  157DOPC  H17Y18962   4.988   1.751   5.261 -0.3752  1.1789  0.6275
  157DOPC  C31818963   4.928   1.668   5.450 -0.3568 -0.1040  0.8701
  157DOPC  H18X18964   4.904   1.565   5.416 -1.6477  0.1665  0.9074
  157DOPC  H18Y18965   4.979   1.655   5.548  0.5878 -1.1634  0.2709
  157DOPC  H18Z18966   4.831   1.720   5.448 -0.2661  0.1811 -2.3899
  158DOPC     N18967   3.591   7.410   7.257  0.0755 -0.1027  0.0407
  158DOPC   C1218968   3.503   7.348   7.151 -0.0441 -0.0665  0.1393
  158DOPC  H12A18969   3.447   7.423   7.099  0.5598  1.4497  1.5832
  158DOPC  H12B18970   3.430   7.286   7.202  1.3315 -1.3266  0.6692
  158DOPC   C1318971   3.663   7.300   7.332  0.2697 -0.3105 -0.3365
  158DOPC  H13A18972   3.715   7.235   7.264  2.1236  0.7273  0.0113
  158DOPC  H13B18973   3.729   7.346   7.405 -0.8589 -0.3893  0.7524
  158DOPC  H13C18974   3.598   7.233   7.385  0.1998 -0.6795 -0.8822
  158DOPC   C1418975   3.508   7.485   7.349 -0.6176  0.1002  0.8086
  158DOPC  H14A18976   3.561   7.522   7.435  0.6462  0.5165 -0.1195
  158DOPC  H14B18977   3.479   7.575   7.297  1.5642 -0.0648 -0.8503
  158DOPC  H14C18978   3.419   7.429   7.375 -2.1091  1.9802  0.0637
  158DOPC   C1518979   3.700   7.495   7.193  0.0180  0.0972 -0.2981
  158DOPC  H15A18980   3.741   7.434   7.114 -0.8203 -3.0247  1.4784
  158DOPC  H15B18981   3.780   7.520   7.260 -0.6489  1.5131  0.0048
  158DOPC  H15C18982   3.657   7.585   7.152  0.0609 -0.0895 -0.7603
  158DOPC   C1118983   3.576   7.266   7.043  0.0568 -0.0409 -0.2181
  158DOPC  H11A18984   3.643   7.192   7.092  1.6136  0.3058 -1.7442
  158DOPC  H11B18985   3.498   7.212   6.985  0.7416 -0.5060 -0.7278
  158DOPC     P18986   3.580   7.428   6.841  0.3214 -0.2146  0.1433
  158DOPC   O1318987   3.675   7.469   6.737  0.2224 -0.1381  0.3785
  158DOPC   O1418988   3.500   7.533   6.907  0.0165  0.2576  0.1668
  158DOPC   O1218989   3.657   7.347   6.953  0.2666  0.4794 -0.1744
  158DOPC   O1118990   3.477   7.328   6.778 -0.7581  0.0340 -0.0541
  158DOPC    C118991   3.522   7.208   6.717 -0.3138  1.0257 -0.9455
  158DOPC    HA18992   3.483   7.119   6.770 -0.6158  2.0917  0.7172
  158DOPC    HB18993   3.632   7.199   6.727 -0.6005 -1.7398  0.7949
  158DOPC    C218994   3.470   7.199   6.570  0.0726  0.3750 -0.5543
  158DOPC    HS18995   3.477   7.094   6.534 -0.7164 -0.1622  0.7930
  158DOPC   O2118996   3.538   7.292   6.478  0.2311 -0.2795  0.3952
  158DOPC   C2118997   3.662   7.260   6.465  0.0569  0.5095  0.5351
  158DOPC   O2218998   3.714   7.164   6.512  0.5442 -0.1105  0.2001
  158DOPC   C2218999   3.736   7.345   6.357  0.0942 -0.5863 -0.0012
  158DOPC   H2R19000   3.830   7.379   6.407 -0.4963 -1.7664  2.0131
  158DOPC   H2S19001   3.670   7.432   6.339 -0.5768 -1.0964 -0.0294
  158DOPC    C319002   3.323   7.230   6.558  0.2760  0.3679  0.3419
  158DOPC    HX19003   3.313   7.330   6.605  0.7991  0.2394  0.7300
  158DOPC    HY19004   3.263   7.156   6.616  1.1972 -0.4812  0.2437
  158DOPC   O3119005   3.275   7.242   6.423  0.0511  0.4594  0.6411
  158DOPC   C3119006   3.242   7.125   6.366 -0.0685 -0.3083 -0.3850
  158DOPC   O3219007   3.237   7.015   6.418  0.7112 -0.0733  0.3592
  158DOPC   C3219008   3.203   7.147   6.217 -0.4243  0.2903  0.7509
  158DOPC   H2X19009   3.290   7.117   6.154 -1.8589 -0.1960 -1.0726
  158DOPC   H2Y19010   3.124   7.073   6.196  0.8591 -1.1744  0.9482
  158DOPC   C2319011   3.761   7.272   6.221  0.8614  0.2011  0.4082
  158DOPC   H3R19012   3.819   7.181   6.248 -0.4822 -0.6868  0.3868
  158DOPC   H3S19013   3.829   7.333   6.157 -0.2450 -0.0861 -1.0725
  158DOPC   C2419014   3.631   7.216   6.160 -0.5071  0.4593 -0.0272
  158DOPC   H4R19015   3.564   7.303   6.139 -1.7328 -0.2331  0.9180
  158DOPC   H4S19016   3.577   7.155   6.236  1.7841 -0.7782  0.6937
  158DOPC   C2519017   3.658   7.127   6.034 -0.0257  0.9935  0.1968
  158DOPC   H5R19018   3.656   7.022   6.072 -0.6651  0.5109 -1.1146
  158DOPC   H5S19019   3.761   7.148   5.998 -0.1053 -1.2469 -1.5597
  158DOPC   C2619020   3.553   7.114   5.922 -0.8782 -0.4795 -0.3567
  158DOPC   H6R19021   3.538   7.215   5.879  2.5323 -0.0216 -0.7549
  158DOPC   H6S19022   3.457   7.079   5.965 -0.8793 -1.1795 -0.9107
  158DOPC   C2719023   3.595   7.017   5.817  0.5336 -0.0800  0.3508
  158DOPC   H7R19024   3.580   6.910   5.842 -1.9127  0.0068 -0.4370
  158DOPC   H7S19025   3.700   7.032   5.786 -0.2168  1.0003 -1.8920
  158DOPC   C2819026   3.519   7.039   5.686  0.0105 -0.0622  0.5017
  158DOPC   H8R19027   3.566   6.967   5.615 -1.7270  0.5846 -1.4201
  158DOPC   H8S19028   3.541   7.140   5.644 -0.1218  0.1211  0.8722
  158DOPC   C2919029   3.377   7.007   5.710 -0.9927  0.0304 -0.2976
  158DOPC   H9R19030   3.315   7.088   5.750  3.2427  2.8949  1.0570
  158DOPC  C21019031   3.322   6.886   5.693  0.0393 -0.2941 -0.2104
  158DOPC  H10R19032   3.214   6.870   5.701  0.0193 -0.4102 -0.6893
  158DOPC  C21119033   3.392   6.764   5.647 -0.3105  0.0466  0.4806
  158DOPC  H11R19034   3.363   6.676   5.708 -0.8232 -0.6152 -0.6912
  158DOPC  H11S19035   3.501   6.780   5.661  0.0174  0.0405 -1.7154
  158DOPC  C21219036   3.361   6.715   5.503 -0.3930 -0.3447  1.0737
  158DOPC  H12R19037   3.421   6.623   5.482  0.8360  0.4249  1.0913
  158DOPC  H12S19038   3.388   6.788   5.424 -2.1410 -0.9380 -0.1306
  158DOPC  C21319039   3.213   6.702   5.476 -0.2841  0.8491  0.1112
  158DOPC  H13R19040   3.160   6.799   5.483 -2.2784 -0.0260 -1.6689
  158DOPC  H13S19041   3.158   6.642   5.552 -1.8838  3.5406  1.2097
  158DOPC  C21419042   3.174   6.633   5.339 -0.4475 -0.8231  0.4512
  158DOPC  H14R19043   3.214   6.529   5.336 -0.7543 -1.0262  2.1986
  158DOPC  H14S19044   3.222   6.692   5.259  0.9787 -0.9239  1.2141
  158DOPC  C21519045   3.018   6.638   5.324 -0.3047 -0.0533 -0.5825
  158DOPC  H15R19046   2.975   6.740   5.328 -1.6039 -0.5619 -0.9160
  158DOPC  H15S19047   2.975   6.575   5.405 -0.0885 -0.1203 -0.5205
  158DOPC  C21619048   2.982   6.571   5.187 -0.2299  0.1293 -0.1683
  158DOPC  H16R19049   3.025   6.468   5.191  0.5995  0.4923  0.4132
  158DOPC  H16S19050   3.032   6.623   5.103 -1.4846  1.6830  0.0118
  158DOPC  C21719051   2.834   6.571   5.150  0.2186  0.1710 -0.2384
  158DOPC  H17R19052   2.802   6.676   5.136  0.7702  0.1475 -1.8336
  158DOPC  H17S19053   2.785   6.533   5.242  1.2342  0.0204  0.2597
  158DOPC  C21819054   2.796   6.487   5.024 -0.8367 -0.4703  0.4362
  158DOPC  H18R19055   2.825   6.521   4.922 -1.7876 -0.9966 -0.0242
  158DOPC  H18S19056   2.685   6.495   5.030 -0.6652  1.3108  4.9156
  158DOPC  H18T19057   2.816   6.378   5.029  0.0688 -0.3916 -0.8318
  158DOPC   C3319058   3.156   7.288   6.176  0.4632  0.2101  0.1006
  158DOPC   H3X19059   3.243   7.351   6.204 -0.0965  0.8854  0.3295
  158DOPC   H3Y19060   3.070   7.304   6.244  1.0516 -0.6492  1.0769
  158DOPC   C3419061   3.125   7.311   6.028 -0.3318  0.6641 -0.3158
  158DOPC   H4X19062   3.213   7.268   5.975  0.1036  1.2955 -0.1246
  158DOPC   H4Y19063   3.131   7.421   6.016 -1.4698  0.6764 -0.8379
  158DOPC   C3519064   2.994   7.257   5.987  0.0480  0.3262  0.1754
  158DOPC   H5X19065   2.915   7.285   6.061  1.4704  0.2761  1.7896
  158DOPC   H5Y19066   2.989   7.148   5.970  1.4417  0.2901 -0.0979
  158DOPC   C3619067   2.960   7.319   5.847 -0.9372 -0.5313 -0.3054
  158DOPC   H6X19068   2.855   7.287   5.830 -1.6696  1.4912  0.1223
  158DOPC   H6Y19069   2.955   7.428   5.863 -0.1078 -0.2116 -1.9836
  158DOPC   C3719070   3.053   7.288   5.735  0.2372  0.4989  0.2195
  158DOPC   H7X19071   3.158   7.324   5.745  1.1198 -1.5438 -0.9193
  158DOPC   H7Y19072   3.069   7.178   5.736  3.5052  0.8390 -1.0022
  158DOPC   C3819073   3.014   7.337   5.591  0.0764 -0.9288  0.3623
  158DOPC   H8X19074   3.104   7.318   5.529 -0.4267 -3.2226  0.2491
  158DOPC   H8Y19075   2.995   7.447   5.597  1.0482 -0.8333  2.5949
  158DOPC   C3919076   2.887   7.260   5.557 -0.5031  0.0079  0.2932
  158DOPC   H9X19077   2.787   7.295   5.586 -0.4591 -0.8507  1.5367
  158DOPC  C31019078   2.880   7.129   5.512  0.9346  0.1711 -0.4776
  158DOPC  H10X19079   2.782   7.091   5.480 -0.6148  1.9931  1.7602
  158DOPC  C31119080   2.998   7.037   5.484 -0.2495  1.0245  0.3041
  158DOPC  H11X19081   2.962   6.934   5.504 -0.5385  1.3732  1.6721
  158DOPC  H11Y19082   3.081   7.070   5.550  0.5045  1.1424 -0.6763
  158DOPC  C31219083   3.060   7.040   5.340 -0.3209 -0.2771  0.2566
  158DOPC  H12X19084   3.120   6.949   5.321  0.4545  0.5950 -1.7085
  158DOPC  H12Y19085   3.131   7.125   5.335 -0.5106 -0.1220  0.1650
  158DOPC  C31319086   2.956   7.056   5.226 -0.2575 -0.1753  0.0995
  158DOPC  H13X19087   2.887   6.969   5.219 -1.7032  0.9763 -0.3515
  158DOPC  H13Y19088   2.900   7.150   5.241 -0.9060 -0.4081 -0.7644
  158DOPC  C31419089   3.029   7.066   5.095  0.2907 -0.0994  1.2050
  158DOPC  H14X19090   3.084   7.162   5.106 -0.7604  0.6162  0.4204
  158DOPC  H14Y19091   3.102   6.984   5.078  1.3669  0.9697  0.5132
  158DOPC  C31519092   2.941   7.060   4.964 -0.0148 -0.4657 -0.4538
  158DOPC  H15X19093   2.866   7.142   4.968  0.0525 -0.3847 -0.8591
  158DOPC  H15Y19094   2.878   6.968   4.968  0.1109 -0.5212  0.6888
  158DOPC  C31619095   3.031   7.085   4.848  0.4827  0.5782  0.0288
  158DOPC  H16X19096   3.068   7.189   4.854 -0.9300  1.1285 -0.4303
  158DOPC  H16Y19097   3.111   7.008   4.848  0.8600  0.8925 -2.1874
  158DOPC  C31719098   2.958   7.059   4.714 -0.9222  0.1015  0.3252
  158DOPC  H17X19099   2.917   6.956   4.709  1.2619 -0.7776 -3.7704
  158DOPC  H17Y19100   2.877   7.133   4.697 -0.6746  0.7363  1.7467
  158DOPC  C31819101   3.049   7.057   4.596  0.3500 -0.0306  0.2857
  158DOPC  H18X19102   3.128   6.979   4.602  0.5554  0.1220 -0.4068
  158DOPC  H18Y19103   2.997   7.036   4.501  0.4912  1.8358 -0.2392
  158DOPC  H18Z19104   3.098   7.157   4.584  0.0729  0.1015  0.2532
  159DOPC     N19105   6.654   1.642   7.174  0.4984 -0.5286 -0.1655
  159DOPC   C1219106   6.731   1.629   7.046  0.8380 -0.2568  0.3398
  159DOPC  H12A19107   6.834   1.598   7.059  0.5161 -2.0783 -1.0654
  159DOPC  H12B19108   6.737   1.722   6.992  1.0392 -1.2283 -1.3667
  159DOPC   C1319109   6.514   1.687   7.143  0.6855 -0.3872  0.2885
  159DOPC  H13A19110   6.455   1.703   7.232 -2.3027 -1.8893 -1.2756
  159DOPC  H13B19111   6.512   1.781   7.090 -0.1325  0.4480  1.7511
  159DOPC  H13C19112   6.455   1.618   7.085 -1.3119  1.4838  0.0001
  159DOPC   C1419113   6.728   1.745   7.257 -0.1874 -0.2053  0.2238
  159DOPC  H14A19114   6.689   1.746   7.357 -1.2175 -3.3426 -0.0293
  159DOPC  H14B19115   6.834   1.726   7.262 -0.0813  0.2709 -0.1260
  159DOPC  H14C19116   6.709   1.843   7.216 -1.9247 -0.5992 -0.0186
  159DOPC   C1519117   6.653   1.506   7.245  0.4912  0.2536  0.1291
  159DOPC  H15A19118   6.753   1.488   7.283  0.3866  0.2387  0.3987
  159DOPC  H15B19119   6.628   1.431   7.172  0.4169  0.9049 -0.5254
  159DOPC  H15C19120   6.582   1.504   7.326 -1.3084  2.5641 -1.2654
  159DOPC   C1119121   6.673   1.526   6.945 -0.1699 -0.4028  0.1711
  159DOPC  H11A19122   6.573   1.564   6.913 -0.0851 -1.5633 -1.6195
  159DOPC  H11B19123   6.742   1.536   6.860  1.1179  0.5517  1.2823
  159DOPC     P19124   6.780   1.298   6.987  0.4856  0.4198  0.4406
  159DOPC   O1319125   6.743   1.179   7.066  0.4898  0.8908 -0.0258
  159DOPC   O1419126   6.903   1.378   7.013  0.2620  0.5131 -0.4241
  159DOPC   O1219127   6.655   1.388   6.992  0.0192 -0.1495  0.6879
  159DOPC   O1119128   6.786   1.255   6.838  0.3280 -0.0222  0.2394
  159DOPC    C119129   6.674   1.239   6.750 -0.8435 -0.4436 -0.1123
  159DOPC    HA19130   6.715   1.252   6.647  0.0957 -0.4829  0.2441
  159DOPC    HB19131   6.603   1.323   6.758  1.8282  1.8144  1.6929
  159DOPC    C219132   6.609   1.099   6.756 -0.9719  0.5250  0.1594
  159DOPC    HS19133   6.635   1.046   6.851 -0.9673  2.2629  1.1574
  159DOPC   O2119134   6.680   1.022   6.650  0.3100  0.9864  0.6352
  159DOPC   C2119135   6.643   0.894   6.632  0.1522 -0.0139 -0.7515
  159DOPC   O2219136   6.571   0.835   6.710 -0.6036 -0.3407  0.2544
  159DOPC   C2219137   6.714   0.824   6.514 -0.0779 -1.1803 -0.1908
  159DOPC   H2R19138   6.768   0.735   6.554 -1.1187 -0.8085  2.1582
  159DOPC   H2S19139   6.786   0.891   6.462 -0.6489  0.5036  1.1181
  159DOPC    C319140   6.453   1.110   6.743  0.5447  0.0851  0.4152
  159DOPC    HX19141   6.418   1.141   6.843 -0.3154  0.0174  0.1397
  159DOPC    HY19142   6.418   1.005   6.735  2.3744 -0.6031  0.9532
  159DOPC   O3119143   6.401   1.196   6.632 -0.3763  0.9045 -0.2461
  159DOPC   C3119144   6.277   1.185   6.586 -0.6304  0.1885  1.0393
  159DOPC   O3219145   6.192   1.110   6.624  0.2414  0.9291  0.0803
  159DOPC   C3219146   6.259   1.283   6.469 -0.1537  0.3571 -0.1800
  159DOPC   H2X19147   6.262   1.385   6.512  0.0109 -0.2898  1.4023
  159DOPC   H2Y19148   6.334   1.267   6.388  1.7961  2.1713  1.1621
  159DOPC   C2319149   6.624   0.761   6.410 -0.3363  0.2021  0.0979
  159DOPC   H3R19150   6.554   0.833   6.363 -0.9129 -2.2164 -3.0836
  159DOPC   H3S19151   6.566   0.683   6.462  0.8040 -0.8278 -0.1282
  159DOPC   C2419152   6.703   0.692   6.297 -0.1889 -0.2884  1.0990
  159DOPC   H4R19153   6.758   0.611   6.348 -0.2779 -0.5971  0.7141
  159DOPC   H4S19154   6.775   0.767   6.259 -0.0312  1.3997  4.4220
  159DOPC   C2519155   6.605   0.636   6.188  0.9592  0.4901  0.4256
  159DOPC   H5R19156   6.525   0.708   6.159  2.3989  1.3752 -1.5655
  159DOPC   H5S19157   6.557   0.546   6.233  0.8171  0.2288 -0.2421
  159DOPC   C2619158   6.683   0.593   6.063  0.3766 -0.1603 -0.4177
  159DOPC   H6R19159   6.747   0.509   6.096  1.2709 -0.1143 -1.9294
  159DOPC   H6S19160   6.742   0.676   6.018  0.3124 -0.2079 -0.5935
  159DOPC   C2719161   6.576   0.541   5.963  0.2042  0.1925  0.7385
  159DOPC   H7R19162   6.503   0.619   5.930 -0.0946 -0.1009  0.6930
  159DOPC   H7S19163   6.511   0.464   6.010 -2.0374  0.3372 -1.8006
  159DOPC   C2819164   6.624   0.480   5.829  0.1474  0.2833 -0.3229
  159DOPC   H8R19165   6.676   0.561   5.772 -0.3702  1.9524  1.4652
  159DOPC   H8S19166   6.537   0.457   5.763  1.0460 -1.8554 -0.8249
  159DOPC   C2919167   6.710   0.357   5.837  0.3008 -0.1198  0.3836
  159DOPC   H9R19168   6.808   0.371   5.885  0.8450 -1.6569 -0.2437
  159DOPC  C21019169   6.681   0.232   5.793  0.0226  0.2059 -0.1492
  159DOPC  H10R19170   6.753   0.149   5.794 -1.8581 -1.5257  0.9429
  159DOPC  C21119171   6.549   0.194   5.728 -0.4257  0.5298 -0.6985
  159DOPC  H11R19172   6.465   0.224   5.794  1.6081  2.7721  1.0606
  159DOPC  H11S19173   6.537   0.084   5.721  0.4129  0.5050 -2.5077
  159DOPC  C21219174   6.547   0.240   5.584  0.5114  0.4012 -0.1208
  159DOPC  H12R19175   6.629   0.182   5.536 -0.1927 -1.6059  0.9813
  159DOPC  H12S19176   6.566   0.349   5.572  0.9911  0.0959 -2.9713
  159DOPC  C21319177   6.420   0.211   5.507  0.3013  0.5724 -0.1299
  159DOPC  H13R19178   6.328   0.264   5.539  0.0938 -0.2449  0.6791
  159DOPC  H13S19179   6.397   0.103   5.518  1.0177  0.4863  0.6947
  159DOPC  C21419180   6.432   0.259   5.360  0.0936  0.2707 -0.0183
  159DOPC  H14R19181   6.527   0.214   5.322  0.2074  0.4899  0.0040
  159DOPC  H14S19182   6.425   0.370   5.365  1.0102  0.3509 -0.3826
  159DOPC  C21519183   6.322   0.207   5.271 -0.0809 -0.7416  0.5432
  159DOPC  H15R19184   6.219   0.233   5.304 -0.3391 -2.9542  1.6797
  159DOPC  H15S19185   6.338   0.097   5.271  0.5018 -0.6705  1.5079
  159DOPC  C21619186   6.338   0.257   5.124 -0.1159 -0.1860 -0.2168
  159DOPC  H16R19187   6.301   0.177   5.057 -1.3653 -0.7371  1.0687
  159DOPC  H16S19188   6.448   0.251   5.106 -0.0524 -0.4945  0.2381
  159DOPC  C21719189   6.274   0.391   5.099 -0.0801  0.2516  0.4753
  159DOPC  H17R19190   6.323   0.475   5.153  0.4970  0.4939 -0.3898
  159DOPC  H17S19191   6.170   0.378   5.135 -1.4021  3.0439 -1.9112
  159DOPC  C21819192   6.277   0.428   4.951  0.6643  0.3708  0.5115
  159DOPC  H18R19193   6.226   0.355   4.884  2.2935 -0.4485  0.1213
  159DOPC  H18S19194   6.378   0.430   4.905  0.4082  1.3294 -0.0281
  159DOPC  H18T19195   6.229   0.528   4.939  0.4713  0.6895  3.3853
  159DOPC   C3319196   6.120   1.272   6.397  0.0524  0.5390  0.0436
  159DOPC   H3X19197   6.041   1.291   6.473  0.5739  0.8360  0.5278
  159DOPC   H3Y19198   6.095   1.168   6.367  0.8609  0.0299  1.0468
  159DOPC   C3419199   6.106   1.382   6.287 -0.3814  0.0426  0.7737
  159DOPC   H4X19200   6.129   1.482   6.330  0.0278  0.0584  0.5197
  159DOPC   H4Y19201   5.998   1.383   6.261 -1.0341 -0.2078  3.2081
  159DOPC   C3519202   6.195   1.348   6.164  0.0105  0.2017  0.3717
  159DOPC   H5X19203   6.180   1.239   6.151 -0.9979  0.2343  1.1809
  159DOPC   H5Y19204   6.303   1.365   6.186  0.3497  0.8457 -1.5839
  159DOPC   C3619205   6.154   1.417   6.043  0.0424 -0.3973  0.0442
  159DOPC   H6X19206   6.043   1.417   6.036 -0.0662 -0.2370  1.3723
  159DOPC   H6Y19207   6.174   1.526   6.051  0.8366 -0.5615  0.4287
  159DOPC   C3719208   6.226   1.377   5.913 -0.6142 -0.2171 -0.7031
  159DOPC   H7X19209   6.329   1.417   5.920 -1.3753  1.6472  0.7983
  159DOPC   H7Y19210   6.245   1.271   5.886  2.5709  0.1804 -0.3662
  159DOPC   C3819211   6.168   1.441   5.792 -0.2072 -0.7181  0.0092
  159DOPC   H8X19212   6.154   1.550   5.809  2.2946 -0.1361 -1.1541
  159DOPC   H8Y19213   6.068   1.393   5.784  0.5252 -2.1675 -0.8321
  159DOPC   C3919214   6.253   1.423   5.668  0.6001 -0.0643 -0.0189
  159DOPC   H9X19215   6.361   1.439   5.681  0.5399 -1.1276  2.4076
  159DOPC  C31019216   6.201   1.367   5.559  0.1802  0.6471  0.1331
  159DOPC  H10X19217   6.272   1.362   5.475  1.4619 -2.4311  1.2681
  159DOPC  C31119218   6.061   1.317   5.529  0.0171  0.9171  0.9017
  159DOPC  H11X19219   5.998   1.313   5.621 -0.7167  3.1384  0.5595
  159DOPC  H11Y19220   6.069   1.210   5.501  4.0834  1.4461 -0.6070
  159DOPC  C31219221   5.966   1.394   5.434 -0.0205  0.5617  0.7129
  159DOPC  H12X19222   5.973   1.498   5.472  1.4065  0.7297  0.0670
  159DOPC  H12Y19223   5.866   1.347   5.442 -1.1994  2.2967 -2.2787
  159DOPC  C31319224   6.008   1.381   5.291 -0.0616 -0.1982  0.4042
  159DOPC  H13X19225   6.105   1.431   5.271 -0.2727 -0.1570 -0.5460
  159DOPC  H13Y19226   6.030   1.275   5.271 -2.6578 -1.0386  1.5498
  159DOPC  C31419227   5.898   1.422   5.194 -0.3547  0.5349  0.5758
  159DOPC  H14X19228   5.818   1.345   5.202 -0.6039  0.7587  0.2618
  159DOPC  H14Y19229   5.846   1.515   5.226 -0.8330  0.6853 -0.6139
  159DOPC  C31519230   5.940   1.422   5.048 -0.5156  0.1603  0.2439
  159DOPC  H15X19231   6.043   1.462   5.042  0.6321 -2.6963 -1.3892
  159DOPC  H15Y19232   5.873   1.488   4.988 -1.5170 -1.6968 -0.7949
  159DOPC  C31619233   5.937   1.276   4.993 -0.5851  0.3677  0.0025
  159DOPC  H16X19234   5.992   1.203   5.056 -0.4418  0.7258  0.2956
  159DOPC  H16Y19235   5.833   1.237   4.999 -0.9023  1.3189  0.8864
  159DOPC  C31719236   5.985   1.259   4.850  0.4183  0.2274  0.7701
  159DOPC  H17X19237   5.978   1.152   4.819 -1.7779  0.1798  1.3093
  159DOPC  H17Y19238   5.922   1.314   4.777 -1.0088 -3.3901 -1.0108
  159DOPC  C31819239   6.124   1.308   4.815  0.0083 -0.3617 -0.6009
  159DOPC  H18X19240   6.129   1.326   4.705 -2.6728  1.2537 -0.5459
  159DOPC  H18Y19241   6.158   1.408   4.849  1.5780 -1.0511 -0.0633
  159DOPC  H18Z19242   6.200   1.228   4.829 -1.6439 -1.9242 -0.1839
  160DOPC     N19243   1.051   4.416   7.389 -0.6249 -0.2396  0.5461
  160DOPC   C1219244   1.041   4.327   7.266 -0.0506  0.2943  0.2560
  160DOPC  H12A19245   0.938   4.307   7.242 -0.3983  3.3141 -1.1922
  160DOPC  H12B19246   1.081   4.231   7.294  0.7478  0.4456 -0.3388
  160DOPC   C1319247   1.009   4.557   7.353 -0.1788  1.4165  0.5406
  160DOPC  H13A19248   0.902   4.561   7.339 -0.7630 -1.6865  2.9533
  160DOPC  H13B19249   1.027   4.627   7.433  0.3757  1.4428  0.3942
  160DOPC  H13C19250   1.062   4.591   7.265  0.6417 -0.9498  0.0276
  160DOPC   C1419251   1.196   4.422   7.436 -0.2024 -0.3543 -0.0659
  160DOPC  H14A19252   1.217   4.333   7.493 -1.3621 -1.6549 -1.5650
  160DOPC  H14B19253   1.253   4.427   7.344 -2.8782  0.1222 -1.8315
  160DOPC  H14C19254   1.206   4.503   7.506 -3.0464  0.4252 -0.4098
  160DOPC   C1519255   0.971   4.369   7.504  0.0154 -0.1850  0.3422
  160DOPC  H15A19256   0.995   4.444   7.579  1.2483 -0.2798  0.0640
  160DOPC  H15B19257   1.012   4.276   7.540 -0.1252 -1.3329 -2.3221
  160DOPC  H15C19258   0.865   4.366   7.489 -0.1855  0.2922  1.5016
  160DOPC   C1119259   1.110   4.376   7.130  0.2398  0.1126  0.3494
  160DOPC  H11A19260   1.097   4.289   7.062 -1.7839  0.9907 -0.4787
  160DOPC  H11B19261   1.043   4.453   7.085 -1.4057 -2.1800 -1.3150
  160DOPC     P19262   1.304   4.554   7.086 -0.0656 -0.2804  0.0826
  160DOPC   O1319263   1.451   4.564   7.095  0.1995  0.5494 -0.6877
  160DOPC   O1419264   1.227   4.662   7.149  0.0889  0.0462 -0.2383
  160DOPC   O1219265   1.250   4.421   7.142  0.5340 -0.5519 -0.4589
  160DOPC   O1119266   1.264   4.544   6.940 -0.0177 -0.5488  0.4798
  160DOPC    C119267   1.358   4.505   6.839  0.6712 -0.8605  0.1640
  160DOPC    HA19268   1.301   4.448   6.763 -0.1149  0.8216 -0.5469
  160DOPC    HB19269   1.431   4.431   6.881  2.5726  1.9592  2.2060
  160DOPC    C219270   1.422   4.635   6.777  0.0452 -0.4284  0.7110
  160DOPC    HS19271   1.496   4.673   6.850 -0.5336 -3.3067  2.9951
  160DOPC   O2119272   1.318   4.731   6.754  0.7554  0.2161  0.4308
  160DOPC   C2119273   1.360   4.856   6.766 -0.3047 -0.4133 -0.4116
  160DOPC   O2219274   1.477   4.889   6.784  0.7935  0.3791  0.6710
  160DOPC   C2219275   1.248   4.948   6.738  0.3105 -0.0209  0.1142
  160DOPC   H2R19276   1.173   4.949   6.820 -3.1076  0.2369 -2.7708
  160DOPC   H2S19277   1.188   4.910   6.652  1.5703 -1.0212 -0.3579
  160DOPC    C319278   1.481   4.595   6.636 -0.1304 -0.1913 -0.4160
  160DOPC    HX19279   1.411   4.522   6.589  1.1538 -2.2426  0.7119
  160DOPC    HY19280   1.567   4.528   6.656 -1.5918 -1.7948  0.8171
  160DOPC   O3119281   1.510   4.710   6.549 -0.3358 -0.1731 -0.1825
  160DOPC   C3119282   1.636   4.742   6.555  0.4096 -0.0054 -0.0634
  160DOPC   O3219283   1.720   4.687   6.627 -0.4873  0.4799 -0.4287
  160DOPC   C3219284   1.659   4.855   6.451 -0.8232 -0.1603  0.1098
  160DOPC   H2X19285   1.578   4.924   6.483  0.9043  2.4734 -0.8879
  160DOPC   H2Y19286   1.760   4.898   6.472 -0.7086 -1.0916  1.5978
  160DOPC   C2319287   1.288   5.097   6.716 -0.6705  0.5880  0.8254
  160DOPC   H3R19288   1.363   5.125   6.793  0.5801 -0.6856  0.1125
  160DOPC   H3S19289   1.202   5.167   6.721 -0.5201  1.0485 -1.8303
  160DOPC   C2419290   1.365   5.119   6.583  0.5221 -0.0399  0.3237
  160DOPC   H4R19291   1.325   5.043   6.511 -0.3452  1.6029 -1.0124
  160DOPC   H4S19292   1.475   5.102   6.588  0.7417  0.8335 -0.9917
  160DOPC   C2519293   1.344   5.250   6.513  0.8173  0.1411 -0.7556
  160DOPC   H5R19294   1.374   5.329   6.585  1.1685 -0.6823  0.0173
  160DOPC   H5S19295   1.235   5.264   6.495  0.7817  3.0563  1.0636
  160DOPC   C2619296   1.430   5.279   6.391 -0.2832 -0.3542  0.4146
  160DOPC   H6R19297   1.529   5.228   6.400 -0.5747 -0.7908  1.3990
  160DOPC   H6S19298   1.455   5.386   6.404  1.7798 -0.8620  1.1026
  160DOPC   C2719299   1.378   5.256   6.253  0.5497  0.1489 -0.1881
  160DOPC   H7R19300   1.353   5.148   6.243  1.3849 -0.1326  0.6361
  160DOPC   H7S19301   1.463   5.279   6.185  0.9273 -1.0482 -0.1532
  160DOPC   C2819302   1.256   5.346   6.222  0.3214  0.1290 -0.6638
  160DOPC   H8R19303   1.173   5.342   6.297  0.2190  0.4247 -0.7595
  160DOPC   H8S19304   1.209   5.297   6.133 -0.3756 -0.4929  0.0238
  160DOPC   C2919305   1.293   5.484   6.200  0.1393  0.0012 -0.1852
  160DOPC   H9R19306   1.282   5.544   6.291 -1.5957 -0.3004 -0.1768
  160DOPC  C21019307   1.353   5.541   6.087  0.5883  1.1049  0.0695
  160DOPC  H10R19308   1.372   5.649   6.082 -0.6473  1.4614  1.8944
  160DOPC  C21119309   1.390   5.471   5.953  0.3943  0.3363 -0.6964
  160DOPC  H11R19310   1.298   5.480   5.891  0.7108 -1.6726 -1.5474
  160DOPC  H11S19311   1.424   5.366   5.966 -2.9654 -0.8143 -0.1671
  160DOPC  C21219312   1.503   5.549   5.881 -0.2900 -0.0503 -0.0430
  160DOPC  H12R19313   1.533   5.484   5.796  0.4998  0.7199 -0.3760
  160DOPC  H12S19314   1.592   5.571   5.945 -0.5333  3.1409 -0.6451
  160DOPC  C21319315   1.450   5.683   5.834 -0.2031  0.1684 -0.1640
  160DOPC  H13R19316   1.425   5.755   5.914  0.7340  0.5800 -0.2194
  160DOPC  H13S19317   1.356   5.673   5.776 -0.6345  0.3102  0.5125
  160DOPC  C21419318   1.545   5.748   5.737 -0.1720  0.1388 -0.2903
  160DOPC  H14R19319   1.648   5.755   5.776 -0.9062  3.1020  1.4743
  160DOPC  H14S19320   1.518   5.855   5.724  2.0050  0.7836  0.1226
  160DOPC  C21519321   1.543   5.682   5.596 -0.6204  0.5875 -0.1438
  160DOPC  H15R19322   1.441   5.674   5.552 -0.6803  0.3585  0.0370
  160DOPC  H15S19323   1.568   5.575   5.609 -0.5107  0.6135 -0.1377
  160DOPC  C21619324   1.625   5.759   5.499  0.0564 -0.6692 -0.1038
  160DOPC  H16R19325   1.716   5.799   5.550 -0.8013 -1.1915  1.9597
  160DOPC  H16S19326   1.571   5.842   5.449 -0.3764  0.2321  1.7642
  160DOPC  C21719327   1.671   5.668   5.382 -0.1682 -0.3521 -0.3578
  160DOPC  H17R19328   1.583   5.631   5.325 -0.9900  1.6974 -0.4707
  160DOPC  H17S19329   1.709   5.581   5.440 -0.7227  0.6530  1.6081
  160DOPC  C21819330   1.751   5.722   5.267 -0.5941  0.7160  0.2068
  160DOPC  H18R19331   1.681   5.792   5.216 -0.3037  0.2295 -0.8945
  160DOPC  H18S19332   1.788   5.646   5.194  0.0250  1.2464 -0.0323
  160DOPC  H18T19333   1.845   5.773   5.294  1.8472 -1.6304 -3.0015
  160DOPC   C3319334   1.671   4.812   6.306 -0.5976 -0.1940  0.5732
  160DOPC   H3X19335   1.583   4.756   6.269  0.8522 -1.0493 -1.7818
  160DOPC   H3Y19336   1.758   4.744   6.308 -1.7945 -1.7591  1.3600
  160DOPC   C3419337   1.684   4.932   6.209 -0.0074 -0.0201 -0.2845
  160DOPC   H4X19338   1.775   4.993   6.228  1.6006 -2.0527 -1.0979
  160DOPC   H4Y19339   1.595   4.995   6.233 -2.1008 -3.2680  1.2423
  160DOPC   C3519340   1.688   4.905   6.061  0.3667  0.2504  0.3378
  160DOPC   H5X19341   1.600   4.844   6.030  0.7821  0.5541 -1.4946
  160DOPC   H5Y19342   1.777   4.847   6.031  1.3454  2.3349 -0.9650
  160DOPC   C3619343   1.686   5.034   5.973  0.1553 -0.4108  0.0749
  160DOPC   H6X19344   1.583   5.070   5.991  1.3517  2.5242  1.7873
  160DOPC   H6Y19345   1.758   5.113   6.002 -1.2821  0.8151  0.3994
  160DOPC   C3719346   1.715   5.007   5.829  0.1855  0.0216 -0.8280
  160DOPC   H7X19347   1.813   4.957   5.819 -0.0397 -0.5113 -0.4470
  160DOPC   H7Y19348   1.640   4.931   5.797  0.3103 -1.5427  2.2123
  160DOPC   C3819349   1.716   5.128   5.730  0.3281  0.5263 -0.5965
  160DOPC   H8X19350   1.769   5.092   5.640  0.5330  1.4776 -0.8667
  160DOPC   H8Y19351   1.793   5.201   5.762  1.5899 -1.3708  0.9649
  160DOPC   C3919352   1.582   5.187   5.711 -0.4047 -0.2578 -0.1113
  160DOPC   H9X19353   1.529   5.208   5.805  2.9902  0.3863  1.7881
  160DOPC  C31019354   1.512   5.198   5.600 -0.5115 -0.2687 -0.3320
  160DOPC  H10X19355   1.413   5.243   5.618  0.3923  1.4307  0.6712
  160DOPC  C31119356   1.542   5.153   5.461 -0.3429 -0.3318 -0.3956
  160DOPC  H11X19357   1.653   5.150   5.451 -0.1373  1.4066  0.8995
  160DOPC  H11Y19358   1.499   5.225   5.388 -1.9033 -1.6906 -0.8752
  160DOPC  C31219359   1.478   5.017   5.433 -0.5523 -0.6238 -0.7876
  160DOPC  H12X19360   1.370   5.018   5.460  0.0291  1.2626  1.8911
  160DOPC  H12Y19361   1.520   4.941   5.503 -3.5179 -1.2246  0.5158
  160DOPC  C31319362   1.499   4.957   5.290  0.2975  0.1564  1.0102
  160DOPC  H13X19363   1.608   4.962   5.270  0.0257 -1.0483 -1.0420
  160DOPC  H13Y19364   1.478   4.850   5.309 -0.2716  0.5590  2.8742
  160DOPC  C31419365   1.418   5.025   5.178  0.0613 -0.3890 -0.0067
  160DOPC  H14X19366   1.447   5.132   5.174 -1.9102  0.2028  0.3513
  160DOPC  H14Y19367   1.446   4.992   5.076 -1.4854  1.1993 -1.0186
  160DOPC  C31519368   1.262   5.013   5.183  0.3419 -0.1251 -0.6718
  160DOPC  H15X19369   1.224   5.059   5.276  2.0742  0.7636 -0.3774
  160DOPC  H15Y19370   1.233   4.906   5.190  0.2184 -0.0951 -0.7116
  160DOPC  C31619371   1.202   5.074   5.061 -0.1939  0.9787 -0.6231
  160DOPC  H16X19372   1.259   5.166   5.039 -0.5163  1.5239  0.6961
  160DOPC  H16Y19373   1.212   5.008   4.973 -4.7384 -1.6411  0.4575
  160DOPC  C31719374   1.052   5.113   5.080 -0.3741  0.1957 -0.2714
  160DOPC  H17X19375   1.047   5.195   5.155  0.8962  1.4129 -1.4529
  160DOPC  H17Y19376   1.012   5.158   4.987 -0.2857  2.1136  0.5701
  160DOPC  C31819377   0.956   5.009   5.128  0.2231  0.5370  0.6504
  160DOPC  H18X19378   0.852   5.039   5.104  0.4979 -0.3275 -1.9319
  160DOPC  H18Y19379   0.977   4.912   5.077 -1.3913  1.0109 -1.0352
  160DOPC  H18Z19380   0.968   5.007   5.238 -1.1803  2.3701  0.8799
  161DOPC     N19381   3.071   7.031   7.640 -0.5769  0.3296  0.0031
  161DOPC   C1219382   3.189   6.959   7.585  0.0588  0.5645  0.3076
  161DOPC  H12A19383   3.225   6.886   7.656  0.3084 -1.6961 -1.9926
  161DOPC  H12B19384   3.272   7.028   7.583 -0.2042  0.8855  0.4168
  161DOPC   C1319385   2.946   6.944   7.640  0.3782  0.4184  0.8052
  161DOPC  H13A19386   2.874   7.024   7.650  1.1230  1.3466 -0.8797
  161DOPC  H13B19387   2.923   6.895   7.547  3.4340  0.3553  0.0053
  161DOPC  H13C19388   2.955   6.872   7.721  1.0028 -1.6930 -1.0565
  161DOPC   C1419389   3.042   7.146   7.540  0.8837  0.7883 -0.4751
  161DOPC  H14A19390   2.964   7.209   7.580 -2.0232 -2.1325 -1.1121
  161DOPC  H14B19391   3.133   7.188   7.498  1.0718 -1.7322 -2.8436
  161DOPC  H14C19392   3.008   7.101   7.448 -1.4582 -0.0592  0.7279
  161DOPC   C1519393   3.099   7.079   7.778 -0.3464  0.3750  0.5766
  161DOPC  H15A19394   3.014   7.133   7.818 -0.6031  0.8078 -0.5205
  161DOPC  H15B19395   3.185   7.143   7.788  0.5856 -0.6421 -0.6260
  161DOPC  H15C19396   3.111   7.000   7.851  3.6311  1.2491  1.1007
  161DOPC   C1119397   3.174   6.884   7.441  0.2428  0.2576 -0.1044
  161DOPC  H11A19398   3.274   6.836   7.437  0.8873  1.5940 -0.5621
  161DOPC  H11B19399   3.093   6.808   7.449  0.2632 -0.1294 -2.6629
  161DOPC     P19400   3.255   7.027   7.237 -0.0351  0.1065 -0.0740
  161DOPC   O1319401   3.378   6.942   7.236 -0.1981 -0.0385 -0.1073
  161DOPC   O1419402   3.276   7.172   7.252  0.6135 -0.3458  0.2925
  161DOPC   O1219403   3.148   6.969   7.341  0.3320  0.5477 -0.0022
  161DOPC   O1119404   3.178   6.998   7.100 -0.2334 -0.2862  0.5391
  161DOPC    C119405   3.040   7.040   7.089 -0.2155 -0.1332 -0.1441
  161DOPC    HA19406   3.034   7.119   7.011  2.2195  0.1917 -0.0966
  161DOPC    HB19407   3.000   7.098   7.175  0.5919 -1.0599  0.8986
  161DOPC    C219408   2.944   6.925   7.064 -0.1874  0.6933  0.4094
  161DOPC    HS19409   2.927   6.880   7.164 -2.4419  1.7276  0.5678
  161DOPC   O2119410   3.004   6.825   6.973  0.3476  0.7379  0.1038
  161DOPC   C2119411   2.931   6.719   6.947  0.1167  0.5394  0.2401
  161DOPC   O2219412   2.827   6.686   7.007  0.2221  0.4212  0.4812
  161DOPC   C2219413   2.984   6.616   6.851  0.5857  1.3199  1.6329
  161DOPC   H2R19414   2.922   6.523   6.854  1.4888  0.3884 -2.1726
  161DOPC   H2S19415   3.082   6.576   6.886 -0.0523 -0.7214  1.2143
  161DOPC    C319416   2.810   6.980   7.015  0.0751 -0.1954  0.6300
  161DOPC    HX19417   2.776   7.053   7.092  0.2734  0.6473 -0.0597
  161DOPC    HY19418   2.721   6.914   7.008  0.9655 -1.3195 -0.5627
  161DOPC   O3119419   2.824   7.066   6.892  0.1034 -0.0686  0.7106
  161DOPC   C3119420   2.759   7.034   6.782  0.1754 -0.0788 -0.2222
  161DOPC   O3219421   2.664   6.962   6.773 -0.1847  0.1184 -0.1444
  161DOPC   C3219422   2.813   7.113   6.666  0.1415  0.3403 -0.5458
  161DOPC   H2X19423   2.740   7.184   6.621  1.2094  1.2826 -0.8056
  161DOPC   H2Y19424   2.906   7.166   6.694 -0.2435  0.3773  0.7614
  161DOPC   C2319425   2.995   6.667   6.705  0.7277  0.7933 -0.1467
  161DOPC   H3R19426   3.060   6.593   6.654  1.5095  2.0644 -1.0494
  161DOPC   H3S19427   3.046   6.766   6.706  1.6963  0.3282 -1.3797
  161DOPC   C2419428   2.866   6.653   6.626  0.6088 -0.2966 -0.3836
  161DOPC   H4R19429   2.800   6.737   6.653  3.3559  1.5435  1.1373
  161DOPC   H4S19430   2.814   6.558   6.650  2.3284 -1.0960  0.3915
  161DOPC   C2519431   2.880   6.657   6.475  0.8784  0.1633 -0.5560
  161DOPC   H5R19432   2.930   6.755   6.458 -0.8846  1.1827 -0.0921
  161DOPC   H5S19433   2.781   6.674   6.428  0.6119  0.3529  0.0604
  161DOPC   C2619434   2.954   6.539   6.394 -0.4146 -0.2880  0.2378
  161DOPC   H6R19435   2.884   6.455   6.410  0.2151 -1.1690 -1.3315
  161DOPC   H6S19436   3.050   6.525   6.449  0.7212  0.5085 -1.4520
  161DOPC   C2719437   2.975   6.573   6.245 -0.6397  0.5110  0.2704
  161DOPC   H7R19438   2.878   6.595   6.195 -0.5941  1.0723  0.4198
  161DOPC   H7S19439   3.024   6.481   6.208 -0.4462  0.1517  1.4103
  161DOPC   C2819440   3.072   6.684   6.227 -0.0573  0.7522  0.2745
  161DOPC   H8R19441   3.162   6.646   6.280 -0.0645  1.8325  1.0933
  161DOPC   H8S19442   3.038   6.771   6.287 -1.6617  1.3610 -1.4494
  161DOPC   C2919443   3.092   6.732   6.084 -0.1510  0.0679 -0.2567
  161DOPC   H9R19444   3.036   6.823   6.057 -0.2727 -0.4254 -1.7732
  161DOPC  C21019445   3.151   6.658   5.986  0.6463 -0.5367 -0.3473
  161DOPC  H10R19446   3.127   6.702   5.888 -0.2154 -0.4781 -0.1172
  161DOPC  C21119447   3.210   6.516   5.993  0.2880 -0.6729 -0.0962
  161DOPC  H11R19448   3.217   6.478   6.097 -0.6875  1.3795  0.7821
  161DOPC  H11S19449   3.307   6.519   5.939 -0.2953  1.5944 -1.1503
  161DOPC  C21219450   3.111   6.422   5.920  0.4048  0.7263  0.7890
  161DOPC  H12R19451   3.012   6.399   5.966  0.1217 -0.5977 -0.4129
  161DOPC  H12S19452   3.168   6.327   5.934 -0.3527 -0.2529 -2.1114
  161DOPC  C21319453   3.100   6.436   5.770 -0.2169  0.1110  0.7711
  161DOPC  H13R19454   3.189   6.481   5.722 -0.7127 -1.7339 -2.1243
  161DOPC  H13S19455   3.020   6.508   5.743 -0.0044  1.0119  2.4509
  161DOPC  C21419456   3.069   6.305   5.697 -0.6466 -0.0921 -0.1587
  161DOPC  H14R19457   2.988   6.253   5.754 -0.2489  1.0717  1.5440
  161DOPC  H14S19458   3.161   6.242   5.701 -1.6634 -1.6472 -0.2530
  161DOPC  C21519459   3.028   6.316   5.550 -0.3082  0.1225  0.7371
  161DOPC  H15R19460   3.096   6.377   5.485 -1.0053 -1.7894 -1.9780
  161DOPC  H15S19461   2.924   6.353   5.539 -0.4882 -0.9235 -1.9578
  161DOPC  C21619462   3.017   6.170   5.489 -0.4547 -0.8178  0.4500
  161DOPC  H16R19463   2.962   6.101   5.557 -0.0721 -1.2904  0.2848
  161DOPC  H16S19464   3.115   6.123   5.468  0.4224  0.9925  0.3258
  161DOPC  C21719465   2.953   6.176   5.346 -0.1238 -0.0179 -0.5126
  161DOPC  H17R19466   2.956   6.073   5.303 -1.0796 -0.5093  0.5507
  161DOPC  H17S19467   3.023   6.237   5.285  0.3142  1.2512  1.1852
  161DOPC  C21819468   2.825   6.255   5.326  0.2869 -0.0775  0.0121
  161DOPC  H18R19469   2.835   6.359   5.364  0.3473  0.3901 -1.2180
  161DOPC  H18S19470   2.739   6.213   5.382 -0.4695  2.0755  0.5489
  161DOPC  H18T19471   2.796   6.265   5.219 -1.8287  1.1101  0.6398
  161DOPC   C3319472   2.849   7.021   6.554  0.5172  0.4014  0.0899
  161DOPC   H3X19473   2.773   6.943   6.530  0.8550 -0.9512  2.9646
  161DOPC   H3Y19474   2.934   6.962   6.594  1.3531  1.2967 -0.3280
  161DOPC   C3419475   2.899   7.085   6.426 -0.3673 -0.3881 -0.0609
  161DOPC   H4X19476   2.961   7.013   6.369 -1.3885 -0.8459 -0.6295
  161DOPC   H4Y19477   2.949   7.182   6.445 -2.0384  0.9932 -2.2463
  161DOPC   C3519478   2.782   7.117   6.324 -0.2334 -0.6800 -0.0194
  161DOPC   H5X19479   2.801   7.220   6.286 -1.8620 -0.8684 -1.5046
  161DOPC   H5Y19480   2.692   7.120   6.390  0.6361  0.8008  1.1655
  161DOPC   C3619481   2.780   7.007   6.220  1.2067  0.1459  0.6299
  161DOPC   H6X19482   2.878   7.012   6.168  1.0539 -1.8258  0.0820
  161DOPC   H6Y19483   2.776   6.911   6.275  2.5167  0.0388  0.5493
  161DOPC   C3719484   2.664   7.039   6.120 -0.1147 -0.1721 -0.2943
  161DOPC   H7X19485   2.571   7.025   6.180 -0.6303 -2.7849 -1.5855
  161DOPC   H7Y19486   2.679   7.146   6.094  0.1702 -0.0640  0.2925
  161DOPC   C3819487   2.663   6.935   6.004 -0.4112 -0.1734 -0.4970
  161DOPC   H8X19488   2.561   6.933   5.958 -0.8512  0.8943  0.3827
  161DOPC   H8Y19489   2.683   6.830   6.033 -1.5207 -0.5371 -0.9882
  161DOPC   C3919490   2.766   6.971   5.894 -0.1480  0.6550 -0.0907
  161DOPC   H9X19491   2.799   7.075   5.882  0.5731  0.3509 -0.8222
  161DOPC  C31019492   2.825   6.884   5.803  0.3057 -0.7482  0.1549
  161DOPC  H10X19493   2.903   6.940   5.750  0.6028 -0.0483  1.3043
  161DOPC  C31119494   2.795   6.738   5.791  0.4172  0.0224 -0.2595
  161DOPC  H11X19495   2.698   6.720   5.841 -0.9588  1.9703 -2.0482
  161DOPC  H11Y19496   2.867   6.677   5.849  0.1107  1.8643  2.2282
  161DOPC  C31219497   2.791   6.692   5.645  0.2611  0.8926  0.1983
  161DOPC  H12X19498   2.776   6.582   5.643  2.3477  0.5625 -0.2826
  161DOPC  H12Y19499   2.896   6.705   5.610  0.9330 -0.4930  1.5665
  161DOPC  C31319500   2.689   6.754   5.551 -0.2773 -0.2646 -0.4643
  161DOPC  H13X19501   2.690   6.865   5.549 -0.8660 -0.2480 -0.1676
  161DOPC  H13Y19502   2.711   6.717   5.448  0.9295  1.4893 -0.8799
  161DOPC  C31419503   2.543   6.715   5.578 -0.2796  0.0445  0.2652
  161DOPC  H14X19504   2.518   6.718   5.686  0.9482 -0.7791  0.5990
  161DOPC  H14Y19505   2.467   6.775   5.524 -1.4899 -1.0599  0.7032
  161DOPC  C31519506   2.503   6.574   5.511 -1.1739 -0.2918  0.0976
  161DOPC  H15X19507   2.535   6.485   5.570  2.0391  0.6261 -0.0981
  161DOPC  H15Y19508   2.558   6.580   5.415 -1.0068  1.4666  0.2740
  161DOPC  C31619509   2.355   6.562   5.497  0.3774 -0.2672  0.1148
  161DOPC  H16X19510   2.315   6.565   5.600  0.5237  0.8763  0.1477
  161DOPC  H16Y19511   2.303   6.643   5.442 -2.0675 -2.2702 -0.7655
  161DOPC  C31719512   2.306   6.436   5.432  0.1981 -0.2145  0.2022
  161DOPC  H17X19513   2.372   6.410   5.347  2.1022 -1.3132  1.9139
  161DOPC  H17Y19514   2.322   6.346   5.496  2.9655 -0.0213 -0.0876
  161DOPC  C31819515   2.154   6.434   5.393 -0.4523 -0.1641 -0.3189
  161DOPC  H18X19516   2.097   6.440   5.488  2.6168 -3.2754  1.9720
  161DOPC  H18Y19517   2.134   6.524   5.331  3.0478  1.1631  0.2285
  161DOPC  H18Z19518   2.118   6.343   5.341  0.2794 -0.1244 -0.9184
  162DOPC     N19519   0.368   6.064   7.476  0.5574 -0.3468  0.3570
  162DOPC   C1219520   0.457   6.044   7.354  0.4151 -0.0149 -0.2967
  162DOPC  H12A19521   0.540   5.981   7.383 -1.0090 -1.2397  1.4069
  162DOPC  H12B19522   0.496   6.142   7.334 -1.5967  0.9296  0.1733
  162DOPC   C1319523   0.448   6.134   7.581 -0.6682  0.3815 -0.6731
  162DOPC  H13A19524   0.501   6.215   7.532 -2.3262  1.4384 -0.7946
  162DOPC  H13B19525   0.392   6.184   7.659 -0.9629  0.4862 -0.9462
  162DOPC  H13C19526   0.509   6.060   7.630 -1.7487  0.2187  0.4902
  162DOPC   C1419527   0.319   5.938   7.526  0.1248  1.1850  0.1230
  162DOPC  H14A19528   0.283   5.881   7.441  0.6310  0.1165  0.6149
  162DOPC  H14B19529   0.401   5.883   7.569  0.1899  1.7513  0.7429
  162DOPC  H14C19530   0.237   5.953   7.594 -0.5433 -1.8524  0.1138
  162DOPC   C1519531   0.251   6.151   7.439 -0.7119  0.0041  0.5023
  162DOPC  H15A19532   0.197   6.095   7.364 -0.0868 -0.2318  0.2209
  162DOPC  H15B19533   0.292   6.243   7.400 -1.0360  0.3118  0.8754
  162DOPC  H15C19534   0.196   6.169   7.531 -2.2865 -0.5212 -0.2995
  162DOPC   C1119535   0.399   5.986   7.225 -0.1452 -0.2734 -0.3025
  162DOPC  H11A19536   0.318   6.054   7.188 -1.2987 -1.9873 -1.0651
  162DOPC  H11B19537   0.485   5.994   7.156  1.4141  2.4744  1.7575
  162DOPC     P19538   0.289   5.786   7.125  0.2940 -0.3345  0.2577
  162DOPC   O1319539   0.179   5.863   7.076  0.2312 -0.2575  0.3061
  162DOPC   O1419540   0.262   5.652   7.174 -0.2473  0.8722  0.0044
  162DOPC   O1219541   0.355   5.859   7.250 -0.4973 -0.1072 -0.1783
  162DOPC   O1119542   0.406   5.771   7.025 -0.2035  0.2398  0.3338
  162DOPC    C119543   0.396   5.806   6.890 -0.3800 -0.6611 -0.4058
  162DOPC    HA19544   0.501   5.799   6.854 -0.5898 -2.8512 -0.6951
  162DOPC    HB19545   0.356   5.907   6.867  0.3184 -0.8310 -2.6326
  162DOPC    C219546   0.310   5.716   6.806  0.8686 -0.4930  0.3805
  162DOPC    HS19547   0.203   5.731   6.833  0.2960 -2.2103 -0.7737
  162DOPC   O2119548   0.348   5.578   6.832 -0.1315  0.2229 -0.0813
  162DOPC   C2119549   0.273   5.484   6.781 -0.0566 -0.1247 -0.1239
  162DOPC   O2219550   0.164   5.497   6.728  0.0670 -0.1199 -0.7736
  162DOPC   C2219551   0.347   5.348   6.791  0.2552 -0.4738 -0.0139
  162DOPC   H2R19552   0.331   5.307   6.893  2.1810 -1.0141  0.1156
  162DOPC   H2S19553   0.455   5.367   6.775  0.3469  0.3874  1.4233
  162DOPC    C319554   0.330   5.735   6.652  0.5781 -0.1749 -0.7111
  162DOPC    HX19555   0.259   5.675   6.592  0.4840 -1.2039  0.3912
  162DOPC    HY19556   0.434   5.695   6.650  0.8232  0.2245  1.7373
  162DOPC   O3119557   0.336   5.869   6.614 -0.0784  0.1742 -0.3970
  162DOPC   C3119558   0.209   5.920   6.590  0.2941 -0.1113  0.1192
  162DOPC   O3219559   0.105   5.862   6.608  0.6473 -0.3602 -0.0058
  162DOPC   C3219560   0.215   6.059   6.536  0.3909  0.2150  0.6666
  162DOPC   H2X19561   0.120   6.091   6.585 -0.6276 -3.4158  1.3322
  162DOPC   H2Y19562   0.299   6.115   6.583 -1.6783  2.4438  1.9778
  162DOPC   C2319563   0.301   5.259   6.673 -0.4429 -0.2699  0.3403
  162DOPC   H3R19564   0.192   5.271   6.653 -0.2589 -1.3631 -1.5840
  162DOPC   H3S19565   0.321   5.154   6.703  0.0534  0.4702  2.7819
  162DOPC   C2419566   0.373   5.297   6.537 -0.2703 -0.4295 -0.3244
  162DOPC   H4R19567   0.483   5.282   6.545  0.3200  2.3381 -1.8956
  162DOPC   H4S19568   0.340   5.401   6.516 -1.5716 -1.2601 -2.8086
  162DOPC   C2519569   0.309   5.227   6.419  0.0685 -0.1815  1.1436
  162DOPC   H5R19570   0.209   5.275   6.413 -1.5866 -3.5135 -2.1592
  162DOPC   H5S19571   0.299   5.120   6.448  1.0803 -0.1701  1.5878
  162DOPC   C2619572   0.384   5.227   6.290 -0.9427 -0.7876 -0.2529
  162DOPC   H6R19573   0.489   5.195   6.303 -0.8863 -0.3707  0.3695
  162DOPC   H6S19574   0.404   5.334   6.269  0.2856 -0.7515  0.9609
  162DOPC   C2719575   0.326   5.164   6.166 -0.3423 -0.4871 -0.6692
  162DOPC   H7R19576   0.222   5.201   6.148 -0.7997 -2.5525 -2.8375
  162DOPC   H7S19577   0.319   5.055   6.184  1.4922 -0.2455  2.0423
  162DOPC   C2819578   0.405   5.180   6.033 -0.6106  0.1973  1.0394
  162DOPC   H8R19579   0.508   5.148   6.059 -0.3255  0.6997  0.5352
  162DOPC   H8S19580   0.406   5.289   6.014 -1.3128 -0.0619 -0.6371
  162DOPC   C2919581   0.359   5.101   5.908  0.0975  0.2573  0.0884
  162DOPC   H9R19582   0.304   5.007   5.920 -0.8610  0.7726 -0.1779
  162DOPC  C21019583   0.380   5.140   5.786 -0.5885  0.7097  0.3995
  162DOPC  H10R19584   0.358   5.074   5.701 -1.9280  0.4202  0.9523
  162DOPC  C21119585   0.452   5.265   5.731  0.3754  0.4593  0.2648
  162DOPC  H11R19586   0.562   5.259   5.746  0.3705  0.3456  0.2567
  162DOPC  H11S19587   0.417   5.350   5.793  0.5313  1.1545 -0.5938
  162DOPC  C21219588   0.398   5.312   5.594  1.5915 -0.7514  1.0044
  162DOPC  H12R19589   0.395   5.221   5.531  2.0142  1.5171 -2.5504
  162DOPC  H12S19590   0.463   5.380   5.536 -1.0591 -0.8637 -2.3727
  162DOPC  C21319591   0.255   5.388   5.584 -0.0984 -0.6973  0.8619
  162DOPC  H13R19592   0.269   5.484   5.638 -0.7183 -0.2738  0.2903
  162DOPC  H13S19593   0.176   5.330   5.637  0.0408 -1.9459 -0.2398
  162DOPC  C21419594   0.216   5.410   5.439 -0.5187  0.0044 -0.8785
  162DOPC  H14R19595   0.204   5.311   5.389 -0.8766  0.1072 -0.9923
  162DOPC  H14S19596   0.295   5.458   5.377 -2.0766  2.4881 -1.0773
  162DOPC  C21519597   0.092   5.488   5.412  0.6981  0.2464  0.1766
  162DOPC  H15R19598   0.117   5.596   5.415  1.7673  0.0494 -0.8474
  162DOPC  H15S19599   0.014   5.452   5.482  0.3075 -0.5265 -0.6271
  162DOPC  C21619600   0.025   5.459   5.273 -0.2331  0.3368 -0.8339
  162DOPC  H16R19601   0.107   5.479   5.201  0.2627 -1.5215 -0.8407
  162DOPC  H16S19602  -0.062   5.526   5.259 -1.7919 -1.6376 -1.0474
  162DOPC  C21719603  -0.024   5.317   5.238  0.4043 -0.1538 -0.5725
  162DOPC  H17R19604  -0.087   5.281   5.322 -1.5397  1.7910 -1.1056
  162DOPC  H17S19605   0.057   5.241   5.230  0.2997 -0.6709  2.1337
  162DOPC  C21819606  -0.114   5.315   5.112  0.1426 -0.3534 -0.8775
  162DOPC  H18R19607  -0.195   5.391   5.122  0.8411  0.1835  1.2567
  162DOPC  H18S19608  -0.155   5.212   5.103  0.1212 -0.4840  0.4855
  162DOPC  H18T19609  -0.061   5.335   5.017 -0.0863 -0.0794 -0.9529
  162DOPC   C3319610   0.197   6.076   6.386  0.0758 -0.2069 -0.4420
  162DOPC   H3X19611   0.187   5.973   6.345  0.9120 -0.6826  0.4788
  162DOPC   H3Y19612   0.298   6.111   6.353  0.8614  0.1566  2.1277
  162DOPC   C3419613   0.071   6.149   6.349  0.4716 -0.1623 -0.3577
  162DOPC   H4X19614   0.066   6.252   6.392 -0.7617  0.8827 -2.7799
  162DOPC   H4Y19615  -0.015   6.092   6.391  0.8518 -1.0235 -0.7470
  162DOPC   C3519616   0.038   6.164   6.195 -0.1865 -0.0118  0.0230
  162DOPC   H5X19617   0.139   6.188   6.156  1.1459 -1.0910  2.5421
  162DOPC   H5Y19618  -0.020   6.258   6.186 -1.4706 -0.6518  1.1952
  162DOPC   C3619619  -0.030   6.046   6.140 -0.0797  0.4310  0.2873
  162DOPC   H6X19620   0.039   5.959   6.138 -1.3866 -0.6842  1.3629
  162DOPC   H6Y19621  -0.119   6.016   6.199 -0.2188  0.0621 -0.1048
  162DOPC   C3719622  -0.072   6.081   5.996  0.0811 -0.3997  0.0862
  162DOPC   H7X19623  -0.142   6.010   5.947 -0.3315 -1.1338  1.6883
  162DOPC   H7Y19624  -0.136   6.171   6.008  0.2484 -0.3271  0.4432
  162DOPC   C3819625   0.042   6.106   5.901  0.3477  0.5276 -0.3231
  162DOPC   H8X19626   0.103   6.174   5.965  0.3137 -1.6564  2.1627
  162DOPC   H8Y19627  -0.004   6.150   5.810 -2.5374 -0.2577  0.6802
  162DOPC   C3919628   0.117   5.981   5.849  0.0331 -0.5516 -0.4955
  162DOPC   H9X19629   0.148   5.912   5.929 -0.1829 -0.7287 -0.5637
  162DOPC  C31019630   0.162   5.953   5.725 -0.0087  0.3073 -0.1225
  162DOPC  H10X19631   0.225   5.862   5.720 -1.3566 -0.6007 -1.3048
  162DOPC  C31119632   0.155   6.028   5.599  0.3084 -1.0480 -0.4310
  162DOPC  H11X19633   0.257   6.067   5.578  0.5886 -1.2421  0.5204
  162DOPC  H11Y19634   0.093   6.113   5.633 -1.4132 -2.8597  1.2092
  162DOPC  C31219635   0.089   5.947   5.491 -0.4979  0.0249 -0.0288
  162DOPC  H12X19636  -0.022   5.945   5.500 -0.3895 -0.8890  1.4835
  162DOPC  H12Y19637   0.134   5.845   5.490 -0.0343  0.1906 -2.7942
  162DOPC  C31319638   0.109   6.010   5.350  0.3776  0.5699  0.5957
  162DOPC  H13X19639   0.042   6.098   5.341 -1.0075 -0.6452 -2.2585
  162DOPC  H13Y19640   0.216   6.035   5.340  0.2229  0.3587 -2.2378
  162DOPC  C31419641   0.084   5.916   5.231  0.3163 -0.0050 -0.1004
  162DOPC  H14X19642   0.123   5.968   5.142 -2.9941  0.4261 -1.4589
  162DOPC  H14Y19643   0.141   5.821   5.243  0.3340 -0.4247 -2.8907
  162DOPC  C31519644  -0.061   5.885   5.208 -1.4418  0.4712  0.2571
  162DOPC  H15X19645  -0.133   5.970   5.218 -1.2721  0.7021 -0.4622
  162DOPC  H15Y19646  -0.087   5.799   5.273 -1.7476 -0.6798 -1.3232
  162DOPC  C31619647  -0.088   5.840   5.057 -0.5469 -0.7344 -0.7209
  162DOPC  H16X19648  -0.046   5.922   4.994  0.7885 -1.6486 -1.0669
  162DOPC  H16Y19649  -0.024   5.751   5.038  0.9419 -1.0423  4.4325
  162DOPC  C31719650  -0.237   5.817   5.024  0.5950  0.2871 -0.1597
  162DOPC  H17X19651  -0.262   5.727   5.085 -0.6561  0.2603 -0.6853
  162DOPC  H17Y19652  -0.289   5.905   5.066  1.5130  0.8755 -0.2266
  162DOPC  C31819653  -0.267   5.781   4.879 -0.5793  0.1395 -0.9801
  162DOPC  H18X19654  -0.177   5.721   4.853 -1.1471 -0.9696 -0.4782
  162DOPC  H18Y19655  -0.348   5.705   4.870 -1.9496  1.4045  0.1716
  162DOPC  H18Z19656  -0.280   5.869   4.813 -0.3399  1.8128  1.1049
  163DOPC     N19657   7.323   2.554   7.217 -0.1610  0.1837 -0.3542
  163DOPC   C1219658   7.340   2.480   7.083  0.3099  0.4214 -0.1869
  163DOPC  H12A19659   7.374   2.380   7.106 -1.8180 -0.1936  0.4933
  163DOPC  H12B19660   7.416   2.531   7.026 -1.0311  1.1369 -1.4036
  163DOPC   C1319661   7.243   2.465   7.316 -1.1992  0.1410  0.4272
  163DOPC  H13A19662   7.145   2.456   7.272 -1.7952  0.7427  1.5976
  163DOPC  H13B19663   7.290   2.369   7.334 -2.3998 -0.6205 -0.3668
  163DOPC  H13C19664   7.233   2.518   7.410  1.5491  0.6140  0.5291
  163DOPC   C1419665   7.267   2.692   7.211  0.1308 -0.0440 -0.2734
  163DOPC  H14A19666   7.164   2.687   7.178  0.1400  0.6725 -0.4248
  163DOPC  H14B19667   7.258   2.741   7.307 -0.1732 -0.5259 -0.0498
  163DOPC  H14C19668   7.322   2.754   7.142  0.5490 -1.6619 -1.4554
  163DOPC   C1519669   7.455   2.565   7.282 -0.2842  0.2277  0.3187
  163DOPC  H15A19670   7.530   2.613   7.220 -0.9847  1.4877  0.3999
  163DOPC  H15B19671   7.497   2.472   7.318  0.1777 -0.6506 -2.2709
  163DOPC  H15C19672   7.453   2.631   7.368  1.0203  1.1161 -0.2839
  163DOPC   C1119673   7.219   2.479   6.989  0.6167  0.0250 -0.0186
  163DOPC  H11A19674   7.188   2.584   6.969  0.0248 -0.4908 -2.0681
  163DOPC  H11B19675   7.248   2.435   6.891  1.3626 -2.7782  1.3522
  163DOPC     P19676   7.123   2.241   7.054 -0.1394 -0.3451  0.0064
  163DOPC   O1319677   6.991   2.179   7.088  0.0546  0.2497 -0.1857
  163DOPC   O1419678   7.244   2.201   7.131 -0.3848  0.2342 -0.7914
  163DOPC   O1219679   7.112   2.403   7.042  0.2234  0.7284 -0.0685
  163DOPC   O1119680   7.146   2.201   6.901 -0.8469 -0.3867  0.1053
  163DOPC    C119681   7.056   2.255   6.798 -0.2344  0.4709  0.6686
  163DOPC    HA19682   7.113   2.331   6.741 -1.2652  0.3749 -0.5423
  163DOPC    HB19683   6.965   2.309   6.834 -2.1777 -2.9033  1.2238
  163DOPC    C219684   6.997   2.152   6.701 -0.3299 -0.6065  0.3336
  163DOPC    HS19685   6.936   2.083   6.764 -0.0752 -0.3906  0.8199
  163DOPC   O2119686   7.104   2.087   6.637 -0.1978 -0.4801 -0.0278
  163DOPC   C2119687   7.091   1.957   6.619  0.3258  0.1900  0.0284
  163DOPC   O2219688   6.997   1.886   6.655 -0.3207 -0.2450 -0.1884
  163DOPC   C2219689   7.213   1.908   6.541 -0.0361 -0.0352 -0.0769
  163DOPC   H2R19690   7.262   1.834   6.607 -0.2625 -0.5915 -0.5240
  163DOPC   H2S19691   7.284   1.992   6.529  0.5627  0.0756  3.3518
  163DOPC    C319692   6.906   2.218   6.591  0.8823  0.2450 -0.1495
  163DOPC    HX19693   6.967   2.277   6.520 -1.5778  3.2835  0.0437
  163DOPC    HY19694   6.838   2.275   6.658  1.5935 -0.6436  1.3980
  163DOPC   O3119695   6.831   2.130   6.513 -0.0410  0.7003 -0.2894
  163DOPC   C3119696   6.738   2.182   6.435 -0.5382 -0.1468  0.0439
  163DOPC   O3219697   6.707   2.300   6.438  0.3980  0.9426 -0.0590
  163DOPC   C3219698   6.665   2.083   6.351 -0.4321  0.4889 -0.0248
  163DOPC   H2X19699   6.718   1.985   6.352 -2.3781 -0.7157 -2.6353
  163DOPC   H2Y19700   6.568   2.060   6.399 -0.5434 -4.8075 -2.0566
  163DOPC   C2319701   7.172   1.845   6.400 -0.0245 -0.6387  0.0419
  163DOPC   H3R19702   7.098   1.764   6.419 -0.9703  0.6747  2.3764
  163DOPC   H3S19703   7.262   1.795   6.357 -0.3729 -0.0389 -1.4464
  163DOPC   C2419704   7.115   1.946   6.302  0.3238 -0.5222  1.0124
  163DOPC   H4R19705   7.017   1.975   6.345  0.5011  1.0199  0.4332
  163DOPC   H4S19706   7.095   1.894   6.206  0.2239  2.0477 -0.4537
  163DOPC   C2519707   7.203   2.070   6.271  0.3026  0.5532  0.5116
  163DOPC   H5R19708   7.303   2.024   6.254  1.1594  1.7118  2.0738
  163DOPC   H5S19709   7.210   2.136   6.361  0.0298  2.4867 -0.8192
  163DOPC   C2619710   7.158   2.144   6.146 -0.2645 -0.3882 -0.1099
  163DOPC   H6R19711   7.067   2.201   6.174 -0.4587 -1.5579  1.9023
  163DOPC   H6S19712   7.133   2.081   6.058  1.2459 -2.3388  0.7649
  163DOPC   C2719713   7.266   2.251   6.104  0.4830 -0.1114 -0.0933
  163DOPC   H7R19714   7.368   2.206   6.102  0.6262  0.2412 -2.1360
  163DOPC   H7S19715   7.271   2.325   6.188 -1.4313 -0.4672  0.3728
  163DOPC   C2819716   7.236   2.312   5.971  0.4552  0.4015 -0.2709
  163DOPC   H8R19717   7.131   2.350   5.976  0.3403 -0.0277  0.7630
  163DOPC   H8S19718   7.234   2.232   5.894 -0.5032  0.3983 -0.2541
  163DOPC   C2919719   7.337   2.422   5.942  0.6847 -0.7745 -0.1945
  163DOPC   H9R19720   7.374   2.476   6.031  1.0333  0.8584 -1.2951
  163DOPC  C21019721   7.387   2.455   5.824  0.0527 -0.2757 -0.2049
  163DOPC  H10R19722   7.469   2.528   5.830  2.1428 -2.4919  0.0181
  163DOPC  C21119723   7.357   2.394   5.689 -0.7369  0.3899  0.1520
  163DOPC  H11R19724   7.349   2.283   5.686 -0.3678  0.3779 -2.7627
  163DOPC  H11S19725   7.427   2.439   5.616 -2.1263 -0.1089 -1.5627
  163DOPC  C21219726   7.215   2.418   5.630 -0.3078  0.3297 -0.4084
  163DOPC  H12R19727   7.203   2.528   5.616 -0.7205  0.4914  1.0489
  163DOPC  H12S19728   7.140   2.381   5.704 -0.0634 -0.0946 -0.3712
  163DOPC  C21319729   7.198   2.350   5.497  0.7901  0.4862  0.0626
  163DOPC  H13R19730   7.120   2.273   5.514  1.2362  0.1450  0.6290
  163DOPC  H13S19731   7.290   2.292   5.470 -0.3139 -0.6835 -1.3892
  163DOPC  C21419732   7.162   2.452   5.389 -0.4044  0.4192  0.2689
  163DOPC  H14R19733   7.250   2.520   5.390  0.5501 -0.7844  0.4089
  163DOPC  H14S19734   7.084   2.509   5.442 -1.3225 -1.0212  0.5068
  163DOPC  C21519735   7.130   2.394   5.253  0.8542 -0.2360  0.2918
  163DOPC  H15R19736   7.027   2.351   5.251 -0.7996  3.1840 -3.2234
  163DOPC  H15S19737   7.203   2.311   5.237  0.6302 -0.3038 -0.4222
  163DOPC  C21619738   7.152   2.483   5.128 -0.2093  0.2308 -0.4614
  163DOPC  H16R19739   7.258   2.511   5.145  0.3573 -1.9233 -0.1144
  163DOPC  H16S19740   7.079   2.566   5.141 -1.5518 -0.7943 -1.1715
  163DOPC  C21719741   7.136   2.419   4.990  0.4244 -0.5371 -0.5189
  163DOPC  H17R19742   7.236   2.382   4.957  0.9998  0.3708  0.1425
  163DOPC  H17S19743   7.103   2.505   4.928  4.7131  1.7377 -0.0455
  163DOPC  C21819744   7.038   2.314   4.971  0.1727  0.6646 -0.7121
  163DOPC  H18R19745   6.943   2.341   5.022 -0.0896 -2.4426  0.6830
  163DOPC  H18S19746   7.062   2.227   5.038  0.0488 -1.1773 -2.9388
  163DOPC  H18T19747   7.021   2.279   4.867  2.8664 -0.9966 -0.6949
  163DOPC   C3319748   6.652   2.126   6.201  0.2625  1.1231 -0.3486
  163DOPC   H3X19749   6.602   2.225   6.213 -0.1991  0.7059  1.4964
  163DOPC   H3Y19750   6.573   2.064   6.153 -0.2570  1.1152  0.5023
  163DOPC   C3419751   6.783   2.120   6.122  0.2088 -0.6567 -0.1373
  163DOPC   H4X19752   6.794   2.020   6.076  0.2193 -1.1386  0.8840
  163DOPC   H4Y19753   6.878   2.127   6.180  0.1179 -0.8170  0.0313
  163DOPC   C3519754   6.789   2.216   5.999 -0.5914 -0.4062 -0.3355
  163DOPC   H5X19755   6.887   2.192   5.951 -2.2379 -2.1334 -3.0518
  163DOPC   H5Y19756   6.785   2.324   6.021  0.4241 -0.2045 -1.0622
  163DOPC   C3619757   6.677   2.198   5.904 -0.8258 -0.2645  0.3547
  163DOPC   H6X19758   6.682   2.093   5.867 -1.1496 -0.7529  1.6198
  163DOPC   H6Y19759   6.578   2.208   5.953 -0.5806 -5.0595  2.4001
  163DOPC   C3719760   6.686   2.297   5.784  0.8080  1.0109 -0.1091
  163DOPC   H7X19761   6.701   2.397   5.831  1.3651  1.1139 -0.5029
  163DOPC   H7Y19762   6.777   2.270   5.728  1.6955 -1.1684  2.1938
  163DOPC   C3819763   6.555   2.294   5.695 -0.1473  0.4940  0.4777
  163DOPC   H8X19764   6.470   2.300   5.766 -0.3193 -0.9732  0.4248
  163DOPC   H8Y19765   6.544   2.190   5.656  0.5458  0.8021 -0.5894
  163DOPC   C3919766   6.568   2.403   5.594  0.5306 -0.8523  0.3207
  163DOPC   H9X19767   6.537   2.504   5.624  0.7968 -0.9607  0.9747
  163DOPC  C31019768   6.619   2.386   5.471  0.4081 -0.4056  0.4269
  163DOPC  H10X19769   6.598   2.473   5.406 -1.8867 -0.4589  0.9930
  163DOPC  C31119770   6.669   2.262   5.401  0.1288  0.6925 -0.9379
  163DOPC  H11X19771   6.615   2.167   5.422  2.1513 -0.2029  0.4591
  163DOPC  H11Y19772   6.775   2.263   5.434 -0.2088  3.8164  0.3620
  163DOPC  C31219773   6.665   2.272   5.239  0.2923 -0.1443 -0.4782
  163DOPC  H12X19774   6.726   2.356   5.198 -0.4603  0.1028 -1.1222
  163DOPC  H12Y19775   6.561   2.297   5.208  0.3291  0.3244 -0.2258
  163DOPC  C31319776   6.706   2.137   5.173  0.8782 -0.4490 -0.1356
  163DOPC  H13X19777   6.806   2.116   5.217  1.9283  0.7663 -1.8533
  163DOPC  H13Y19778   6.634   2.059   5.208  0.6410 -0.3777 -0.4553
  163DOPC  C31419779   6.710   2.140   5.025 -0.1918 -0.0424  0.2898
  163DOPC  H14X19780   6.605   2.149   4.989  0.1869  1.9470 -0.4294
  163DOPC  H14Y19781   6.757   2.235   4.991  1.6234 -0.7941  0.5844
  163DOPC  C31519782   6.782   2.014   4.958  0.4336  0.2769  0.2400
  163DOPC  H15X19783   6.723   1.923   4.982  1.5673 -1.0397 -1.6141
  163DOPC  H15Y19784   6.887   2.003   4.993  0.8732 -0.3420 -1.1946
  163DOPC  C31619785   6.790   2.028   4.807  0.6623  0.4631  0.0129
  163DOPC  H16X19786   6.701   2.081   4.768 -1.7022 -3.3831 -0.3084
  163DOPC  H16Y19787   6.881   2.090   4.790  0.2259  1.3989  0.9985
  163DOPC  C31719788   6.816   1.901   4.716  0.1877 -0.3583  0.4473
  163DOPC  H17X19789   6.842   1.940   4.615 -1.6570  0.3922  0.2196
  163DOPC  H17Y19790   6.908   1.851   4.754  1.1583  1.3023  0.3462
  163DOPC  C31819791   6.694   1.805   4.709 -0.2278 -0.4735 -0.1113
  163DOPC  H18X19792   6.658   1.785   4.813  1.6467 -0.8135  0.5096
  163DOPC  H18Y19793   6.604   1.847   4.659 -1.4413  0.8995  2.9152
  163DOPC  H18Z19794   6.726   1.712   4.657 -0.5318 -0.0268 -1.1124
  164DOPC     N19795   1.472   1.231   7.334 -0.4919 -0.1950 -0.5116
  164DOPC   C1219796   1.475   1.242   7.184 -0.8422  0.3527 -0.2700
  164DOPC  H12A19797   1.472   1.348   7.166  0.4362  1.0294  2.7254
  164DOPC  H12B19798   1.384   1.201   7.144 -1.3835 -2.7272  3.4511
  164DOPC   C1319799   1.600   1.310   7.381  0.0030 -0.3046  0.3300
  164DOPC  H13A19800   1.693   1.274   7.338  0.0523 -0.4817  0.5796
  164DOPC  H13B19801   1.592   1.411   7.344 -0.4755  0.1044  1.4791
  164DOPC  H13C19802   1.609   1.319   7.489 -0.8971  1.8531  0.2736
  164DOPC   C1419803   1.475   1.090   7.389  0.0494 -0.3454 -0.6481
  164DOPC  H14A19804   1.560   1.032   7.357 -0.3119 -0.5992 -1.1740
  164DOPC  H14B19805   1.479   1.089   7.496  1.3593  1.5985 -0.6237
  164DOPC  H14C19806   1.383   1.038   7.365 -0.5633 -0.0463  0.9628
  164DOPC   C1519807   1.349   1.294   7.396 -0.8390 -0.4802  0.3100
  164DOPC  H15A19808   1.323   1.387   7.349 -0.2109  1.2733  3.1996
  164DOPC  H15B19809   1.360   1.312   7.502 -1.6062 -0.5755  0.4135
  164DOPC  H15C19810   1.273   1.218   7.378  0.3930 -1.9125  0.9342
  164DOPC   C1119811   1.587   1.171   7.105  0.3342  0.0281  0.3185
  164DOPC  H11A19812   1.693   1.191   7.133  0.3050  3.6495 -1.6577
  164DOPC  H11B19813   1.570   1.062   7.117  0.1602  0.1795  1.5807
  164DOPC     P19814   1.464   1.148   6.878 -0.5418  0.2122  0.0850
  164DOPC   O1319815   1.482   1.205   6.741 -0.2167  0.3272  0.3208
  164DOPC   O1419816   1.330   1.167   6.937 -0.6955 -0.6091  0.2754
  164DOPC   O1219817   1.572   1.208   6.972  0.2134  0.3849 -0.9876
  164DOPC   O1119818   1.489   0.990   6.877  0.9456 -0.3417  0.2641
  164DOPC    C119819   1.620   0.935   6.876 -0.1419 -0.5114 -0.6153
  164DOPC    HA19820   1.655   0.937   6.981 -0.8851 -2.9171 -0.2591
  164DOPC    HB19821   1.690   0.996   6.815  0.6653  0.6876  1.4268
  164DOPC    C219822   1.634   0.788   6.816 -0.4013  0.3655 -0.1929
  164DOPC    HS19823   1.731   0.744   6.847 -3.0299 -4.3484  2.6678
  164DOPC   O2119824   1.624   0.785   6.676 -0.0576 -0.5089  0.3271
  164DOPC   C2119825   1.732   0.826   6.609  0.3042  0.2559  0.1438
  164DOPC   O2219826   1.845   0.828   6.652 -0.5430 -0.4236 -0.4188
  164DOPC   C2219827   1.688   0.856   6.473 -0.2792 -0.0064 -0.6197
  164DOPC   H2R19828   1.651   0.960   6.471  0.1716  0.1532 -1.0829
  164DOPC   H2S19829   1.614   0.782   6.436  0.3139  0.1861 -2.2736
  164DOPC    C319830   1.516   0.707   6.883  0.1710 -0.8404  0.3463
  164DOPC    HX19831   1.425   0.769   6.865  2.1639  1.5280 -2.4421
  164DOPC    HY19832   1.530   0.693   6.992  1.6679  0.4181  0.3631
  164DOPC   O3119833   1.485   0.583   6.821  0.5956 -0.1594 -0.2188
  164DOPC   C3119834   1.584   0.496   6.831 -0.4669 -0.7395  0.2524
  164DOPC   O3219835   1.685   0.509   6.900 -0.1586  0.2334  0.0990
  164DOPC   C3219836   1.561   0.378   6.741  0.8474 -0.3703 -0.8216
  164DOPC   H2X19837   1.499   0.306   6.799  1.3985 -0.5144 -0.4134
  164DOPC   H2Y19838   1.501   0.407   6.651 -2.1411  0.9431  1.4343
  164DOPC   C2319839   1.799   0.844   6.369  0.8699  0.7180  0.0949
  164DOPC   H3R19840   1.863   0.755   6.388  1.5143  1.2580  0.4631
  164DOPC   H3S19841   1.864   0.933   6.378 -0.2981  1.8462 -1.9078
  164DOPC   C2419842   1.752   0.837   6.222 -0.0983 -0.1443 -0.2739
  164DOPC   H4R19843   1.655   0.889   6.220 -1.0563 -1.8707 -2.0946
  164DOPC   H4S19844   1.751   0.736   6.176 -0.8362 -0.0712 -0.4194
  164DOPC   C2519845   1.838   0.925   6.126  0.0234 -0.1726 -0.8275
  164DOPC   H5R19846   1.931   0.872   6.096  0.3532  0.7293 -1.4347
  164DOPC   H5S19847   1.886   1.012   6.176  1.3374 -1.8274  0.9554
  164DOPC   C2619848   1.764   0.964   6.005  0.0763 -0.5546  0.4390
  164DOPC   H6R19849   1.675   1.023   6.036  0.6637  0.7195 -0.2346
  164DOPC   H6S19850   1.729   0.866   5.965 -0.3871 -0.8129  1.4245
  164DOPC   C2719851   1.831   1.050   5.899 -0.3227  0.4159  0.1568
  164DOPC   H7R19852   1.772   1.064   5.806  2.1322  2.6108 -1.2023
  164DOPC   H7S19853   1.932   1.008   5.880 -0.0946  2.1806 -3.1175
  164DOPC   C2819854   1.846   1.199   5.944 -0.4703  0.1967 -0.0179
  164DOPC   H8R19855   1.884   1.200   6.048 -0.3885 -1.9926  0.0076
  164DOPC   H8S19856   1.742   1.233   5.966 -0.2955 -0.7945  2.6803
  164DOPC   C2919857   1.927   1.294   5.853 -0.0822  0.5439 -0.6792
  164DOPC   H9R19858   2.031   1.319   5.880 -0.1821 -0.3303  0.6409
  164DOPC  C21019859   1.876   1.362   5.756  0.3453 -0.4737 -0.0322
  164DOPC  H10R19860   1.945   1.426   5.698  1.4483  0.2079  1.8995
  164DOPC  C21119861   1.730   1.367   5.715 -0.0403  0.7409  0.2287
  164DOPC  H11R19862   1.691   1.469   5.696 -2.8603  0.0064  1.5388
  164DOPC  H11S19863   1.661   1.341   5.798  0.3726 -1.0843  0.0478
  164DOPC  C21219864   1.676   1.280   5.592 -0.6797  0.1039 -0.0308
  164DOPC  H12R19865   1.697   1.173   5.611  0.0469  0.4361  1.1821
  164DOPC  H12S19866   1.733   1.306   5.500  1.0609  0.7822  1.1727
  164DOPC  C21319867   1.532   1.301   5.550  1.2957  0.2542  0.2326
  164DOPC  H13R19868   1.515   1.282   5.442 -1.6083  1.2117  0.4299
  164DOPC  H13S19869   1.504   1.409   5.550 -0.0525 -0.0451  1.5030
  164DOPC  C21419870   1.428   1.217   5.627  0.1412  0.4268 -0.3219
  164DOPC  H14R19871   1.451   1.222   5.735 -0.7591 -0.3162 -0.0809
  164DOPC  H14S19872   1.439   1.114   5.585 -0.2453  0.7311 -1.1845
  164DOPC  C21519873   1.285   1.270   5.619  0.4745  0.2025  0.0998
  164DOPC  H15R19874   1.295   1.380   5.633  0.7055  0.2516 -0.3977
  164DOPC  H15S19875   1.219   1.218   5.692  0.0476 -0.7996 -0.9598
  164DOPC  C21619876   1.221   1.253   5.481 -0.0821 -0.4270  0.2811
  164DOPC  H16R19877   1.275   1.299   5.395  1.6028 -1.8068  0.5503
  164DOPC  H16S19878   1.120   1.296   5.498 -1.0469 -2.3829 -0.1793
  164DOPC  C21719879   1.206   1.099   5.440 -0.2759 -0.4332  0.1877
  164DOPC  H17R19880   1.153   1.045   5.522 -1.8385 -2.0597 -1.7808
  164DOPC  H17S19881   1.305   1.052   5.425 -0.3201 -0.3417 -0.3913
  164DOPC  C21819882   1.134   1.078   5.305  0.2402 -0.1657 -0.1347
  164DOPC  H18R19883   1.117   0.969   5.295  3.7913 -1.1614  2.7823
  164DOPC  H18S19884   1.192   1.127   5.224 -1.8201  0.5014 -1.2764
  164DOPC  H18T19885   1.032   1.122   5.315  0.3177 -0.0086 -0.0271
  164DOPC   C3319886   1.691   0.307   6.709  0.2409 -0.0746 -0.2445
  164DOPC   H3X19887   1.665   0.216   6.650  3.1613 -1.2214  0.0976
  164DOPC   H3Y19888   1.747   0.270   6.797  0.1482  0.3212 -0.0183
  164DOPC   C3419889   1.775   0.394   6.610  0.8880  0.1214 -0.4054
  164DOPC   H4X19890   1.872   0.339   6.605 -0.3142 -2.4415  1.8508
  164DOPC   H4Y19891   1.806   0.477   6.677  1.5188 -1.0252  0.7709
  164DOPC   C3519892   1.715   0.426   6.472 -0.7481  0.2349 -0.6563
  164DOPC   H5X19893   1.644   0.511   6.473 -0.8686  0.1353  1.2077
  164DOPC   H5Y19894   1.659   0.336   6.438  0.9773 -1.3680  0.5516
  164DOPC   C3619895   1.832   0.434   6.366 -0.8432  0.3425 -0.5764
  164DOPC   H6X19896   1.896   0.518   6.401 -2.7260  1.6831 -0.1595
  164DOPC   H6Y19897   1.895   0.343   6.371  0.5491  1.2873 -0.4411
  164DOPC   C3719898   1.774   0.462   6.224 -0.2465 -0.2743 -0.7995
  164DOPC   H7X19899   1.715   0.373   6.193 -1.9536  1.0940 -1.6596
  164DOPC   H7Y19900   1.695   0.539   6.232  0.9192  0.7819  2.0720
  164DOPC   C3819901   1.882   0.484   6.116  0.1098 -0.0899 -0.4908
  164DOPC   H8X19902   1.926   0.382   6.111 -2.0047 -1.0682 -0.4101
  164DOPC   H8Y19903   1.969   0.550   6.139 -0.3313 -0.4647  2.5396
  164DOPC   C3919904   1.807   0.523   5.988  0.8531 -0.4360 -1.0027
  164DOPC   H9X19905   1.779   0.629   5.973  0.7843 -0.6964 -3.1093
  164DOPC  C31019906   1.757   0.443   5.892 -0.4341 -0.0794 -0.1289
  164DOPC  H10X19907   1.715   0.496   5.806  0.4861 -0.9470 -1.1405
  164DOPC  C31119908   1.760   0.295   5.886 -1.0179  0.4737 -0.1354
  164DOPC  H11X19909   1.661   0.249   5.907 -1.1177 -0.1924 -1.8839
  164DOPC  H11Y19910   1.836   0.263   5.960 -0.7445 -2.4080 -1.5270
  164DOPC  C31219911   1.800   0.230   5.749 -0.8304 -0.2949 -0.3498
  164DOPC  H12X19912   1.852   0.133   5.760 -0.9332 -0.4861 -1.3771
  164DOPC  H12Y19913   1.881   0.292   5.704  0.8888  0.4832  3.4510
  164DOPC  C31319914   1.682   0.214   5.644 -0.1666 -0.0364 -0.1900
  164DOPC  H13X19915   1.604   0.141   5.676 -1.5502  0.7029 -1.7006
  164DOPC  H13Y19916   1.627   0.308   5.623  0.6489 -0.1155 -3.1262
  164DOPC  C31419917   1.738   0.177   5.510 -1.1568 -0.0691  0.7819
  164DOPC  H14X19918   1.777   0.073   5.515 -1.2395 -0.1306  0.1834
  164DOPC  H14Y19919   1.821   0.251   5.501 -0.1866 -1.1983  0.2619
  164DOPC  C31519920   1.641   0.193   5.390 -0.1467 -1.2063  0.5052
  164DOPC  H15X19921   1.611   0.300   5.391  2.0969 -0.5023  2.4791
  164DOPC  H15Y19922   1.548   0.137   5.412 -0.5076 -1.5095 -1.5805
  164DOPC  C31619923   1.703   0.166   5.249  0.2893 -0.2273 -0.4595
  164DOPC  H16X19924   1.641   0.219   5.174 -0.8641  0.2464  0.7726
  164DOPC  H16Y19925   1.805   0.209   5.257  0.8263 -1.7066  1.5150
  164DOPC  C31719926   1.717   0.019   5.210 -0.1580 -0.0999 -0.0626
  164DOPC  H17X19927   1.755  -0.043   5.293 -0.8666  1.2919  1.3510
  164DOPC  H17Y19928   1.616  -0.025   5.190  0.1631 -0.6064 -0.5883
  164DOPC  C31819929   1.792  -0.006   5.071  0.3884  0.8344 -0.0564
  164DOPC  H18X19930   1.892  -0.055   5.073 -0.4444 -1.5861 -4.2790
  164DOPC  H18Y19931   1.736  -0.068   4.998  3.1568 -1.7726 -0.2054
  164DOPC  H18Z19932   1.812   0.092   5.023 -1.6603 -0.3847 -3.7795
  165DOPC     N19933   5.892   1.825   6.881  0.1226 -0.2328  0.3531
  165DOPC   C1219934   5.745   1.795   6.865  0.2964 -0.7805  0.8614
  165DOPC  H12A19935   5.681   1.881   6.852  0.2828 -1.1728 -2.3585
  165DOPC  H12B19936   5.708   1.745   6.954 -0.4302 -0.6200  0.6623
  165DOPC   C1319937   5.971   1.690   6.895 -0.4788  0.3010  0.2898
  165DOPC  H13A19938   5.973   1.640   6.800 -0.4643  1.5519 -0.3966
  165DOPC  H13B19939   6.073   1.708   6.924  0.3386 -2.5029 -0.5385
  165DOPC  H13C19940   5.908   1.631   6.960 -0.2823 -0.3874 -0.1392
  165DOPC   C1419941   5.905   1.909   7.002  0.3453  0.3582 -0.3773
  165DOPC  H14A19942   6.009   1.934   7.017  0.1689  2.5715 -2.2339
  165DOPC  H14B19943   5.850   2.001   6.990 -0.0106  0.3486  1.0232
  165DOPC  H14C19944   5.869   1.862   7.092 -1.1210 -2.4161 -2.2464
  165DOPC   C1519945   5.945   1.904   6.761  0.1501  0.7241  0.2370
  165DOPC  H15A19946   6.043   1.947   6.777  1.3094 -2.1236  1.5633
  165DOPC  H15B19947   5.881   1.981   6.720 -0.9335  0.1123  0.7292
  165DOPC  H15C19948   5.957   1.830   6.682  3.1610  2.3466 -0.9886
  165DOPC   C1119949   5.704   1.695   6.752  1.2077 -0.1220  0.0344
  165DOPC  H11A19950   5.594   1.699   6.761  0.9495 -0.7072 -2.4393
  165DOPC  H11B19951   5.733   1.735   6.653  0.5399  0.0875 -0.0799
  165DOPC     P19952   5.675   1.431   6.803 -0.3034  0.6013 -0.4327
  165DOPC   O1319953   5.680   1.407   6.951 -0.7512  0.3826 -0.0368
  165DOPC   O1419954   5.739   1.317   6.724 -0.1777 -0.3751 -0.4808
  165DOPC   O1219955   5.758   1.565   6.772  0.1304 -0.3330  0.3127
  165DOPC   O1119956   5.521   1.465   6.764 -0.1481 -0.2190  0.0116
  165DOPC    C119957   5.429   1.365   6.709 -0.3873 -0.0450 -0.2569
  165DOPC    HA19958   5.332   1.396   6.753  0.5676  1.0133  1.2051
  165DOPC    HB19959   5.441   1.262   6.750 -1.4186  0.1166  0.4930
  165DOPC    C219960   5.424   1.361   6.560 -0.1191 -0.2950 -0.8100
  165DOPC    HS19961   5.524   1.345   6.516 -1.0748 -3.3564 -2.2161
  165DOPC   O2119962   5.367   1.488   6.511 -0.1685 -0.2466 -0.3198
  165DOPC   C2119963   5.467   1.576   6.483  0.6031  0.8271  0.3345
  165DOPC   O2219964   5.584   1.547   6.467 -0.4170 -0.1788  0.1923
  165DOPC   C2219965   5.417   1.715   6.459  0.3551 -0.1050 -0.0191
  165DOPC   H2R19966   5.498   1.786   6.487 -1.6464  2.0848  0.4498
  165DOPC   H2S19967   5.328   1.738   6.522  0.2590 -1.0256  0.1994
  165DOPC    C319968   5.336   1.248   6.500  0.0959  0.5511  0.2360
  165DOPC    HX19969   5.249   1.238   6.568  0.4134  0.2135  0.5970
  165DOPC    HY19970   5.394   1.154   6.510 -1.5326 -0.3843  1.5413
  165DOPC   O3119971   5.288   1.273   6.368 -0.1973 -0.1998 -0.8665
  165DOPC   C3119972   5.379   1.281   6.270 -0.7671 -0.3263  0.6312
  165DOPC   O3219973   5.501   1.266   6.278 -0.0626 -0.0423  0.4864
  165DOPC   C3219974   5.317   1.318   6.140 -0.4576 -0.2231 -0.3724
  165DOPC   H2X19975   5.274   1.225   6.098 -1.6351  0.4241 -0.6388
  165DOPC   H2Y19976   5.234   1.386   6.169 -0.2108 -1.0683  2.6538
  165DOPC   C2319977   5.374   1.737   6.316 -1.0251 -0.4789  0.9957
  165DOPC   H3R19978   5.284   1.678   6.288 -1.5341  0.8211 -0.2462
  165DOPC   H3S19979   5.459   1.699   6.256  0.1960  2.0300  1.0130
  165DOPC   C2419980   5.348   1.878   6.268  0.4899  0.0712  0.0829
  165DOPC   H4R19981   5.449   1.924   6.261  1.2186 -0.8584  3.0301
  165DOPC   H4S19982   5.277   1.929   6.336  0.9714 -0.4672  1.0134
  165DOPC   C2519983   5.289   1.865   6.127 -0.6122 -0.2094  0.3850
  165DOPC   H5R19984   5.186   1.825   6.137 -0.4785 -0.3743  1.1612
  165DOPC   H5S19985   5.343   1.797   6.058 -0.2101 -0.5519  1.0217
  165DOPC   C2619986   5.270   2.004   6.066 -0.3490  0.4161  0.0361
  165DOPC   H6R19987   5.372   2.048   6.061  0.2661 -1.0594 -3.2535
  165DOPC   H6S19988   5.203   2.065   6.130 -1.2698 -1.3257  0.7951
  165DOPC   C2719989   5.220   2.005   5.926 -0.2199 -0.4775  0.1986
  165DOPC   H7R19990   5.186   2.109   5.911 -1.2330 -0.9455 -0.9637
  165DOPC   H7S19991   5.133   1.936   5.927 -1.4218  0.9519 -1.1950
  165DOPC   C2819992   5.309   1.951   5.815  0.1328  0.5515 -0.3810
  165DOPC   H8R19993   5.249   1.919   5.727  0.8465  0.4664 -0.8449
  165DOPC   H8S19994   5.362   1.862   5.855  0.5630  1.5768  1.4381
  165DOPC   C2919995   5.396   2.067   5.769 -0.1688 -0.0244  0.4089
  165DOPC   H9R19996   5.487   2.100   5.821  0.2061 -0.2707 -0.0844
  165DOPC  C21019997   5.381   2.133   5.654 -0.6099 -0.1724  0.3886
  165DOPC  H10R19998   5.458   2.204   5.621 -0.4059 -1.2219 -1.5796
  165DOPC  C21119999   5.268   2.105   5.559 -0.3840 -0.8635  0.2150
  165DOPC  H11R20000   5.177   2.096   5.622 -1.3681 -0.3637 -1.0981
  165DOPC  H11S20001   5.276   2.008   5.506 -0.7721 -0.5239 -0.4713
  165DOPC  C21220002   5.247   2.214   5.456 -1.3192 -0.7018 -0.0487
  165DOPC  H12R20003   5.200   2.302   5.503  0.1809  0.1251 -0.0349
  165DOPC  H12S20004   5.170   2.181   5.382 -1.9491  0.2441  0.1668
  165DOPC  C21320005   5.365   2.243   5.368 -0.7779 -0.0528  0.5307
  165DOPC  H13R20006   5.391   2.145   5.321 -0.2656  0.5852 -0.5432
  165DOPC  H13S20007   5.452   2.275   5.429  0.2037 -1.2283 -0.2005
  165DOPC  C21420008   5.323   2.331   5.252  0.3332  0.0969  0.7323
  165DOPC  H14R20009   5.287   2.430   5.287  1.0450  0.7997 -0.4721
  165DOPC  H14S20010   5.229   2.290   5.209  0.6687 -1.1832  1.1947
  165DOPC  C21520011   5.429   2.343   5.145  0.7048 -0.2590  0.5051
  165DOPC  H15R20012   5.509   2.266   5.150 -0.0751 -1.0471  0.8958
  165DOPC  H15S20013   5.479   2.441   5.162 -0.6836  0.1791  2.3795
  165DOPC  C21620014   5.368   2.321   5.005  0.0553 -0.4219  0.8412
  165DOPC  H16R20015   5.291   2.398   4.985  0.2177 -0.4317  0.1337
  165DOPC  H16S20016   5.320   2.221   4.999  0.2603 -0.4476 -1.3788
  165DOPC  C21720017   5.488   2.321   4.902 -0.5992  0.2033 -0.6065
  165DOPC  H17R20018   5.566   2.252   4.940  0.1501  1.3465  0.0011
  165DOPC  H17S20019   5.535   2.421   4.917  1.3480 -0.6380 -0.8231
  165DOPC  C21820020   5.463   2.311   4.756 -0.1426 -0.2656 -0.1484
  165DOPC  H18R20021   5.384   2.377   4.714  1.1858 -0.4334 -3.1901
  165DOPC  H18S20022   5.445   2.207   4.721  1.3669 -0.5227 -0.2375
  165DOPC  H18T20023   5.557   2.338   4.703 -0.4154 -1.2536 -1.1725
  165DOPC   C3320024   5.407   1.392   6.036  0.0488 -0.8849  0.2661
  165DOPC   H3X20025   5.492   1.437   6.092 -2.0754  1.0304  2.1435
  165DOPC   H3Y20026   5.353   1.467   5.975 -2.3411 -1.3556  1.7092
  165DOPC   C3420027   5.473   1.288   5.944  0.8667 -0.2401 -0.5167
  165DOPC   H4X20028   5.530   1.226   6.017  1.0143  0.3193 -0.1553
  165DOPC   H4Y20029   5.555   1.338   5.888  1.6222  0.7134  1.3593
  165DOPC   C3520030   5.377   1.223   5.854 -0.6240 -0.3965 -0.0949
  165DOPC   H5X20031   5.304   1.300   5.822 -0.8295 -0.4543  0.2314
  165DOPC   H5Y20032   5.323   1.147   5.915  0.2848  1.2276  2.9774
  165DOPC   C3620033   5.427   1.154   5.725 -0.2362  0.6828  0.3562
  165DOPC   H6X20034   5.487   1.063   5.748  1.1954  1.3921 -0.3982
  165DOPC   H6Y20035   5.339   1.125   5.664  1.3636 -1.7656 -0.9397
  165DOPC   C3720036   5.509   1.239   5.633  0.1060 -0.1146  0.2715
  165DOPC   H7X20037   5.607   1.260   5.679  0.2591 -1.1844  0.4543
  165DOPC   H7Y20038   5.452   1.333   5.616  0.3015 -0.0997 -0.3075
  165DOPC   C3820039   5.545   1.185   5.488  0.3716 -0.2973 -0.2119
  165DOPC   H8X20040   5.600   1.088   5.494  0.5205 -0.1676  0.5981
  165DOPC   H8Y20041   5.611   1.263   5.446 -0.1822 -0.1931 -0.8983
  165DOPC   C3920042   5.426   1.148   5.404  0.4696  0.1340  0.0993
  165DOPC   H9X20043   5.361   1.069   5.445  1.7682 -1.4426 -0.7624
  165DOPC  C31020044   5.400   1.185   5.278 -0.1325 -0.3290 -0.2087
  165DOPC  H10X20045   5.329   1.134   5.212 -0.2110  1.2335 -1.3969
  165DOPC  C31120046   5.483   1.294   5.207  0.0849  0.2022 -0.6387
  165DOPC  H11X20047   5.587   1.255   5.210 -0.1609 -0.4213  1.7804
  165DOPC  H11Y20048   5.491   1.391   5.260  1.5373 -0.2086 -0.0415
  165DOPC  C31220049   5.431   1.312   5.068 -0.2935 -0.6882  0.0906
  165DOPC  H12X20050   5.341   1.375   5.054  0.7075  0.8848  0.4455
  165DOPC  H12Y20051   5.409   1.215   5.018 -0.5615 -0.6610  0.1563
  165DOPC  C31320052   5.537   1.383   4.977  0.4618 -0.2718 -1.0771
  165DOPC  H13X20053   5.549   1.482   5.025 -0.3512 -1.4616  1.8319
  165DOPC  H13Y20054   5.634   1.329   4.988  0.7386  0.3127 -0.6322
  165DOPC  C31420055   5.503   1.406   4.827  0.7757  0.5411 -0.2894
  165DOPC  H14X20056   5.405   1.457   4.824  0.4817  0.0358  0.2729
  165DOPC  H14Y20057   5.583   1.466   4.779  0.8948  0.1845 -0.5399
  165DOPC  C31520058   5.486   1.271   4.752 -0.4155  0.2302  0.6161
  165DOPC  H15X20059   5.421   1.204   4.811  0.0347  0.7617  1.7457
  165DOPC  H15Y20060   5.587   1.224   4.751 -0.5758 -0.1254  1.0317
  165DOPC  C31620061   5.437   1.284   4.606  0.4426  0.3386  0.2688
  165DOPC  H16X20062   5.343   1.343   4.611 -0.6337 -1.3851  2.2127
  165DOPC  H16Y20063   5.508   1.346   4.547 -0.3115  0.6821 -0.3023
  165DOPC  C31720064   5.416   1.153   4.530  0.6354 -0.1175  0.3179
  165DOPC  H17X20065   5.515   1.103   4.522 -0.3323 -2.2502  0.8775
  165DOPC  H17Y20066   5.347   1.090   4.590  1.5095 -1.1821  0.2311
  165DOPC  C31820067   5.378   1.162   4.383  0.2353  0.0144 -0.0232
  165DOPC  H18X20068   5.356   1.062   4.339  0.7360  0.0141 -0.2838
  165DOPC  H18Y20069   5.284   1.222   4.385  0.2120 -0.0404  0.9528
  165DOPC  H18Z20070   5.453   1.220   4.326 -0.2220  0.2614 -0.3876
  166DOPC     N20071   7.130   0.787   7.237  0.4805  0.0432  0.1674
  166DOPC   C1220072   7.088   0.898   7.143  0.2498 -0.2695 -0.3576
  166DOPC  H12A20073   7.143   0.981   7.183 -0.1451  0.0834 -0.5387
  166DOPC  H12B20074   6.981   0.906   7.158  0.1145 -1.8670 -0.2936
  166DOPC   C1320075   7.061   0.655   7.199  0.1562 -0.1702 -0.1963
  166DOPC  H13A20076   7.095   0.627   7.101  1.2837  2.4354 -0.6277
  166DOPC  H13B20077   7.073   0.577   7.273 -1.9830  1.0235  1.5179
  166DOPC  H13C20078   6.953   0.665   7.197 -0.0443 -1.3913  1.5299
  166DOPC   C1420079   7.091   0.813   7.377 -0.3206  0.3472 -0.4674
  166DOPC  H14A20080   6.985   0.792   7.377 -0.2146 -0.2408 -1.5515
  166DOPC  H14B20081   7.153   0.751   7.439  0.7895  1.1564 -0.7464
  166DOPC  H14C20082   7.106   0.916   7.408 -2.2080  0.0851  1.5752
  166DOPC   C1520083   7.272   0.770   7.234  0.3985  0.1247 -0.3090
  166DOPC  H15A20084   7.317   0.694   7.296  1.9598 -0.2602 -1.8544
  166DOPC  H15B20085   7.310   0.865   7.269 -1.3441  1.7116 -2.4043
  166DOPC  H15C20086   7.308   0.759   7.133  0.3507  0.2637 -0.3420
  166DOPC   C1120087   7.119   0.899   6.990 -0.1613  0.0472  0.1750
  166DOPC  H11A20088   7.084   0.798   6.961  0.2943 -0.0698  0.0369
  166DOPC  H11B20089   7.052   0.970   6.936 -0.1174  1.2189  1.5838
  166DOPC     P20090   7.314   1.064   6.944 -0.2765 -0.1162 -0.2363
  166DOPC   O1320091   7.463   1.048   6.959 -0.2911 -0.0189 -0.1949
  166DOPC   O1420092   7.254   1.160   7.038  0.7321 -0.6906  0.2390
  166DOPC   O1220093   7.255   0.912   6.951 -0.2305  0.1998 -0.1175
  166DOPC   O1120094   7.273   1.108   6.794  0.5718 -0.2881 -0.1484
  166DOPC    C120095   7.314   1.037   6.674 -0.5481  0.6460  0.8783
  166DOPC    HA20096   7.240   0.955   6.660  0.6527 -0.2947 -0.2028
  166DOPC    HB20097   7.413   0.988   6.685 -1.3460 -1.6500 -1.2471
  166DOPC    C220098   7.308   1.123   6.541  0.1469 -0.7321 -0.0987
  166DOPC    HS20099   7.405   1.177   6.537 -1.0548  1.5846  0.5681
  166DOPC   O2120100   7.190   1.194   6.529  0.3332  0.0489  0.1614
  166DOPC   C2120101   7.194   1.317   6.581  0.0154 -0.2347 -0.0384
  166DOPC   O2220102   7.296   1.383   6.601  0.1590 -0.2047  0.5316
  166DOPC   C2220103   7.050   1.369   6.598  0.3626 -0.0076  0.5201
  166DOPC   H2R20104   7.044   1.402   6.704  1.3550 -0.7425  0.8222
  166DOPC   H2S20105   6.984   1.281   6.585  1.0055 -0.4493  0.1805
  166DOPC    C320106   7.302   1.028   6.412 -0.1383  0.0998 -0.1339
  166DOPC    HX20107   7.310   1.091   6.320  0.4277 -1.3161 -1.0845
  166DOPC    HY20108   7.203   0.977   6.412 -0.2855  0.3001  2.1799
  166DOPC   O3120109   7.409   0.932   6.407  0.2774  0.2596  0.1274
  166DOPC   C3120110   7.528   0.985   6.359  0.2714  0.7117 -0.1887
  166DOPC   O3220111   7.550   1.102   6.341 -0.0973  0.2271 -0.8447
  166DOPC   C3220112   7.621   0.866   6.327  0.2774 -0.9217 -0.1179
  166DOPC   H2X20113   7.696   0.880   6.407 -1.5178  3.2560  1.1102
  166DOPC   H2Y20114   7.568   0.768   6.336  1.3730 -1.9235 -3.3084
  166DOPC   C2320115   7.022   1.487   6.501  0.5366  0.0534 -0.1697
  166DOPC   H3R20116   7.113   1.545   6.476 -0.7375  2.1704 -0.1822
  166DOPC   H3S20117   6.962   1.560   6.560  1.4496  1.5690 -1.0430
  166DOPC   C2420118   6.935   1.446   6.375 -0.3673 -0.0893 -0.2023
  166DOPC   H4R20119   6.921   1.535   6.310 -0.4279 -0.0695 -0.1623
  166DOPC   H4S20120   6.831   1.419   6.402 -0.3968  0.9898  0.8605
  166DOPC   C2520121   6.989   1.333   6.289  0.3916 -0.6079 -0.9387
  166DOPC   H5R20122   7.096   1.309   6.305  0.4430 -0.2591 -0.7542
  166DOPC   H5S20123   6.994   1.385   6.190  0.4559 -0.6946 -0.9813
  166DOPC   C2620124   6.896   1.213   6.280  0.2036 -0.5176 -0.5213
  166DOPC   H6R20125   6.887   1.178   6.385 -2.7198  1.4217 -0.0098
  166DOPC   H6S20126   6.936   1.130   6.217  0.0311  0.2569 -1.6913
  166DOPC   C2720127   6.755   1.239   6.215  0.0763 -0.1031 -0.0848
  166DOPC   H7R20128   6.760   1.282   6.112  1.9547 -1.4803 -0.6217
  166DOPC   H7S20129   6.692   1.311   6.271  0.0890 -2.1656  2.7830
  166DOPC   C2820130   6.671   1.108   6.220 -0.8799  1.0978  0.6540
  166DOPC   H8R20131   6.636   1.096   6.326  0.0009  2.5144  1.1238
  166DOPC   H8S20132   6.737   1.022   6.194 -2.6156 -0.4218  1.0145
  166DOPC   C2920133   6.557   1.110   6.119 -0.3484  1.2053  0.2023
  166DOPC   H9R20134   6.471   1.167   6.155 -1.5475 -0.6440  0.4078
  166DOPC  C21020135   6.563   1.084   5.987  0.1246 -0.2765 -0.2882
  166DOPC  H10R20136   6.471   1.088   5.926  0.2658  0.5600 -0.4517
  166DOPC  C21120137   6.684   1.045   5.903  0.1031 -0.3119  0.4343
  166DOPC  H11R20138   6.668   0.950   5.848 -0.0409  0.1277 -0.3065
  166DOPC  H11S20139   6.777   1.027   5.961 -0.0372 -1.2017  0.3928
  166DOPC  C21220140   6.724   1.147   5.790 -0.5461  0.5237 -0.4927
  166DOPC  H12R20141   6.633   1.151   5.727 -2.5728  0.7015  2.2725
  166DOPC  H12S20142   6.808   1.104   5.730 -0.0943 -0.2349  0.6486
  166DOPC  C21320143   6.764   1.283   5.832 -0.6941 -0.3750 -0.4999
  166DOPC  H13R20144   6.863   1.264   5.879 -0.7816 -0.2716 -0.2691
  166DOPC  H13S20145   6.691   1.329   5.903  1.0337  1.3245  0.2956
  166DOPC  C21420146   6.790   1.373   5.710 -0.4079 -0.1558  0.0249
  166DOPC  H14R20147   6.697   1.417   5.669 -0.0119  1.5525  0.8687
  166DOPC  H14S20148   6.832   1.306   5.632  0.2862 -2.0132  1.9058
  166DOPC  C21520149   6.901   1.473   5.732 -0.6311  0.0953  0.1495
  166DOPC  H15R20150   6.943   1.523   5.643 -0.5099  1.7740  1.1100
  166DOPC  H15S20151   6.992   1.416   5.761 -0.3540 -0.6304 -1.9701
  166DOPC  C21620152   6.850   1.570   5.841 -0.5059 -0.3129 -0.2239
  166DOPC  H16R20153   6.841   1.516   5.938 -1.0345 -0.2491 -0.2388
  166DOPC  H16S20154   6.756   1.624   5.820 -0.3557 -0.3788 -1.0793
  166DOPC  C21720155   6.962   1.673   5.859  0.3321 -1.0183  0.8420
  166DOPC  H17R20156   6.980   1.718   5.759 -2.1007  0.1361  0.8556
  166DOPC  H17S20157   7.057   1.630   5.898  0.8800 -0.8496 -0.2587
  166DOPC  C21820158   6.925   1.790   5.949  0.3842 -0.5458  0.1552
  166DOPC  H18R20159   6.817   1.817   5.945  0.5021 -0.0571  0.2200
  166DOPC  H18S20160   6.977   1.882   5.916 -1.9324  0.6778 -0.3356
  166DOPC  H18T20161   6.952   1.773   6.055  0.4687  2.0719  0.6115
  166DOPC   C3320162   7.687   0.886   6.189 -0.1474 -0.2684 -1.3631
  166DOPC   H3X20163   7.779   0.827   6.174 -0.2212 -0.9750  0.6549
  166DOPC   H3Y20164   7.710   0.992   6.164 -0.6351  0.7605  2.0015
  166DOPC   C3420165   7.584   0.843   6.084 -0.4013  0.2254 -0.2372
  166DOPC   H4X20166   7.518   0.762   6.120  0.5285 -0.4605 -0.0610
  166DOPC   H4Y20167   7.629   0.803   5.991  0.0377 -0.8757  0.4361
  166DOPC   C3520168   7.496   0.959   6.036 -0.3698 -0.0874 -0.0411
  166DOPC   H5X20169   7.544   1.047   5.988 -1.1249  1.4642  1.8924
  166DOPC   H5Y20170   7.443   0.997   6.127  0.0224 -0.8374  0.5168
  166DOPC   C3620171   7.396   0.919   5.930  0.1521  0.5342 -0.1153
  166DOPC   H6X20172   7.451   0.903   5.835  0.0941  1.2110 -0.2657
  166DOPC   H6Y20173   7.348   0.828   5.973 -0.8869  1.1633  0.0973
  166DOPC   C3720174   7.292   1.031   5.910  0.0290 -0.2793 -1.1080
  166DOPC   H7X20175   7.249   1.039   6.011 -0.3381 -0.0595 -1.2797
  166DOPC   H7Y20176   7.349   1.124   5.887  1.3991 -1.4349 -2.7096
  166DOPC   C3820177   7.175   1.012   5.815 -0.2442  0.5442  0.1116
  166DOPC   H8X20178   7.217   1.018   5.712 -1.4339  0.6588 -0.3914
  166DOPC   H8Y20179   7.108   1.100   5.828  0.3646  0.6522  3.3127
  166DOPC   C3920180   7.085   0.898   5.843 -0.5592 -0.5008  0.3383
  166DOPC   H9X20181   7.091   0.860   5.947 -0.4668 -1.4480 -0.0031
  166DOPC  C31020182   7.003   0.844   5.749 -0.0813  0.1958  1.0498
  166DOPC  H10X20183   6.937   0.760   5.779  0.0920 -1.0514 -1.7459
  166DOPC  C31120184   6.994   0.906   5.613  0.7466  0.4374 -0.1784
  166DOPC  H11X20185   7.075   0.863   5.552  2.5686  1.4066  1.4443
  166DOPC  H11Y20186   7.025   1.012   5.603  0.3979  0.5004 -0.6408
  166DOPC  C31220187   6.852   0.903   5.555 -0.6219 -0.1233  0.9242
  166DOPC  H12X20188   6.875   0.905   5.446 -0.3072  0.8992  0.9902
  166DOPC  H12Y20189   6.801   0.999   5.577  0.5133  1.1825 -1.6179
  166DOPC  C31320190   6.772   0.777   5.568 -0.2971  0.6142 -0.3027
  166DOPC  H13X20191   6.835   0.693   5.533  0.0301  0.0816  1.4701
  166DOPC  H13Y20192   6.744   0.761   5.674 -1.2097  0.9381 -0.4827
  166DOPC  C31420193   6.640   0.794   5.486 -0.2416  0.0717  0.0799
  166DOPC  H14X20194   6.594   0.890   5.519  0.3676  1.0012 -1.6604
  166DOPC  H14Y20195   6.672   0.805   5.381  0.4106  0.5358  0.3150
  166DOPC  C31520196   6.530   0.680   5.506 -0.9499 -0.1535 -0.3469
  166DOPC  H15X20197   6.524   0.663   5.616 -0.1148  4.7421  0.6913
  166DOPC  H15Y20198   6.582   0.593   5.463  1.5008  2.2924 -2.6818
  166DOPC  C31620199   6.397   0.700   5.432 -0.0218  0.3924  0.3619
  166DOPC  H16X20200   6.347   0.601   5.438  3.2028 -1.7896 -3.4974
  166DOPC  H16Y20201   6.328   0.775   5.477 -2.1043 -1.1832 -0.0477
  166DOPC  C31720202   6.405   0.733   5.283  0.2623 -0.3123  0.9644
  166DOPC  H17X20203   6.471   0.822   5.283  0.2105 -0.2176  2.9833
  166DOPC  H17Y20204   6.453   0.653   5.223 -1.4123 -1.5410  1.1638
  166DOPC  C31820205   6.272   0.769   5.216  0.6547  0.6939  0.4353
  166DOPC  H18X20206   6.215   0.836   5.284 -0.1573  0.3179  0.1305
  166DOPC  H18Y20207   6.295   0.827   5.124 -0.5414  1.2291  0.4539
  166DOPC  H18Z20208   6.208   0.685   5.184  1.5634 -0.0583  0.5381
  167DOPC     N20209   6.049   0.962   7.313  0.6507 -0.1935 -0.3111
  167DOPC   C1220210   6.145   1.072   7.274  0.0667  0.5749  0.5684
  167DOPC  H12A20211   6.171   1.136   7.357 -0.2232  0.5089  0.7113
  167DOPC  H12B20212   6.102   1.127   7.193  1.5437  2.2086  0.8368
  167DOPC   C1320213   5.926   1.018   7.378 -0.5424 -0.0859  0.3100
  167DOPC  H13A20214   5.964   1.074   7.462  1.0804 -0.6133 -0.0359
  167DOPC  H13B20215   5.870   1.089   7.319 -0.7061  1.2782  2.0301
  167DOPC  H13C20216   5.858   0.941   7.411  2.0461 -2.1613  1.1131
  167DOPC   C1420217   6.114   0.875   7.417  0.8037  0.2350  0.0207
  167DOPC  H14A20218   6.148   0.929   7.504 -1.2025 -2.4218  2.6469
  167DOPC  H14B20219   6.049   0.794   7.444  1.7921 -0.2839  0.9409
  167DOPC  H14C20220   6.206   0.834   7.377 -0.5078 -0.7055 -2.1805
  167DOPC   C1520221   5.993   0.890   7.197 -0.3601 -0.3550 -0.0546
  167DOPC  H15A20222   6.074   0.844   7.142  0.9668  0.7913  0.8673
  167DOPC  H15B20223   5.950   0.957   7.124 -1.6364 -0.1478  0.8579
  167DOPC  H15C20224   5.917   0.818   7.224 -1.9706  1.9006  1.7582
  167DOPC   C1120225   6.288   1.030   7.219  0.6661  0.3522 -0.2983
  167DOPC  H11A20226   6.315   1.127   7.172 -2.2216  0.5846 -1.7039
  167DOPC  H11B20227   6.356   1.013   7.305 -0.6077 -0.1850  0.6469
  167DOPC     P20228   6.388   0.807   7.128 -0.2030 -0.3783  0.0915
  167DOPC   O1320229   6.389   0.759   7.265 -0.0100  0.2405 -0.6621
  167DOPC   O1420230   6.518   0.854   7.066 -0.5611  0.0968  0.0627
  167DOPC   O1220231   6.279   0.927   7.123 -0.5237  0.1366 -0.0519
  167DOPC   O1120232   6.327   0.705   7.026 -0.0090  0.3577 -0.8256
  167DOPC    C120233   6.282   0.757   6.902 -0.3192  0.4481  0.6723
  167DOPC    HA20234   6.363   0.795   6.837 -1.9838  0.7614 -1.3351
  167DOPC    HB20235   6.213   0.842   6.923 -1.4736 -0.4266  0.5347
  167DOPC    C220236   6.198   0.652   6.826 -0.1380 -0.6249 -0.5138
  167DOPC    HS20237   6.140   0.604   6.907  3.0852 -2.3979  0.9230
  167DOPC   O2120238   6.292   0.554   6.781  0.0566 -0.0813 -0.1137
  167DOPC   C2120239   6.240   0.434   6.747  0.5283 -0.6309 -0.7376
  167DOPC   O2220240   6.132   0.393   6.775 -0.2075 -0.0510 -0.2639
  167DOPC   C2220241   6.361   0.371   6.676  0.1161  0.4585 -0.0567
  167DOPC   H2R20242   6.356   0.262   6.696  0.2828  0.3541 -0.5562
  167DOPC   H2S20243   6.454   0.406   6.727  0.7875 -1.9813  0.5019
  167DOPC    C320244   6.117   0.714   6.708 -0.5735 -0.4898 -0.2392
  167DOPC    HX20245   6.036   0.783   6.740  1.4022  1.2945  1.1787
  167DOPC    HY20246   6.069   0.631   6.652  1.5812  0.9258 -4.5525
  167DOPC   O3120247   6.210   0.783   6.616  0.6540  0.0290 -0.4326
  167DOPC   C3120248   6.143   0.817   6.507 -0.1684 -0.0198 -0.6982
  167DOPC   O3220249   6.021   0.808   6.481  0.5742 -0.1695  0.2943
  167DOPC   C3220250   6.245   0.884   6.411 -0.2117 -0.2447 -0.4053
  167DOPC   H2X20251   6.205   0.988   6.399 -0.1812 -0.2170 -0.2665
  167DOPC   H2Y20252   6.339   0.893   6.469  0.0114 -0.6667 -0.6988
  167DOPC   C2320253   6.358   0.391   6.521  0.9696 -0.1233  0.2220
  167DOPC   H3R20254   6.395   0.493   6.497 -0.7234  0.5175  0.2114
  167DOPC   H3S20255   6.250   0.383   6.498  0.7060  2.6280  0.1662
  167DOPC   C2420256   6.435   0.283   6.444  0.0799 -0.3209 -0.4520
  167DOPC   H4R20257   6.416   0.303   6.337 -1.9807  1.6166  0.2085
  167DOPC   H4S20258   6.399   0.186   6.485  0.7211  0.2410  1.5824
  167DOPC   C2520259   6.579   0.310   6.470  0.1992 -0.5572  0.7342
  167DOPC   H5R20260   6.606   0.330   6.576 -1.0552  0.0223  0.9702
  167DOPC   H5S20261   6.596   0.408   6.420 -3.7168 -0.3712 -0.5988
  167DOPC   C2620262   6.679   0.215   6.406  0.1988 -0.4142 -0.3976
  167DOPC   H6R20263   6.629   0.160   6.324  0.5606  0.9443 -1.5750
  167DOPC   H6S20264   6.718   0.137   6.474 -0.6778 -0.5112  0.0077
  167DOPC   C2720265   6.799   0.291   6.349  0.0334 -0.1816  0.6891
  167DOPC   H7R20266   6.869   0.325   6.428  1.3374 -2.3444  0.5553
  167DOPC   H7S20267   6.763   0.379   6.292  1.4215 -0.3401 -0.4978
  167DOPC   C2820268   6.870   0.207   6.243  0.2056 -0.0544  0.4345
  167DOPC   H8R20269   6.953   0.271   6.205 -0.8395  0.5151 -1.0090
  167DOPC   H8S20270   6.796   0.201   6.160 -1.3050  1.3169  1.6041
  167DOPC   C2920271   6.916   0.070   6.284  0.2801 -0.2090 -0.1470
  167DOPC   H9R20272   6.839  -0.007   6.298 -0.7298  0.4804 -1.7074
  167DOPC  C21020273   7.040   0.032   6.280 -0.9687  0.4999  0.5293
  167DOPC  H10R20274   7.065  -0.063   6.328 -0.6996  1.1321  1.6715
  167DOPC  C21120275   7.163   0.105   6.230 -0.2072  0.1967 -0.4286
  167DOPC  H11R20276   7.244   0.098   6.306  0.2419 -0.4020 -0.9455
  167DOPC  H11S20277   7.145   0.213   6.211  0.8771  0.1983 -1.5923
  167DOPC  C21220278   7.206   0.058   6.088 -0.1627  0.4995  0.1594
  167DOPC  H12R20279   7.287   0.118   6.042 -0.2898 -1.0111 -2.1806
  167DOPC  H12S20280   7.245  -0.045   6.096 -0.4931  0.4244  0.9534
  167DOPC  C21320281   7.101   0.070   5.979 -0.5943 -0.8318  0.0798
  167DOPC  H13R20282   7.143   0.121   5.890  1.3492 -0.1665  1.3189
  167DOPC  H13S20283   7.018   0.136   6.010  0.9525  2.2832 -1.9104
  167DOPC  C21420284   7.052  -0.065   5.928 -0.6277 -0.3411  0.0210
  167DOPC  H14R20285   6.990  -0.122   6.000 -1.0389  1.6478  1.3141
  167DOPC  H14S20286   7.143  -0.125   5.907  0.8444  1.8873 -0.2798
  167DOPC  C21520287   6.963  -0.063   5.800  0.4287 -0.1536 -0.6045
  167DOPC  H15R20288   6.862  -0.030   5.831 -0.0161 -2.6231  0.8906
  167DOPC  H15S20289   6.950  -0.169   5.768  0.0431  0.2691 -1.8820
  167DOPC  C21620290   7.019   0.012   5.676  0.3818  0.2006  0.0184
  167DOPC  H16R20291   7.123  -0.026   5.669  0.8292  1.1805  1.0188
  167DOPC  H16S20292   7.015   0.119   5.707 -1.3062 -0.2772  1.6464
  167DOPC  C21720293   6.943  -0.005   5.541  0.3658  0.0058  0.2003
  167DOPC  H17R20294   6.854   0.062   5.540 -0.0057 -0.4548  1.1986
  167DOPC  H17S20295   6.903  -0.108   5.526 -2.1167  1.0447 -0.8421
  167DOPC  C21820296   7.029   0.028   5.418 -0.4612 -0.2605  0.1246
  167DOPC  H18R20297   7.116  -0.040   5.410 -1.6473 -1.6784 -1.4760
  167DOPC  H18S20298   7.069   0.132   5.423  0.6956 -0.7170  0.8010
  167DOPC  H18T20299   6.976   0.007   5.322 -2.0212  0.8601  0.6923
  167DOPC   C3320300   6.270   0.804   6.282  0.3113 -0.1742  0.3366
  167DOPC   H3X20301   6.289   0.700   6.316  0.6484 -0.2799 -0.1607
  167DOPC   H3Y20302   6.357   0.839   6.222 -0.2139 -1.9065 -1.5907
  167DOPC   C3420303   6.141   0.799   6.191  0.6197  0.0681  0.5549
  167DOPC   H4X20304   6.060   0.748   6.249  0.2441  1.6287  1.4634
  167DOPC   H4Y20305   6.169   0.741   6.100  3.9228  2.6661 -0.2613
  167DOPC   C3520306   6.101   0.946   6.156  0.8862 -0.3235 -0.1015
  167DOPC   H5X20307   6.196   1.004   6.144  0.5715 -0.1286 -2.0974
  167DOPC   H5Y20308   6.039   0.991   6.236  3.0092  0.2769  1.2924
  167DOPC   C3620309   6.030   0.959   6.021 -0.4485 -0.4343  0.2405
  167DOPC   H6X20310   6.102   0.970   5.938  1.5731 -1.0333  1.8419
  167DOPC   H6Y20311   5.964   0.871   6.007 -2.7432  0.8633  1.9257
  167DOPC   C3720312   5.927   1.081   6.013  0.1537 -0.0121 -0.6857
  167DOPC   H7X20313   5.828   1.078   6.061  0.2679 -0.4481 -0.4777
  167DOPC   H7Y20314   5.981   1.155   6.076 -0.8196 -1.7984  2.4210
  167DOPC   C3820315   5.925   1.145   5.869  0.1315  0.5573  0.3871
  167DOPC   H8X20316   6.026   1.140   5.823 -1.0497  0.4055 -2.3726
  167DOPC   H8Y20317   5.908   1.255   5.879  1.0365  1.1684 -3.3116
  167DOPC   C3920318   5.829   1.074   5.775 -0.3197  0.3866 -0.7988
  167DOPC   H9X20319   5.726   1.112   5.787 -1.1705 -2.4318  2.6341
  167DOPC  C31020320   5.860   0.982   5.684 -0.0172  0.3021 -0.4395
  167DOPC  H10X20321   5.778   0.964   5.614 -1.2162 -0.6171  1.1221
  167DOPC  C31120322   5.992   0.924   5.646  0.0346  0.6145  0.7517
  167DOPC  H11X20323   5.991   0.821   5.687 -1.1083  0.0141 -0.7077
  167DOPC  H11Y20324   6.085   0.964   5.693  1.7924 -2.3098  0.0340
  167DOPC  C31220325   6.007   0.913   5.495 -0.1180 -0.1442  0.2445
  167DOPC  H12X20326   6.068   0.823   5.473  0.3815  0.4931 -1.1309
  167DOPC  H12Y20327   6.054   1.000   5.445  0.4474 -0.5001  0.1518
  167DOPC  C31320328   5.878   0.892   5.414  0.1847 -0.2601 -0.6252
  167DOPC  H13X20329   5.816   0.816   5.467 -0.1016 -0.7519 -1.6285
  167DOPC  H13Y20330   5.815   0.983   5.412  0.3313 -0.1634 -2.8752
  167DOPC  C31420331   5.911   0.855   5.272  0.3121 -0.5296  0.4909
  167DOPC  H14X20332   5.968   0.943   5.236 -2.9135  0.9037 -1.5674
  167DOPC  H14Y20333   5.986   0.773   5.271  0.7640 -0.1184 -0.6228
  167DOPC  C31520334   5.786   0.831   5.177  0.6803 -0.4426  0.6583
  167DOPC  H15X20335   5.709   0.767   5.225  1.4410 -1.4240  0.6055
  167DOPC  H15Y20336   5.816   0.786   5.080  2.0714  2.3933 -0.3106
  167DOPC  C31620337   5.715   0.969   5.141 -0.0743 -0.1114  0.2230
  167DOPC  H16X20338   5.663   1.000   5.234  2.0532  0.2725  1.3239
  167DOPC  H16Y20339   5.789   1.051   5.125  0.0223  0.3530  2.7260
  167DOPC  C31720340   5.616   0.963   5.022  0.0262  0.2341 -0.0780
  167DOPC  H17X20341   5.566   1.061   5.011 -1.5195 -0.4498  0.4972
  167DOPC  H17Y20342   5.674   0.944   4.929  0.3320 -1.2338  0.3753
  167DOPC  C31820343   5.496   0.863   5.030 -0.3005 -0.3694 -0.3516
  167DOPC  H18X20344   5.520   0.757   5.010 -0.6725 -0.2784 -1.3225
  167DOPC  H18Y20345   5.458   0.870   5.134  0.5574 -4.4166  0.3937
  167DOPC  H18Z20346   5.413   0.886   4.960 -1.3414 -1.0221  0.6400
  168DOPC     N20347   1.808   6.792   7.266  0.2368  0.1487  0.0160
  168DOPC   C1220348   1.771   6.759   7.124 -0.2782 -1.2840  0.5574
  168DOPC  H12A20349   1.857   6.722   7.070  0.6341  1.8189 -0.2798
  168DOPC  H12B20350   1.730   6.847   7.078 -0.0818 -0.9719  0.9748
  168DOPC   C1320351   1.926   6.888   7.264 -0.1917  0.0129 -0.8002
  168DOPC  H13A20352   1.894   6.985   7.229  1.8577  1.6959  1.5996
  168DOPC  H13B20353   1.966   6.903   7.363  2.0915 -1.4641 -1.4225
  168DOPC  H13C20354   2.009   6.860   7.201  0.4133  0.7601 -0.3521
  168DOPC   C1420355   1.868   6.682   7.331 -0.2163  0.3262 -0.3829
  168DOPC  H14A20356   1.897   6.709   7.431 -0.2157  2.1067 -0.8252
  168DOPC  H14B20357   1.800   6.602   7.356  1.6359 -0.3888  2.9613
  168DOPC  H14C20358   1.957   6.647   7.280  0.1458 -0.5311  0.7990
  168DOPC   C1520359   1.686   6.844   7.337  0.6541 -0.5041  0.0634
  168DOPC  H15A20360   1.640   6.921   7.278  2.0837  0.2650 -0.0913
  168DOPC  H15B20361   1.702   6.867   7.442 -0.6348 -0.9083  0.3713
  168DOPC  H15C20362   1.614   6.764   7.340 -0.6177  0.5752 -0.8992
  168DOPC   C1120363   1.663   6.644   7.106  0.0323  0.1578 -0.6013
  168DOPC  H11A20364   1.579   6.667   7.174 -0.5071 -2.9409 -0.0605
  168DOPC  H11B20365   1.631   6.641   6.999  2.4622  0.6011 -1.4088
  168DOPC     P20366   1.804   6.436   7.045  0.4592 -0.1895  0.2635
  168DOPC   O1320367   1.856   6.317   7.110  0.3172  0.4026  0.1976
  168DOPC   O1420368   1.906   6.532   6.992 -0.3363  0.4396 -0.1115
  168DOPC   O1220369   1.711   6.514   7.149  0.3765  0.0293 -0.2059
  168DOPC   O1120370   1.706   6.407   6.934 -0.0444 -0.1090 -0.1145
  168DOPC    C120371   1.571   6.356   6.935 -0.2742 -0.3424 -0.6321
  168DOPC    HA20372   1.505   6.424   6.992 -0.9913  0.0771 -1.9188
  168DOPC    HB20373   1.559   6.252   6.973 -1.9622  0.3716  0.9139
  168DOPC    C220374   1.526   6.350   6.786  0.1582 -0.0854  0.0851
  168DOPC    HS20375   1.429   6.300   6.766 -1.8038  2.9692  1.1413
  168DOPC   O2120376   1.631   6.294   6.701 -0.7977  0.5135  0.5876
  168DOPC   C2120377   1.637   6.159   6.721  0.2505 -0.2189  0.1642
  168DOPC   O2220378   1.566   6.098   6.797  0.8654  0.1879  0.2596
  168DOPC   C2220379   1.748   6.095   6.629  0.1301 -0.3172 -0.1374
  168DOPC   H2R20380   1.797   6.019   6.694 -2.9648 -0.2867  2.5105
  168DOPC   H2S20381   1.828   6.168   6.604  0.7503 -1.0839 -0.4230
  168DOPC    C320382   1.513   6.487   6.710 -0.6110  0.2328 -0.5001
  168DOPC    HX20383   1.610   6.540   6.718 -0.2995 -0.4323  0.1981
  168DOPC    HY20384   1.449   6.558   6.766  1.1633  2.3877 -1.0658
  168DOPC   O3120385   1.457   6.463   6.576  0.5480 -0.2985 -0.0362
  168DOPC   C3120386   1.414   6.565   6.509 -0.0219  0.2296  0.1525
  168DOPC   O3220387   1.411   6.681   6.540 -0.6928  0.1039  0.2138
  168DOPC   C3220388   1.368   6.506   6.371  0.5092  0.1142 -0.4428
  168DOPC   H2X20389   1.458   6.458   6.328  0.3792 -0.1811 -0.3885
  168DOPC   H2Y20390   1.295   6.430   6.409  0.9271 -0.5206 -0.8935
  168DOPC   C2320391   1.681   6.040   6.499 -1.0674 -0.5494  0.1040
  168DOPC   H3R20392   1.590   5.980   6.521 -1.1356 -0.0389  1.2709
  168DOPC   H3S20393   1.749   5.971   6.443 -3.2123 -1.5700 -1.3931
  168DOPC   C2420394   1.637   6.155   6.403 -0.5778  0.6599 -0.6243
  168DOPC   H4R20395   1.730   6.208   6.373  0.5286 -2.4529 -3.1941
  168DOPC   H4S20396   1.567   6.212   6.468  0.3892 -0.2538  1.3016
  168DOPC   C2520397   1.559   6.111   6.283 -0.0636 -0.7120 -0.3764
  168DOPC   H5R20398   1.526   6.203   6.229 -2.6503 -0.9296  0.7130
  168DOPC   H5S20399   1.470   6.052   6.312  0.7482 -1.4155  0.7368
  168DOPC   C2620400   1.641   6.029   6.188 -0.6194  0.4887 -0.0423
  168DOPC   H6R20401   1.710   5.957   6.237  1.6292  1.1938 -2.0303
  168DOPC   H6S20402   1.722   6.084   6.138 -1.4463  0.2620 -1.6957
  168DOPC   C2720403   1.550   5.957   6.090 -0.3496 -0.3402 -0.1807
  168DOPC   H7R20404   1.490   5.883   6.147 -0.6558 -1.1091 -1.4516
  168DOPC   H7S20405   1.610   5.888   6.026 -1.5758  0.1165 -1.9013
  168DOPC   C2820406   1.461   6.045   6.002  0.3151 -0.0718  0.0499
  168DOPC   H8R20407   1.387   6.090   6.072  0.5692  0.4686 -0.0245
  168DOPC   H8S20408   1.408   5.972   5.938 -0.6848  0.2269  0.5109
  168DOPC   C2920409   1.537   6.152   5.936  0.3236  0.3841  0.3894
  168DOPC   H9R20410   1.608   6.201   6.005 -0.9817  1.0962  1.2530
  168DOPC  C21020411   1.537   6.208   5.817  0.6742 -0.0667 -0.3187
  168DOPC  H10R20412   1.605   6.291   5.794 -0.5036  1.1103  0.3173
  168DOPC  C21120413   1.448   6.170   5.707  0.3888 -0.6454 -0.0928
  168DOPC  H11R20414   1.401   6.070   5.716  0.7166 -0.9402 -1.3923
  168DOPC  H11S20415   1.520   6.159   5.624 -0.9679 -2.1669 -1.1345
  168DOPC  C21220416   1.342   6.281   5.684  0.2230  0.1687  0.2681
  168DOPC  H12R20417   1.386   6.381   5.667  0.2141  0.0831 -0.2684
  168DOPC  H12S20418   1.288   6.285   5.781  1.4989 -2.4811  1.1877
  168DOPC  C21320419   1.246   6.252   5.566  0.0554  0.4321 -0.2187
  168DOPC  H13R20420   1.187   6.161   5.590  1.0137  0.0824  0.9208
  168DOPC  H13S20421   1.322   6.226   5.490 -0.9819  1.9900 -1.8820
  168DOPC  C21420422   1.164   6.370   5.510  0.5024 -0.1797 -0.1659
  168DOPC  H14R20423   1.235   6.455   5.498 -1.5528  1.4286 -1.7923
  168DOPC  H14S20424   1.095   6.408   5.587 -0.8462  1.0668 -1.9063
  168DOPC  C21520425   1.096   6.345   5.372 -0.0061 -0.3883 -0.1738
  168DOPC  H15R20426   1.172   6.293   5.309  0.5397 -3.0231  2.4211
  168DOPC  H15S20427   1.071   6.436   5.313  0.3832 -1.8879 -2.8180
  168DOPC  C21620428   0.974   6.257   5.380  0.4887  0.1256 -0.4292
  168DOPC  H16R20429   1.000   6.191   5.465 -0.8764  0.0038 -0.0879
  168DOPC  H16S20430   0.956   6.193   5.291  0.2549  0.6312 -0.7484
  168DOPC  C21720431   0.842   6.335   5.408 -1.2653  0.4071  0.3755
  168DOPC  H17R20432   0.818   6.398   5.320  0.8834 -2.0715 -2.1640
  168DOPC  H17S20433   0.856   6.402   5.495  1.1499  1.0320 -0.4240
  168DOPC  C21820434   0.717   6.249   5.430 -0.3392  0.3765 -0.2613
  168DOPC  H18R20435   0.716   6.191   5.525 -0.8997 -1.7302 -1.4971
  168DOPC  H18S20436   0.702   6.172   5.351 -0.4638 -0.7411  0.8130
  168DOPC  H18T20437   0.629   6.315   5.443 -1.2439 -1.1189  1.8483
  168DOPC   C3320438   1.317   6.615   6.277 -0.1588  0.0149  0.7469
  168DOPC   H3X20439   1.389   6.699   6.273 -0.0812 -0.0642  0.5137
  168DOPC   H3Y20440   1.216   6.629   6.321 -0.1998  0.9684  0.3632
  168DOPC   C3420441   1.281   6.566   6.132  0.5391  0.1314 -0.0721
  168DOPC   H4X20442   1.207   6.485   6.150 -0.1420  0.7296 -0.1178
  168DOPC   H4Y20443   1.365   6.524   6.073  0.6792 -0.0531  0.2567
  168DOPC   C3520444   1.202   6.671   6.053 -0.0738  0.1327 -0.6600
  168DOPC   H5X20445   1.265   6.762   6.056  0.2437 -0.0456 -1.6922
  168DOPC   H5Y20446   1.111   6.698   6.111 -0.2184 -0.2411 -0.7069
  168DOPC   C3620447   1.167   6.618   5.921  0.1982 -0.1938 -0.2877
  168DOPC   H6X20448   1.248   6.576   5.857 -0.2052 -1.1385 -0.2052
  168DOPC   H6Y20449   1.098   6.533   5.940 -1.3595  1.0317 -0.3409
  168DOPC   C3720450   1.088   6.726   5.845  0.2366 -0.1787 -0.1310
  168DOPC   H7X20451   1.047   6.798   5.919  0.0776  0.7249 -1.0911
  168DOPC   H7Y20452   1.164   6.772   5.779  1.6951  0.0152  1.6063
  168DOPC   C3820453   0.977   6.682   5.746  0.1611 -0.6276 -0.2822
  168DOPC   H8X20454   0.893   6.655   5.814  0.5526  1.9090  1.3348
  168DOPC   H8Y20455   1.010   6.595   5.684  1.1333  0.0571 -0.7458
  168DOPC   C3920456   0.923   6.800   5.674 -0.4199 -0.4914  0.0908
  168DOPC   H9X20457   0.884   6.884   5.733 -0.2662 -0.5591  0.2906
  168DOPC  C31020458   0.921   6.816   5.538  0.0512  0.3695  0.3592
  168DOPC  H10X20459   0.872   6.899   5.484  2.3759  0.3765 -1.9311
  168DOPC  C31120460   0.974   6.709   5.441 -0.7315  0.0381  0.2399
  168DOPC  H11X20461   0.951   6.605   5.472  0.2326 -0.4681 -0.6650
  168DOPC  H11Y20462   1.084   6.718   5.427 -0.5316 -2.9893 -0.7636
  168DOPC  C31220463   0.902   6.714   5.307  0.4721  0.3727  0.4757
  168DOPC  H12X20464   0.792   6.711   5.321  0.3582 -0.2960 -0.5054
  168DOPC  H12Y20465   0.928   6.618   5.258  1.1750  0.5643  0.4670
  168DOPC  C31320466   0.943   6.829   5.216 -0.5162  0.2921 -0.6192
  168DOPC  H13X20467   0.896   6.924   5.248 -0.2249  0.1100  0.3822
  168DOPC  H13Y20468   1.053   6.842   5.217 -0.8212  3.4734  0.0604
  168DOPC  C31420469   0.901   6.789   5.075  1.6169  0.1968  0.2949
  168DOPC  H14X20470   0.958   6.696   5.054  2.7570  0.0625  3.4514
  168DOPC  H14Y20471   0.791   6.778   5.072  1.3913  2.0530  0.1910
  168DOPC  C31520472   0.934   6.888   4.963  0.2173  0.1764 -0.4413
  168DOPC  H15X20473   0.924   6.838   4.864  1.7804 -0.8664 -0.1069
  168DOPC  H15Y20474   1.042   6.909   4.971  0.3584 -1.0330  1.1494
  168DOPC  C31620475   0.856   7.018   4.964  0.0240 -0.0743 -0.0861
  168DOPC  H16X20476   0.853   7.060   5.067 -1.8660  0.6771 -0.4103
  168DOPC  H16Y20477   0.924   7.084   4.907 -0.5278 -0.4058 -1.1397
  168DOPC  C31720478   0.717   7.015   4.906  0.5450 -0.1051  1.0953
  168DOPC  H17X20479   0.709   6.955   4.813  3.5936 -0.9231  1.2753
  168DOPC  H17Y20480   0.641   6.964   4.969 -1.7256 -2.3819 -3.0423
  168DOPC  C31820481   0.667   7.151   4.863  0.6999 -0.8032  0.3327
  168DOPC  H18X20482   0.666   7.225   4.946 -1.9384  0.2033 -0.4717
  168DOPC  H18Y20483   0.736   7.195   4.788  1.3884  0.9186  1.8898
  168DOPC  H18Z20484   0.570   7.152   4.809  1.5744  0.0328 -1.2744
  169DOPC     N20485   1.187   0.779   6.664 -0.5954  0.1699  0.1759
  169DOPC   C1220486   1.062   0.789   6.589  0.3087 -0.3104  0.4475
  169DOPC  H12A20487   1.060   0.715   6.510 -0.2956  1.4712 -1.2852
  169DOPC  H12B20488   1.063   0.885   6.541 -1.1387 -0.4677  0.0299
  169DOPC   C1320489   1.184   0.672   6.768  0.4845 -0.0253 -0.2170
  169DOPC  H13A20490   1.283   0.643   6.801  0.5794  2.9237  2.5367
  169DOPC  H13B20491   1.126   0.693   6.856  0.8554 -2.0375  0.5655
  169DOPC  H13C20492   1.142   0.582   6.725  0.5807  0.3923 -1.2208
  169DOPC   C1420493   1.214   0.908   6.730  0.1831  0.6671  0.3329
  169DOPC  H14A20494   1.222   0.987   6.656 -0.4719  0.3783 -0.0497
  169DOPC  H14B20495   1.146   0.944   6.805 -0.5718  1.2114 -0.5797
  169DOPC  H14C20496   1.313   0.904   6.774 -0.3974 -2.8288  1.5951
  169DOPC   C1520497   1.298   0.747   6.576  0.4117 -0.1913  0.3129
  169DOPC  H15A20498   1.282   0.649   6.533 -2.5525 -0.0971  1.0334
  169DOPC  H15B20499   1.393   0.752   6.628  1.7183  0.8846 -1.9900
  169DOPC  H15C20500   1.304   0.807   6.486 -4.8795  1.0983  0.4955
  169DOPC   C1120501   0.932   0.785   6.675  0.0955 -1.0010 -0.2567
  169DOPC  H11A20502   0.944   0.841   6.770  0.3770 -0.9933 -0.2966
  169DOPC  H11B20503   0.855   0.846   6.622  1.3435  0.6527 -0.2161
  169DOPC     P20504   0.744   0.650   6.770  0.1542  0.3568 -0.1410
  169DOPC   O1320505   0.705   0.771   6.848 -0.3622  0.5833  0.3189
  169DOPC   O1420506   0.733   0.522   6.844 -0.2811 -0.4099  0.6247
  169DOPC   O1220507   0.885   0.654   6.712 -0.0273  0.0153 -0.0671
  169DOPC   O1120508   0.662   0.655   6.641  0.5312  0.3849 -0.4354
  169DOPC    C120509   0.653   0.553   6.551 -0.8486  0.2819 -0.1334
  169DOPC    HA20510   0.554   0.503   6.546 -1.3656  1.2643  0.0457
  169DOPC    HB20511   0.730   0.477   6.579 -0.3543  1.5327  2.0674
  169DOPC    C220512   0.710   0.598   6.415 -0.6837  0.6023 -0.5668
  169DOPC    HS20513   0.808   0.640   6.445 -0.7569  1.5301 -1.5711
  169DOPC   O2120514   0.626   0.701   6.362 -0.0801  0.2125  0.6658
  169DOPC   C2120515   0.689   0.811   6.342 -0.7217  0.4051  0.1113
  169DOPC   O2220516   0.809   0.831   6.339  0.3550 -0.2613  0.0165
  169DOPC   C2220517   0.584   0.915   6.308  0.0176  0.3661  1.3164
  169DOPC   H2R20518   0.638   1.012   6.312  0.7104  0.1873 -1.6013
  169DOPC   H2S20519   0.503   0.918   6.384 -1.1508 -0.8909  0.1753
  169DOPC    C320520   0.736   0.483   6.311 -0.7157 -0.8170 -0.4622
  169DOPC    HX20521   0.643   0.429   6.287 -0.0490 -1.8060 -0.8726
  169DOPC    HY20522   0.809   0.415   6.360  0.5680  0.8896  0.1312
  169DOPC   O3120523   0.780   0.528   6.185 -0.1424  0.4685 -0.2396
  169DOPC   C3120524   0.908   0.533   6.159  0.9569 -0.4946  0.5851
  169DOPC   O3220525   0.997   0.520   6.237 -0.4551 -0.3205 -0.0612
  169DOPC   C3220526   0.916   0.574   6.008 -0.7758 -0.2277  0.2266
  169DOPC   H2X20527   0.885   0.680   5.997  0.3206 -0.0155 -1.2080
  169DOPC   H2Y20528   1.024   0.572   5.982 -0.4448 -0.9315  1.5351
  169DOPC   C2320529   0.530   0.901   6.162 -0.1493  0.3930 -0.8508
  169DOPC   H3R20530   0.470   0.991   6.138  1.4919  2.4095  1.9631
  169DOPC   H3S20531   0.471   0.807   6.155 -1.1061  0.9624 -0.6559
  169DOPC   C2420532   0.643   0.882   6.052  0.8820 -0.5859  0.7654
  169DOPC   H4R20533   0.691   0.782   6.050  0.7002 -0.7475 -2.8217
  169DOPC   H4S20534   0.727   0.954   6.059 -0.0165  0.9580 -2.5078
  169DOPC   C2520535   0.595   0.904   5.909  0.4732 -0.2589 -0.3271
  169DOPC   H5R20536   0.565   1.010   5.902  0.5340 -0.2943 -1.1864
  169DOPC   H5S20537   0.511   0.832   5.897 -0.0083  0.0869  0.8545
  169DOPC   C2620538   0.685   0.859   5.803 -0.5827  0.1776  0.5218
  169DOPC   H6R20539   0.702   0.750   5.803 -1.4893  0.0231  1.1902
  169DOPC   H6S20540   0.780   0.914   5.821 -0.2521 -0.0405 -0.4966
  169DOPC   C2720541   0.647   0.907   5.662 -0.9813  0.1715 -0.2979
  169DOPC   H7R20542   0.749   0.900   5.618 -0.7922  0.3052  0.1088
  169DOPC   H7S20543   0.628   1.015   5.644 -0.0216  0.0631 -2.3357
  169DOPC   C2820544   0.555   0.822   5.582  0.2846  0.2050 -0.4593
  169DOPC   H8R20545   0.464   0.796   5.642  1.3863  0.2666  1.3062
  169DOPC   H8S20546   0.614   0.728   5.578 -0.5684 -0.3612 -0.0691
  169DOPC   C2920547   0.515   0.862   5.443 -0.6220  0.0959 -0.0255
  169DOPC   H9R20548   0.416   0.910   5.435 -1.0310 -0.6519  0.4288
  169DOPC  C21020549   0.577   0.825   5.330 -0.6685 -0.8599  0.2846
  169DOPC  H10R20550   0.531   0.853   5.234  1.1649  0.1886 -0.3329
  169DOPC  C21120551   0.702   0.744   5.303  0.6375 -0.1383 -0.3994
  169DOPC  H11R20552   0.663   0.652   5.254 -0.2909  1.1568 -2.2449
  169DOPC  H11S20553   0.743   0.714   5.402  2.1599 -0.2068 -1.0227
  169DOPC  C21220554   0.818   0.810   5.219 -0.0149 -0.0417 -1.1507
  169DOPC  H12R20555   0.893   0.743   5.173  1.4538  0.2131  0.7370
  169DOPC  H12S20556   0.870   0.870   5.297 -1.3214  0.1860 -0.4202
  169DOPC  C21320557   0.775   0.886   5.095  0.2366  0.9394 -0.3744
  169DOPC  H13R20558   0.705   0.967   5.127 -0.7583 -0.0765  0.0967
  169DOPC  H13S20559   0.718   0.816   5.030 -0.4605  1.0986  0.0450
  169DOPC  C21420560   0.892   0.947   5.017 -0.7705 -0.1442  0.8516
  169DOPC  H14R20561   0.971   0.872   4.991  1.7426  2.2532  1.0616
  169DOPC  H14S20562   0.933   1.019   5.091 -1.3054 -0.9153  1.9281
  169DOPC  C21520563   0.842   1.032   4.890 -0.2265 -0.2879 -0.0679
  169DOPC  H15R20564   0.764   1.101   4.927  0.8146  1.0403 -0.2716
  169DOPC  H15S20565   0.806   0.965   4.810 -0.5224  0.2313 -0.3736
  169DOPC  C21620566   0.960   1.099   4.830 -0.3375 -0.2626  1.0516
  169DOPC  H16R20567   1.033   1.017   4.813  0.8688  0.5919  1.9262
  169DOPC  H16S20568   1.005   1.168   4.905 -1.5655  4.0170 -1.7586
  169DOPC  C21720569   0.923   1.177   4.699 -0.1390 -0.6661 -0.2465
  169DOPC  H17R20570   0.828   1.231   4.717 -1.0722 -1.2565 -2.9642
  169DOPC  H17S20571   0.892   1.101   4.624 -2.9657  1.1569 -1.0819
  169DOPC  C21820572   1.035   1.266   4.645  0.1922 -0.6734  0.2747
  169DOPC  H18R20573   0.996   1.317   4.554 -0.0847  2.4237  1.9705
  169DOPC  H18S20574   1.135   1.225   4.619 -0.2962 -0.8666 -1.4854
  169DOPC  H18T20575   1.051   1.350   4.716 -0.6486 -0.5974  0.3860
  169DOPC   C3320576   0.830   0.502   5.905 -0.3140  0.3205 -0.1084
  169DOPC   H3X20577   0.726   0.539   5.917 -0.6140 -0.9003  1.3732
  169DOPC   H3Y20578   0.820   0.397   5.940  0.3787 -0.7086 -2.7925
  169DOPC   C3420579   0.876   0.516   5.756 -0.1505 -0.6847  0.0323
  169DOPC   H4X20580   0.986   0.499   5.751 -0.1195 -0.9709  1.3908
  169DOPC   H4Y20581   0.847   0.617   5.719 -1.1131 -0.8439  0.3195
  169DOPC   C3520582   0.818   0.405   5.660  0.2743 -0.2369 -0.0826
  169DOPC   H5X20583   0.709   0.423   5.649  0.3369  0.2271  0.0477
  169DOPC   H5Y20584   0.838   0.306   5.706 -1.5535  0.4844  2.5245
  169DOPC   C3620585   0.882   0.413   5.523  0.0373 -0.0541  0.6500
  169DOPC   H6X20586   0.864   0.514   5.482  0.3821  0.3322  1.4330
  169DOPC   H6Y20587   0.990   0.420   5.548 -0.1317  0.0921  1.3638
  169DOPC   C3720588   0.837   0.308   5.422  0.2320 -0.0346 -0.0315
  169DOPC   H7X20589   0.892   0.319   5.327  1.9228 -4.2189  0.2276
  169DOPC   H7Y20590   0.869   0.204   5.449  1.4958 -0.4016 -2.6814
  169DOPC   C3820591   0.681   0.315   5.386 -0.7778 -0.2323  0.4133
  169DOPC   H8X20592   0.670   0.423   5.362 -0.5927 -0.5832 -1.3151
  169DOPC   H8Y20593   0.618   0.314   5.478 -1.6213  0.2514 -0.1532
  169DOPC   C3920594   0.632   0.222   5.283  0.5662 -0.0659 -0.7341
  169DOPC   H9X20595   0.585   0.136   5.334 -1.9612  1.6994  0.1636
  169DOPC  C31020596   0.638   0.226   5.150  0.2449  0.0794 -0.6532
  169DOPC  H10X20597   0.593   0.145   5.090  0.3929  0.6596 -1.5636
  169DOPC  C31120598   0.707   0.340   5.080 -0.7512 -0.0652 -0.2269
  169DOPC  H11X20599   0.802   0.297   5.040 -0.4132 -0.6367  1.1372
  169DOPC  H11Y20600   0.725   0.430   5.144  0.7017 -0.0558 -0.6014
  169DOPC  C31220601   0.631   0.405   4.960  0.3994  0.0531  0.3810
  169DOPC  H12X20602   0.526   0.428   4.988 -0.5888 -0.7118 -2.3377
  169DOPC  H12Y20603   0.629   0.342   4.868 -0.5460  0.0878  0.3730
  169DOPC  C31320604   0.685   0.545   4.925 -0.3947  0.3275  1.0821
  169DOPC  H13X20605   0.634   0.617   4.994  0.3009 -0.5347  2.5322
  169DOPC  H13Y20606   0.796   0.547   4.924 -0.3133 -1.6679  1.8055
  169DOPC  C31420607   0.633   0.567   4.777 -0.1047 -0.2859 -0.6305
  169DOPC  H14X20608   0.683   0.487   4.717 -0.3936 -0.2217 -0.9615
  169DOPC  H14Y20609   0.525   0.555   4.751  0.0250 -0.1868 -1.2219
  169DOPC  C31520610   0.671   0.705   4.721  0.2670 -0.1631  0.3933
  169DOPC  H15X20611   0.775   0.716   4.758  0.5473 -0.7769 -0.1787
  169DOPC  H15Y20612   0.615   0.786   4.773  3.7979  1.6726  1.6138
  169DOPC  C31620613   0.667   0.712   4.563  0.4905  0.2706 -0.5253
  169DOPC  H16X20614   0.755   0.655   4.526 -0.5721  0.9053 -4.4661
  169DOPC  H16Y20615   0.581   0.647   4.534  1.6999 -1.7119  0.1356
  169DOPC  C31720616   0.670   0.850   4.501 -0.2676  0.2440  0.9841
  169DOPC  H17X20617   0.575   0.905   4.515  0.9966  2.3464  1.7517
  169DOPC  H17Y20618   0.740   0.907   4.567 -2.6347  2.8959  1.4000
  169DOPC  C31820619   0.715   0.855   4.349  0.0412 -0.5171  0.2681
  169DOPC  H18X20620   0.755   0.955   4.320  1.2788 -0.7891  0.9717
  169DOPC  H18Y20621   0.794   0.782   4.320 -1.5539 -1.0035 -3.4730
  169DOPC  H18Z20622   0.626   0.832   4.286  0.2917 -1.0754  0.1109
  170DOPC     N20623   5.538   7.407   7.139  0.1411 -0.4174  0.5364
  170DOPC   C1220624   5.600   7.398   7.001 -0.1637  0.2829  0.4073
  170DOPC  H12A20625   5.692   7.343   7.012 -0.9486 -1.2226 -0.2909
  170DOPC  H12B20626   5.633   7.498   6.978  3.5392 -0.6252  1.0632
  170DOPC   C1320627   5.402   7.454   7.122  0.0787 -0.1829  0.1184
  170DOPC  H13A20628   5.356   7.486   7.215 -0.5809  0.4853 -0.4244
  170DOPC  H13B20629   5.393   7.539   7.056  1.9037 -0.8020 -0.9688
  170DOPC  H13C20630   5.338   7.377   7.082  0.8857  0.5115 -2.6722
  170DOPC   C1420631   5.621   7.495   7.224  0.3389 -0.4047  0.0306
  170DOPC  H14A20632   5.639   7.583   7.165  2.2703 -1.3040 -0.8051
  170DOPC  H14B20633   5.582   7.520   7.322 -0.8198 -2.1712  0.0813
  170DOPC  H14C20634   5.719   7.451   7.233  0.7247  0.1089 -1.4682
  170DOPC   C1520635   5.530   7.278   7.207  0.3487 -0.0082 -0.1161
  170DOPC  H15A20636   5.486   7.202   7.144 -0.5381  0.5536 -0.1944
  170DOPC  H15B20637   5.464   7.302   7.289  1.1623  0.8357  0.3104
  170DOPC  H15C20638   5.629   7.245   7.235  0.0594 -0.7309  0.0826
  170DOPC   C1120639   5.521   7.337   6.884 -0.2252 -0.8052  0.5598
  170DOPC  H11A20640   5.422   7.387   6.877 -0.3594 -0.6522  2.7733
  170DOPC  H11B20641   5.573   7.370   6.792 -0.6163  1.0306  0.9593
  170DOPC     P20642   5.420   7.105   6.797  0.0463  0.3142 -0.1667
  170DOPC   O1320643   5.374   7.186   6.680 -0.3200  0.2023 -0.5829
  170DOPC   O1420644   5.320   7.035   6.881 -0.2990 -0.0538  0.2311
  170DOPC   O1220645   5.514   7.193   6.893 -0.4470 -0.4310 -0.0636
  170DOPC   O1120646   5.525   7.002   6.738  0.0869  0.0064  0.2497
  170DOPC    C120647   5.648   7.025   6.669  0.6104 -0.8222 -0.8357
  170DOPC    HA20648   5.704   6.931   6.658  1.6203 -0.5760  1.7596
  170DOPC    HB20649   5.709   7.087   6.737  0.7242 -1.3685 -0.4386
  170DOPC    C220650   5.639   7.090   6.527 -0.0351  0.2232 -0.2790
  170DOPC    HS20651   5.568   7.175   6.532 -0.4708 -0.1732  0.3710
  170DOPC   O2120652   5.583   6.985   6.442  0.1666  0.1899  0.4294
  170DOPC   C2120653   5.500   7.028   6.343 -0.2428  0.6753 -0.2932
  170DOPC   O2220654   5.474   7.143   6.325  0.6627 -0.5034  0.3645
  170DOPC   C2220655   5.448   6.910   6.265  0.2309  0.4518 -0.1473
  170DOPC   H2R20656   5.339   6.905   6.283  0.0576 -0.7706 -1.4239
  170DOPC   H2S20657   5.481   6.818   6.318 -0.2760  1.4200  1.9751
  170DOPC    C320658   5.779   7.145   6.481 -0.2812 -0.5741  0.0675
  170DOPC    HX20659   5.838   7.051   6.490  0.1303 -0.3511 -0.2870
  170DOPC    HY20660   5.818   7.221   6.552  3.9948 -0.5407 -1.9576
  170DOPC   O3120661   5.779   7.184   6.342 -0.1411  0.0307  0.9192
  170DOPC   C3120662   5.736   7.303   6.321  0.4850  0.0172  0.3427
  170DOPC   O3220663   5.697   7.379   6.408  0.0115  0.0158 -0.1545
  170DOPC   C3220664   5.740   7.330   6.172  0.4380 -0.1306 -0.2167
  170DOPC   H2X20665   5.641   7.376   6.151  0.4251  0.1804  0.4882
  170DOPC   H2Y20666   5.815   7.406   6.144  0.1530  0.6807  1.1169
  170DOPC   C2320667   5.475   6.894   6.109  0.3677 -0.0588  0.3419
  170DOPC   H3R20668   5.583   6.878   6.091 -0.0221 -1.4981 -1.0504
  170DOPC   H3S20669   5.452   6.990   6.059  1.0046 -1.1345 -2.2304
  170DOPC   C2420670   5.394   6.789   6.035 -0.1711 -0.6645  0.3108
  170DOPC   H4R20671   5.289   6.826   6.035 -0.7894 -2.3351 -0.3693
  170DOPC   H4S20672   5.399   6.698   6.099  0.7026  0.6901  2.2548
  170DOPC   C2520673   5.452   6.761   5.896  0.1093  0.1519 -0.3866
  170DOPC   H5R20674   5.563   6.761   5.906  0.1547  0.0273 -0.8902
  170DOPC   H5S20675   5.425   6.845   5.829 -2.3170  0.5058  0.9093
  170DOPC   C2620676   5.408   6.626   5.842  0.1415  0.9405  0.3879
  170DOPC   H6R20677   5.297   6.633   5.837  0.0617 -0.8948 -1.4612
  170DOPC   H6S20678   5.430   6.553   5.923  2.2000 -0.0991 -1.0295
  170DOPC   C2720679   5.465   6.583   5.703  0.0323  0.3347  0.0363
  170DOPC   H7R20680   5.575   6.575   5.714 -0.0760  0.4045  1.3337
  170DOPC   H7S20681   5.446   6.666   5.631 -1.4688 -0.3471 -0.3925
  170DOPC   C2820682   5.401   6.459   5.640  0.3410 -0.2275  0.5606
  170DOPC   H8R20683   5.290   6.452   5.643  0.4232 -1.8194  1.1473
  170DOPC   H8S20684   5.432   6.372   5.703 -0.4936  0.2900  1.7290
  170DOPC   C2920685   5.464   6.436   5.509 -1.0216  0.0895 -0.7107
  170DOPC   H9R20686   5.429   6.507   5.433 -0.1733  1.2302 -0.0567
  170DOPC  C21020687   5.561   6.346   5.484 -0.0553 -0.7086 -0.0388
  170DOPC  H10R20688   5.587   6.319   5.381 -1.3775 -1.7170 -0.1364
  170DOPC  C21120689   5.624   6.246   5.584  0.6217 -0.3904 -0.3670
  170DOPC  H11R20690   5.598   6.141   5.560 -2.3864  0.1850  0.0003
  170DOPC  H11S20691   5.607   6.260   5.693  1.5087  0.9281 -0.3712
  170DOPC  C21220692   5.776   6.260   5.572  0.2047  0.8505  0.5488
  170DOPC  H12R20693   5.826   6.194   5.647 -0.9354 -2.7318 -1.5938
  170DOPC  H12S20694   5.826   6.356   5.596  2.3431 -0.0820  0.1673
  170DOPC  C21320695   5.838   6.210   5.438 -0.0140  0.1841 -0.1223
  170DOPC  H13R20696   5.943   6.248   5.440  0.4882 -1.1244  1.9757
  170DOPC  H13S20697   5.792   6.255   5.348 -0.3030 -1.0483 -0.6175
  170DOPC  C21420698   5.845   6.059   5.425  0.0964  0.1962 -0.0217
  170DOPC  H14R20699   5.741   6.018   5.417 -0.8208  2.3876 -0.0394
  170DOPC  H14S20700   5.895   6.018   5.516 -0.0398  0.3050  0.1045
  170DOPC  C21520701   5.934   6.022   5.308  0.6224  0.3452  0.0981
  170DOPC  H15R20702   5.940   5.912   5.299 -0.2699  0.1843  1.2827
  170DOPC  H15S20703   6.035   6.064   5.329 -0.2628  3.2450 -0.9704
  170DOPC  C21620704   5.872   6.072   5.179  0.0382 -0.0437 -0.1129
  170DOPC  H16R20705   5.873   6.183   5.174  0.8001  0.0881  1.9404
  170DOPC  H16S20706   5.770   6.030   5.167 -0.7941  1.1419  2.1274
  170DOPC  C21720707   5.955   6.033   5.052  0.1415  0.1652 -0.2187
  170DOPC  H17R20708   5.957   5.923   5.037  0.0219 -0.2524  2.2745
  170DOPC  H17S20709   6.059   6.068   5.072 -0.8728  3.0503  0.4641
  170DOPC  C21820710   5.902   6.103   4.934  1.1383  0.0753  0.3454
  170DOPC  H18R20711   5.892   6.213   4.946  0.9740  0.0335  0.5914
  170DOPC  H18S20712   5.802   6.064   4.907  1.8468 -1.5513 -0.0303
  170DOPC  H18T20713   5.964   6.078   4.845 -2.6574  2.2331 -3.2876
  170DOPC   C3320714   5.775   7.207   6.084 -0.0324  0.3610  0.1914
  170DOPC   H3X20715   5.700   7.125   6.092 -0.6191  0.7395 -1.1707
  170DOPC   H3Y20716   5.878   7.179   6.114  0.6332  1.0419 -1.3346
  170DOPC   C3420717   5.773   7.237   5.931  0.3798  0.2661  0.2080
  170DOPC   H4X20718   5.835   7.328   5.921 -1.9035  1.9011  0.3699
  170DOPC   H4Y20719   5.667   7.249   5.900  0.7287  1.6243 -0.5206
  170DOPC   C3520720   5.832   7.115   5.860  0.1423 -0.4277  0.4861
  170DOPC   H5X20721   5.765   7.030   5.883  0.3173 -0.8916 -0.6331
  170DOPC   H5Y20722   5.929   7.087   5.907  1.2181  0.6450 -0.9968
  170DOPC   C3620723   5.847   7.134   5.705  0.5013  0.1550  0.3574
  170DOPC   H6X20724   5.904   7.228   5.691  0.7155 -0.0413 -0.0882
  170DOPC   H6Y20725   5.909   7.056   5.656 -0.0351  0.5029 -0.9130
  170DOPC   C3720726   5.720   7.132   5.620 -0.2339 -0.7666 -0.2445
  170DOPC   H7X20727   5.644   7.203   5.659  0.3416  0.9493 -2.0490
  170DOPC   H7Y20728   5.753   7.166   5.519  0.3640 -0.0108  0.1997
  170DOPC   C3820729   5.669   6.989   5.603 -0.3656  0.3319  0.8982
  170DOPC   H8X20730   5.637   6.946   5.700 -1.1282  1.8484  1.3654
  170DOPC   H8Y20731   5.753   6.926   5.569 -0.2908 -0.2354  2.0990
  170DOPC   C3920732   5.551   6.997   5.514  0.0560  0.3978  0.0188
  170DOPC   H9X20733   5.456   6.970   5.561  0.2636  1.8945  1.3851
  170DOPC  C31020734   5.550   6.999   5.383  0.3949 -0.7492 -0.3322
  170DOPC  H10X20735   5.454   6.989   5.329 -0.2421 -1.3732  0.8729
  170DOPC  C31120736   5.672   6.993   5.297 -0.0971  1.1020 -0.2210
  170DOPC  H11X20737   5.667   6.912   5.221  0.9290  1.4805 -0.7145
  170DOPC  H11Y20738   5.758   6.959   5.359 -0.8077 -3.3286 -1.2832
  170DOPC  C31220739   5.716   7.119   5.211  0.0428 -0.0018 -0.3786
  170DOPC  H12X20740   5.815   7.083   5.175  0.0748 -1.1718  0.8291
  170DOPC  H12Y20741   5.722   7.207   5.279 -1.3656 -1.8254  2.2427
  170DOPC  C31320742   5.613   7.135   5.098 -0.8695 -0.1616  0.1220
  170DOPC  H13X20743   5.567   7.041   5.060 -0.9966  0.1322 -0.4730
  170DOPC  H13Y20744   5.523   7.189   5.133 -0.1117  1.3221 -0.1340
  170DOPC  C31420745   5.676   7.202   4.973 -0.0627  0.1595 -0.3906
  170DOPC  H14X20746   5.742   7.125   4.929 -0.5899 -0.4310 -0.1706
  170DOPC  H14Y20747   5.594   7.235   4.905 -0.5909  0.5718  0.4191
  170DOPC  C31520748   5.766   7.318   5.007 -0.0442 -0.2061 -0.1055
  170DOPC  H15X20749   5.847   7.287   5.075  0.6699 -0.2653 -0.9651
  170DOPC  H15Y20750   5.710   7.386   5.075  1.3355  1.2005 -0.3119
  170DOPC  C31620751   5.819   7.407   4.891 -0.0114  0.6998  0.5294
  170DOPC  H16X20752   5.860   7.327   4.826  1.0723  0.8382  1.0144
  170DOPC  H16Y20753   5.736   7.455   4.835  0.1234  1.0780  0.6505
  170DOPC  C31720754   5.933   7.504   4.932  0.6876  0.5766 -0.0145
  170DOPC  H17X20755   5.897   7.586   4.997 -1.9401 -0.5619  0.1406
  170DOPC  H17Y20756   6.009   7.445   4.988  0.4145  1.7520  1.6792
  170DOPC  C31820757   6.002   7.547   4.809 -0.3754 -0.4268  0.3317
  170DOPC  H18X20758   5.929   7.623   4.772 -2.3376 -2.0563  0.6470
  170DOPC  H18Y20759   6.095   7.604   4.826 -1.8954  1.8604  1.5220
  170DOPC  H18Z20760   6.018   7.477   4.724  1.2353  2.4129 -1.8910
  171DOPC     N20761   4.200   3.680   2.717  0.0149  0.4493  0.9136
  171DOPC   C1220762   4.111   3.719   2.595  0.3861 -0.4825 -0.3080
  171DOPC  H12A20763   4.108   3.629   2.535 -0.7327 -2.2960  2.2937
  171DOPC  H12B20764   4.162   3.796   2.539  1.4613 -0.5281  0.5672
  171DOPC   C1320765   4.229   3.784   2.815  0.1842 -0.3324  0.0106
  171DOPC  H13A20766   4.141   3.820   2.866  0.7216 -0.8153  1.3374
  171DOPC  H13B20767   4.306   3.753   2.884  1.8962  1.3328 -1.0606
  171DOPC  H13C20768   4.260   3.874   2.764 -1.5445  0.4806  0.3128
  171DOPC   C1420769   4.331   3.639   2.669 -0.0289  0.4885 -0.2976
  171DOPC  H14A20770   4.397   3.607   2.748 -1.8599 -0.3301  0.9863
  171DOPC  H14B20771   4.324   3.556   2.600  0.8645 -0.1303  0.3255
  171DOPC  H14C20772   4.373   3.715   2.605  0.4064 -0.0586 -0.6669
  171DOPC   C1520773   4.151   3.556   2.783 -0.4249 -0.3519 -0.5928
  171DOPC  H15A20774   4.129   3.482   2.708 -0.5453 -0.7064 -0.2125
  171DOPC  H15B20775   4.055   3.570   2.831 -0.1244 -0.9547  0.2045
  171DOPC  H15C20776   4.216   3.513   2.857  0.9186  1.6647 -0.5301
  171DOPC   C1120777   3.972   3.764   2.623  0.8059 -0.7607 -0.6091
  171DOPC  H11A20778   3.968   3.868   2.662 -0.2596 -0.8536 -0.4342
  171DOPC  H11B20779   3.912   3.779   2.531  2.0412  2.1464 -1.0493
  171DOPC     P20780   3.820   3.739   2.836  0.1770 -0.0403  0.4124
  171DOPC   O1320781   3.674   3.766   2.818  0.6050  0.2677 -0.2812
  171DOPC   O1420782   3.901   3.852   2.895 -0.1266  0.3327  0.3298
  171DOPC   O1220783   3.889   3.681   2.702  0.3594 -0.2554 -0.0384
  171DOPC   O1120784   3.838   3.616   2.927  0.4629  0.3319  0.1128
  171DOPC    C120785   3.780   3.487   2.900 -0.1015 -0.9843  1.0212
  171DOPC    HA20786   3.831   3.439   2.813 -1.3797 -1.9287  0.7670
  171DOPC    HB20787   3.674   3.493   2.868  0.7187 -2.7841 -2.6893
  171DOPC    C220788   3.798   3.387   3.015 -0.1043 -0.2274 -0.4039
  171DOPC    HS20789   3.774   3.283   2.984  0.5310 -1.0788  1.7652
  171DOPC   O2120790   3.712   3.421   3.126 -0.1289  0.5279  0.4755
  171DOPC   C2120791   3.590   3.368   3.122 -0.0903  0.0546 -0.2896
  171DOPC   O2220792   3.555   3.290   3.040  0.6166 -0.7474  0.3203
  171DOPC   C2220793   3.494   3.414   3.239  0.3177 -0.7390 -0.4503
  171DOPC   H2R20794   3.417   3.475   3.186  0.2147 -2.5645 -2.4945
  171DOPC   H2S20795   3.566   3.475   3.297  1.5841 -1.3120 -1.3972
  171DOPC    C320796   3.943   3.386   3.068  0.3094  0.0704  0.3131
  171DOPC    HX20797   3.986   3.487   3.089  2.0886 -0.0570 -2.2481
  171DOPC    HY20798   4.006   3.360   2.980 -1.9035  0.5897 -1.5098
  171DOPC   O3120799   3.965   3.290   3.172  0.5856  0.5764 -0.4363
  171DOPC   C3120800   4.048   3.327   3.270 -0.3059  0.2899 -0.0325
  171DOPC   O3220801   4.088   3.440   3.289 -0.3394 -0.0174  0.1543
  171DOPC   C3220802   4.074   3.211   3.361 -0.2729  0.3832 -0.0690
  171DOPC   H2X20803   4.025   3.118   3.325 -0.9681  0.0577  1.6280
  171DOPC   H2Y20804   4.183   3.195   3.357 -0.6053 -1.8639 -1.8401
  171DOPC   C2320805   3.429   3.296   3.318  0.1792 -0.2772  0.0632
  171DOPC   H3R20806   3.415   3.209   3.251 -0.2052 -2.0548  2.3470
  171DOPC   H3S20807   3.324   3.324   3.342  0.3778 -0.3387  1.0653
  171DOPC   C2420808   3.498   3.268   3.453  0.4977 -0.8001 -0.5085
  171DOPC   H4R20809   3.505   3.368   3.500 -1.4728 -0.6524 -0.4273
  171DOPC   H4S20810   3.597   3.221   3.443  1.3739  0.7091  0.6086
  171DOPC   C2520811   3.408   3.178   3.533  0.5133 -0.0272 -0.4966
  171DOPC   H5R20812   3.377   3.091   3.471 -0.6036 -1.3043  1.7111
  171DOPC   H5S20813   3.316   3.233   3.563  0.0841 -0.1867 -1.5037
  171DOPC   C2620814   3.473   3.122   3.662  0.9973  0.2365 -0.9017
  171DOPC   H6R20815   3.477   3.209   3.731 -0.2277 -0.5735  0.2296
  171DOPC   H6S20816   3.574   3.080   3.644  1.0454  0.6750 -1.6776
  171DOPC   C2720817   3.375   3.016   3.718 -0.3752 -1.0077 -0.3170
  171DOPC   H7R20818   3.330   2.958   3.635  0.0054  1.0851 -2.1036
  171DOPC   H7S20819   3.288   3.064   3.769 -0.5790 -0.0414 -1.5193
  171DOPC   C2820820   3.444   2.922   3.809 -0.1131  0.3524 -0.2403
  171DOPC   H8R20821   3.523   2.867   3.753 -2.1473 -2.1875 -0.7768
  171DOPC   H8S20822   3.363   2.849   3.830 -1.2088  0.9084 -2.2153
  171DOPC   C2920823   3.489   2.975   3.943  0.0059 -0.0598  0.2862
  171DOPC   H9R20824   3.464   3.078   3.975 -1.4046  0.2930 -1.7251
  171DOPC  C21020825   3.544   2.898   4.035 -0.5807  0.0091 -0.2099
  171DOPC  H10R20826   3.571   2.943   4.131 -3.8211  1.6180  0.0786
  171DOPC  C21120827   3.568   2.747   4.018  0.6498 -0.4708  0.0806
  171DOPC  H11R20828   3.673   2.722   4.043  0.8980  1.1894  0.8448
  171DOPC  H11S20829   3.558   2.696   3.920  3.5689 -2.4944  0.7241
  171DOPC  C21220830   3.471   2.669   4.105 -0.0166  0.8713  0.1223
  171DOPC  H12R20831   3.365   2.674   4.074 -0.1251  1.7068  0.6096
  171DOPC  H12S20832   3.469   2.722   4.203 -1.2998  2.4309 -0.7121
  171DOPC  C21320833   3.511   2.521   4.126 -0.1134  0.5508  0.5294
  171DOPC  H13R20834   3.622   2.513   4.132 -0.1389  1.1170  3.7025
  171DOPC  H13S20835   3.464   2.462   4.045 -2.3003  0.9372  1.4524
  171DOPC  C21420836   3.457   2.452   4.250 -0.0303 -0.8939 -0.3758
  171DOPC  H14R20837   3.512   2.355   4.243  0.0372 -0.7516 -2.3118
  171DOPC  H14S20838   3.348   2.432   4.258 -0.2648 -0.1833 -1.5140
  171DOPC  C21520839   3.509   2.511   4.388 -0.2059  0.3767 -0.6904
  171DOPC  H15R20840   3.474   2.615   4.406  0.9649  0.6023  0.3877
  171DOPC  H15S20841   3.619   2.516   4.376 -0.0550 -1.5214 -0.4100
  171DOPC  C21620842   3.477   2.434   4.522  0.0917  0.3697  0.3540
  171DOPC  H16R20843   3.528   2.335   4.525 -1.4360 -0.4367  2.0210
  171DOPC  H16S20844   3.370   2.406   4.529  0.5474 -1.3444  1.0878
  171DOPC  C21720845   3.517   2.505   4.649  0.2121 -0.9348 -0.2830
  171DOPC  H17R20846   3.466   2.456   4.734 -1.2435 -0.9605 -1.1299
  171DOPC  H17S20847   3.470   2.605   4.635  0.3108 -0.9677 -0.9059
  171DOPC  C21820848   3.665   2.510   4.669 -1.1340 -0.2334 -0.6287
  171DOPC  H18R20849   3.701   2.406   4.685 -2.1513 -0.3825  0.9656
  171DOPC  H18S20850   3.697   2.562   4.762 -0.7713  1.0726 -1.4536
  171DOPC  H18T20851   3.710   2.560   4.581  0.7110  0.9072  0.8704
  171DOPC   C3320852   4.026   3.239   3.506  0.3525  0.5262  0.0107
  171DOPC   H3X20853   3.917   3.247   3.530  0.2936 -0.8578  0.3371
  171DOPC   H3Y20854   4.071   3.332   3.546 -0.7333  0.3012  1.8912
  171DOPC   C3420855   4.082   3.142   3.613  0.5157  0.1685  0.7519
  171DOPC   H4X20856   4.193   3.149   3.616  0.4215  2.5295  0.7776
  171DOPC   H4Y20857   4.056   3.038   3.584  0.6065  0.4960 -0.5596
  171DOPC   C3520858   4.040   3.186   3.751 -0.1521  0.1348 -0.0472
  171DOPC   H5X20859   3.941   3.235   3.746  0.2434  1.0635  0.8928
  171DOPC   H5Y20860   4.115   3.263   3.777  0.7977 -1.2563  1.5860
  171DOPC   C3620861   4.038   3.075   3.853 -0.5410 -0.0912  0.8962
  171DOPC   H6X20862   3.941   3.021   3.853 -0.9686  0.5024 -1.8781
  171DOPC   H6Y20863   4.115   3.002   3.820 -0.5330  0.7514 -1.1378
  171DOPC   C3720864   4.076   3.122   3.992 -0.1762  0.4397 -0.7060
  171DOPC   H7X20865   4.183   3.152   3.989 -0.2122  0.5042 -1.6814
  171DOPC   H7Y20866   4.016   3.213   4.014 -0.9893 -0.4938  1.1487
  171DOPC   C3820867   4.036   3.016   4.101  0.0660 -0.4020 -0.0098
  171DOPC   H8X20868   3.931   2.980   4.091  0.8386 -2.4670 -1.4849
  171DOPC   H8Y20869   4.020   3.083   4.188 -0.7917  1.5319 -1.5447
  171DOPC   C3920870   4.132   2.905   4.125  0.0301  0.5219 -0.0467
  171DOPC   H9X20871   4.235   2.915   4.088  0.0043  0.7685 -0.0544
  171DOPC  C31020872   4.086   2.794   4.186  0.2930  0.0534  0.0069
  171DOPC  H10X20873   4.157   2.711   4.205 -0.4026 -0.7108 -0.6484
  171DOPC  C31120874   3.951   2.761   4.240  0.0587 -0.8491 -0.3831
  171DOPC  H11X20875   3.931   2.653   4.257 -0.7808 -0.5141  1.0062
  171DOPC  H11Y20876   3.885   2.798   4.159  0.2733  4.4066  1.3908
  171DOPC  C31220877   3.896   2.835   4.364  0.1472 -0.6780 -0.0231
  171DOPC  H12X20878   3.947   2.933   4.366 -0.5500 -0.3002 -0.4470
  171DOPC  H12Y20879   3.936   2.783   4.453  1.1761  0.6645  0.3293
  171DOPC  C31320880   3.743   2.849   4.367 -0.2037 -0.1787  0.2340
  171DOPC  H13X20881   3.701   2.905   4.281 -1.9259 -3.3252 -1.1641
  171DOPC  H13Y20882   3.706   2.745   4.350 -1.3067 -0.1064  1.9273
  171DOPC  C31420883   3.684   2.909   4.497 -0.5983  1.1780  0.1192
  171DOPC  H14X20884   3.719   2.843   4.579  1.0502  2.7768  0.7621
  171DOPC  H14Y20885   3.735   3.006   4.518 -0.7154  1.1991  0.3085
  171DOPC  C31520886   3.534   2.921   4.508  0.7815  0.1042 -0.6369
  171DOPC  H15X20887   3.478   2.831   4.475  1.6903  0.0172 -2.0252
  171DOPC  H15Y20888   3.505   2.996   4.431  3.5311  1.0988 -0.7853
  171DOPC  C31620889   3.492   2.958   4.645  1.0826 -1.1483  0.2926
  171DOPC  H16X20890   3.527   2.887   4.722  3.6813 -0.9810 -0.6565
  171DOPC  H16Y20891   3.538   3.058   4.664 -1.8839  0.5166 -0.5859
  171DOPC  C31720892   3.342   2.989   4.661 -0.0726  0.1478  0.8616
  171DOPC  H17X20893   3.300   3.045   4.574 -0.2388 -2.0583 -0.5746
  171DOPC  H17Y20894   3.280   2.897   4.657 -0.6849  0.5841 -1.5838
  171DOPC  C31820895   3.303   3.072   4.792 -0.1832  0.4639 -0.0136
  171DOPC  H18X20896   3.366   3.163   4.800  1.1453 -0.1538 -2.3559
  171DOPC  H18Y20897   3.196   3.100   4.795 -0.1823  0.4043  0.5797
  171DOPC  H18Z20898   3.322   3.005   4.879 -4.7520  1.7153  2.2192
  172DOPC     N20899   3.375   5.016   2.991 -0.2373 -0.7217  0.6487
  172DOPC   C1220900   3.515   5.083   2.996  0.5309  0.3988 -0.3191
  172DOPC  H12A20901   3.528   5.115   3.098 -0.8725 -3.4043  1.2258
  172DOPC  H12B20902   3.508   5.169   2.931 -0.1079  0.9345  0.4396
  172DOPC   C1320903   3.274   5.129   3.012  0.0614  0.2245 -0.3672
  172DOPC  H13A20904   3.289   5.193   3.097 -1.0145 -0.0029  0.0175
  172DOPC  H13B20905   3.252   5.179   2.918 -0.4738  2.1605  0.7304
  172DOPC  H13C20906   3.181   5.087   3.047  1.3933 -0.7339  2.2373
  172DOPC   C1420907   3.357   4.926   3.104 -0.1687 -0.0668  0.3187
  172DOPC  H14A20908   3.375   4.984   3.193 -2.8959  2.8469 -0.8220
  172DOPC  H14B20909   3.255   4.895   3.116 -0.2736  0.1869  0.0876
  172DOPC  H14C20910   3.427   4.844   3.106  0.9145  0.8198  0.0294
  172DOPC   C1520911   3.344   4.939   2.857  0.7532 -0.0011 -0.5224
  172DOPC  H15A20912   3.251   4.886   2.869  0.3259  0.9559  0.7353
  172DOPC  H15B20913   3.418   4.865   2.831  0.5581 -0.8630  1.2325
  172DOPC  H15C20914   3.345   5.003   2.770 -1.7158 -1.1100 -1.4602
  172DOPC   C1120915   3.639   5.005   2.953  0.5248 -0.1443 -0.0039
  172DOPC  H11A20916   3.614   4.953   2.858 -2.8213  1.7742 -0.3157
  172DOPC  H11B20917   3.710   5.088   2.936 -0.1528  0.2782 -0.7948
  172DOPC     P20918   3.841   4.913   3.091  0.0433 -0.0763  0.2820
  172DOPC   O1320919   3.883   5.052   3.119  0.3762 -0.0968  0.4544
  172DOPC   O1420920   3.923   4.835   2.989  0.2488  0.0508 -0.2129
  172DOPC   O1220921   3.684   4.910   3.052  0.1270 -0.4479 -0.1717
  172DOPC   O1120922   3.854   4.827   3.223 -0.1922 -0.2118  0.1081
  172DOPC    C120923   3.738   4.777   3.288 -0.2238 -0.2843  0.2020
  172DOPC    HA20924   3.777   4.695   3.353 -2.0475 -2.7459 -1.5921
  172DOPC    HB20925   3.672   4.724   3.216 -0.1806  1.5793 -1.2807
  172DOPC    C220926   3.658   4.885   3.366 -0.0571 -0.8255  0.7411
  172DOPC    HS20927   3.623   4.963   3.295  0.4458 -1.0558  0.2352
  172DOPC   O2120928   3.754   4.951   3.455  0.3509  0.1252  0.2742
  172DOPC   C2120929   3.705   5.047   3.527  0.7080 -0.3631  0.1729
  172DOPC   O2220930   3.588   5.088   3.523 -0.3342 -0.7777 -0.2231
  172DOPC   C2220931   3.800   5.120   3.625 -0.2039 -0.2601 -0.3361
  172DOPC   H2R20932   3.752   5.209   3.671 -1.8251 -0.3162 -1.8278
  172DOPC   H2S20933   3.881   5.156   3.559 -1.8336  1.0195 -1.7304
  172DOPC    C320934   3.537   4.825   3.433  0.0444  0.3953 -0.0210
  172DOPC    HX20935   3.468   4.785   3.355  0.6840  1.0899 -0.9652
  172DOPC    HY20936   3.485   4.903   3.493 -0.6556  1.6980 -2.1967
  172DOPC   O3120937   3.585   4.725   3.525  0.4014 -0.0106 -0.0749
  172DOPC   C3120938   3.493   4.631   3.552  0.0161 -0.7932  0.2311
  172DOPC   O3220939   3.372   4.637   3.532 -0.5953  0.3511 -0.2096
  172DOPC   C3220940   3.556   4.512   3.628  0.3742  0.5397 -0.2939
  172DOPC   H2X20941   3.482   4.431   3.642  0.9150  0.3108  1.6004
  172DOPC   H2Y20942   3.634   4.472   3.560 -1.8166 -1.4127 -1.7821
  172DOPC   C2320943   3.852   5.027   3.728 -0.3233  0.0276 -0.2935
  172DOPC   H3R20944   3.935   5.074   3.785 -0.8230 -0.4804  0.9023
  172DOPC   H3S20945   3.891   4.932   3.685  1.0336  0.7010 -0.6014
  172DOPC   C2420946   3.745   5.006   3.833 -0.2371  0.3389 -0.6638
  172DOPC   H4R20947   3.656   4.962   3.784  0.5036 -2.1489  0.0592
  172DOPC   H4S20948   3.720   5.102   3.883 -1.5056 -1.1223  1.7009
  172DOPC   C2520949   3.790   4.919   3.947 -0.6572 -0.1227 -0.2232
  172DOPC   H5R20950   3.828   4.820   3.915 -2.2875 -0.6549 -0.5880
  172DOPC   H5S20951   3.703   4.886   4.008 -0.3790 -0.5149 -0.0273
  172DOPC   C2620952   3.893   4.987   4.037  0.1208  0.8281  0.4645
  172DOPC   H6R20953   3.844   5.077   4.079 -1.0133  0.9972 -1.1243
  172DOPC   H6S20954   3.985   5.029   3.989  0.8364 -0.5170  0.6221
  172DOPC   C2720955   3.932   4.894   4.154  1.0457  0.6282 -0.2358
  172DOPC   H7R20956   3.988   4.807   4.114 -0.6084 -0.3249 -0.5932
  172DOPC   H7S20957   3.839   4.850   4.195  1.0547 -0.3090 -1.1735
  172DOPC   C2820958   4.018   4.974   4.254 -0.1953 -0.7481 -0.0969
  172DOPC   H8R20959   3.959   5.063   4.285  1.2326  0.8432 -1.7145
  172DOPC   H8S20960   4.115   5.019   4.223 -1.2371  1.6867 -0.0461
  172DOPC   C2920961   4.023   4.889   4.374 -0.6464  0.0111 -0.0399
  172DOPC   H9R20962   4.017   4.781   4.355  2.2620 -0.7580  2.5952
  172DOPC  C21020963   4.046   4.933   4.495 -0.1200  0.1003 -0.0304
  172DOPC  H10R20964   4.072   4.866   4.577 -0.7945 -0.3383 -0.1655
  172DOPC  C21120965   4.078   5.077   4.538  0.2468  0.6497  0.0078
  172DOPC  H11R20966   4.021   5.157   4.486  1.6128  0.3317 -2.1474
  172DOPC  H11S20967   4.186   5.086   4.512 -0.1683  1.7321 -1.4923
  172DOPC  C21220968   4.042   5.096   4.689  0.2947 -0.2260  0.2485
  172DOPC  H12R20969   3.938   5.062   4.706 -0.2474  0.7497 -0.9460
  172DOPC  H12S20970   4.035   5.207   4.698 -3.4117 -0.3921  0.8891
  172DOPC  C21320971   4.136   5.043   4.786 -0.2357  0.3436 -0.1724
  172DOPC  H13R20972   4.138   4.932   4.776 -1.9903  0.4069 -1.7816
  172DOPC  H13S20973   4.102   5.052   4.891 -1.9676 -1.9401 -0.4380
  172DOPC  C21420974   4.274   5.099   4.779  0.0330 -0.9307  0.5774
  172DOPC  H14R20975   4.278   5.209   4.768  1.3128 -1.1973 -2.5209
  172DOPC  H14S20976   4.317   5.066   4.682 -1.8660  0.5243 -0.8211
  172DOPC  C21520977   4.365   5.048   4.884 -0.4697 -0.5144  0.2919
  172DOPC  H15R20978   4.312   5.048   4.981  0.1933  0.3562  0.6744
  172DOPC  H15S20979   4.444   5.126   4.895 -1.4404  0.5696 -0.2749
  172DOPC  C21620980   4.419   4.911   4.850 -0.1624  0.0582 -0.9096
  172DOPC  H16R20981   4.484   4.908   4.760  1.9137  0.3509  0.5035
  172DOPC  H16S20982   4.333   4.841   4.857  0.5538 -0.7753 -0.2127
  172DOPC  C21720983   4.512   4.868   4.966 -0.0040 -0.4002 -0.3008
  172DOPC  H17R20984   4.496   4.759   4.977  0.3498 -0.4040  0.2424
  172DOPC  H17S20985   4.486   4.910   5.066 -0.2155 -1.3050  0.0307
  172DOPC  C21820986   4.661   4.911   4.933  1.0010  0.3150  0.2006
  172DOPC  H18R20987   4.645   5.020   4.920 -1.4280  0.0274  0.3881
  172DOPC  H18S20988   4.693   4.858   4.840  2.3633 -1.1238  1.4348
  172DOPC  H18T20989   4.733   4.885   5.013 -1.6223 -1.2821  2.1875
  172DOPC   C3320990   3.594   4.560   3.775  0.2333 -0.1056  0.0295
  172DOPC   H3X20991   3.523   4.633   3.819 -0.3818 -1.6126  1.6805
  172DOPC   H3Y20992   3.674   4.638   3.774 -1.4688  1.7183 -1.3315
  172DOPC   C3420993   3.617   4.445   3.875  0.0873 -0.2616 -0.3896
  172DOPC   H4X20994   3.688   4.376   3.825  2.4808  1.2976  0.6787
  172DOPC   H4Y20995   3.524   4.393   3.905 -0.5235  1.7168  1.3960
  172DOPC   C3520996   3.681   4.490   4.010  0.1537 -0.1508 -0.3071
  172DOPC   H5X20997   3.607   4.537   4.078  1.3925  1.0205  0.2718
  172DOPC   H5Y20998   3.766   4.555   3.983  0.2031 -0.3422 -0.6206
  172DOPC   C3620999   3.744   4.370   4.089  0.0612 -0.2168  0.0376
  172DOPC   H6X21000   3.658   4.304   4.114  0.4510 -0.4788  0.6984
  172DOPC   H6Y21001   3.825   4.321   4.031  0.6925 -0.7637  1.3377
  172DOPC   C3721002   3.808   4.418   4.222 -0.0734 -0.5326  0.1386
  172DOPC   H7X21003   3.872   4.343   4.273 -0.3513 -1.1962 -0.4774
  172DOPC   H7Y21004   3.872   4.507   4.207  0.8706 -1.4522 -1.5319
  172DOPC   C3821005   3.709   4.457   4.336  0.4583 -0.3171 -0.3401
  172DOPC   H8X21006   3.648   4.542   4.299  1.3438  1.1623  1.4077
  172DOPC   H8Y21007   3.772   4.505   4.414  2.6696 -0.6843 -1.8077
  172DOPC   C3921008   3.621   4.345   4.380  0.1812 -0.2972  0.7694
  172DOPC   H9X21009   3.539   4.324   4.310  1.1825  1.5862 -1.0974
  172DOPC  C31021010   3.654   4.252   4.471 -0.0265 -0.0624  0.4093
  172DOPC  H10X21011   3.585   4.167   4.482 -0.5146  0.3646  0.7279
  172DOPC  C31121012   3.782   4.238   4.549  0.4126  0.7342  0.1209
  172DOPC  H11X21013   3.853   4.317   4.516  1.7733 -0.1386  0.8652
  172DOPC  H11Y21014   3.838   4.146   4.523 -0.7277 -0.0178  0.2668
  172DOPC  C31221015   3.740   4.246   4.697  0.3219  0.4233 -0.5014
  172DOPC  H12X21016   3.666   4.168   4.727 -0.0477 -0.0885 -2.5452
  172DOPC  H12Y21017   3.687   4.343   4.710 -0.3224 -0.2358  2.5315
  172DOPC  C31321018   3.852   4.236   4.797 -0.0968 -0.6409  0.4688
  172DOPC  H13X21019   3.915   4.147   4.778  1.5226  0.1389  1.8971
  172DOPC  H13Y21020   3.915   4.326   4.777 -3.0065  1.3533 -0.4542
  172DOPC  C31421021   3.798   4.239   4.934  0.3805  0.7419 -0.3719
  172DOPC  H14X21022   3.742   4.332   4.955 -1.3210 -0.3350  0.1142
  172DOPC  H14Y21023   3.719   4.162   4.950  0.9056  0.3414  0.3703
  172DOPC  C31521024   3.908   4.201   5.036 -0.3781  0.1561 -0.8451
  172DOPC  H15X21025   4.003   4.257   5.030  0.2994 -0.5731  1.8939
  172DOPC  H15Y21026   3.937   4.095   5.017 -1.4638 -0.3671  0.3160
  172DOPC  C31621027   3.852   4.234   5.176  0.0470  0.3674 -0.3041
  172DOPC  H16X21028   3.816   4.339   5.182 -1.4251 -0.1865  1.3480
  172DOPC  H16Y21029   3.763   4.171   5.196  0.2459 -0.0135 -0.6197
  172DOPC  C31721030   3.952   4.217   5.288 -1.0688  0.0022  0.1801
  172DOPC  H17X21031   3.968   4.108   5.277 -0.7737 -0.0879  1.3792
  172DOPC  H17Y21032   4.047   4.270   5.266 -0.2563 -0.7231  1.7980
  172DOPC  C31821033   3.903   4.259   5.427  0.1792  0.4915 -0.1900
  172DOPC  H18X21034   3.931   4.366   5.428  1.1621  0.2470 -0.5416
  172DOPC  H18Y21035   3.793   4.246   5.431  0.4019 -2.1088 -0.9006
  172DOPC  H18Z21036   3.961   4.200   5.502 -0.8455 -1.4713 -0.8961
  173DOPC     N21037   2.856   4.789   2.586 -0.1542  0.0857 -0.7409
  173DOPC   C1221038   2.765   4.823   2.703 -0.1625 -0.1368 -0.2023
  173DOPC  H12A21039   2.674   4.765   2.695  0.1150 -0.3543 -2.2332
  173DOPC  H12B21040   2.734   4.927   2.703 -2.4931 -0.7663 -0.3509
  173DOPC   C1321041   2.976   4.876   2.601 -0.7460  0.1332  0.6164
  173DOPC  H13A21042   2.953   4.980   2.580 -0.1305 -0.3507 -3.1770
  173DOPC  H13B21043   3.029   4.871   2.695 -0.5043  0.1651  0.4807
  173DOPC  H13C21044   3.050   4.841   2.531 -1.1739 -0.1688  0.3084
  173DOPC   C1421045   2.804   4.818   2.451 -0.4090 -0.0679 -0.0081
  173DOPC  H14A21046   2.767   4.919   2.446  0.7830  0.3520 -0.6388
  173DOPC  H14B21047   2.875   4.779   2.380 -0.9491 -0.0657 -0.5619
  173DOPC  H14C21048   2.718   4.753   2.438  0.0466 -0.8128  0.6126
  173DOPC   C1521049   2.898   4.642   2.596  0.2987 -0.5374 -0.3464
  173DOPC  H15A21050   2.946   4.622   2.691  2.3550 -0.3897 -1.2995
  173DOPC  H15B21051   2.966   4.604   2.521  1.0887 -1.5354  0.8292
  173DOPC  H15C21052   2.808   4.582   2.600  1.1369 -1.7742  1.3779
  173DOPC   C1121053   2.815   4.774   2.846  0.6336  0.2457 -0.0852
  173DOPC  H11A21054   2.736   4.800   2.919 -0.0310  1.4278 -1.1817
  173DOPC  H11B21055   2.816   4.663   2.852 -1.9522  0.2184  0.9275
  173DOPC     P21056   3.024   4.754   3.000 -0.1282  0.0846 -0.1985
  173DOPC   O1321057   3.151   4.717   2.942 -0.3023  0.1716 -0.0585
  173DOPC   O1421058   2.944   4.648   3.066 -0.2446 -0.3568  0.3206
  173DOPC   O1221059   2.940   4.829   2.890 -0.3447  0.3416 -0.2662
  173DOPC   O1121060   3.048   4.871   3.102 -0.2233  0.4499 -0.4819
  173DOPC    C121061   2.933   4.945   3.150 -0.5062 -0.4833 -0.6581
  173DOPC    HA21062   2.853   4.875   3.183 -2.4241  1.8652 -0.0526
  173DOPC    HB21063   2.881   5.004   3.071 -1.9212 -0.5777  0.1681
  173DOPC    C221064   2.978   5.035   3.266  0.7667  0.7223 -0.0226
  173DOPC    HS21065   3.041   5.117   3.226  0.5716  2.6070  3.1674
  173DOPC   O2121066   3.050   4.951   3.362 -0.2041 -0.0841  0.1047
  173DOPC   C2121067   3.103   5.024   3.464 -0.3313  0.4467  0.1025
  173DOPC   O2221068   3.108   5.142   3.477 -0.1150 -0.7606  0.0346
  173DOPC   C2221069   3.167   4.927   3.559  0.2305  0.6191 -0.3445
  173DOPC   H2R21070   3.273   4.907   3.535  0.0683 -0.5166 -0.1891
  173DOPC   H2S21071   3.109   4.832   3.557 -0.0413  0.7645  0.2804
  173DOPC    C321072   2.853   5.093   3.335  0.3245 -0.3528 -0.1347
  173DOPC    HX21073   2.794   5.151   3.260 -0.8925 -0.0254  1.0250
  173DOPC    HY21074   2.886   5.171   3.408  2.4795  1.3482 -2.7366
  173DOPC   O3121075   2.771   4.983   3.393  0.0818  0.4348  0.1980
  173DOPC   C3121076   2.786   4.960   3.526 -0.4296  0.3766 -0.1869
  173DOPC   O3221077   2.850   5.034   3.603 -1.1149 -0.6325  0.9955
  173DOPC   C3221078   2.731   4.828   3.566  0.0347 -0.4932  0.0229
  173DOPC   H2X21079   2.622   4.847   3.569 -0.2325 -0.9408 -3.2678
  173DOPC   H2Y21080   2.755   4.745   3.496  1.2617 -3.0797  3.2423
  173DOPC   C2321081   3.160   4.973   3.708 -0.1559 -0.3409  0.6602
  173DOPC   H3R21082   3.055   4.973   3.744 -0.8163  0.7682 -1.1208
  173DOPC   H3S21083   3.196   5.077   3.724 -0.4279 -0.2318  0.5558
  173DOPC   C2421084   3.253   4.887   3.798  0.4293 -0.6678 -0.2380
  173DOPC   H4R21085   3.356   4.891   3.755 -0.1444 -2.2196 -1.8526
  173DOPC   H4S21086   3.213   4.783   3.793  0.2482 -0.6068 -0.0553
  173DOPC   C2521087   3.256   4.925   3.945 -0.1903  0.4635  0.5070
  173DOPC   H5R21088   3.169   4.887   4.004  0.1078 -0.2191  0.5127
  173DOPC   H5S21089   3.248   5.036   3.947  1.5451  0.6512 -1.1054
  173DOPC   C2621090   3.382   4.873   4.028  0.5829 -0.2050  0.1069
  173DOPC   H6R21091   3.382   4.940   4.116 -0.7650 -1.4284  1.1033
  173DOPC   H6S21092   3.477   4.892   3.974  1.1753  0.3302  1.2950
  173DOPC   C2721093   3.369   4.729   4.070 -0.3154 -0.0123 -0.5302
  173DOPC   H7R21094   3.430   4.654   4.015 -2.3472 -1.9486 -0.3089
  173DOPC   H7S21095   3.267   4.685   4.074 -0.6420  0.5039 -2.2048
  173DOPC   C2821096   3.408   4.702   4.220 -0.1105 -0.9391 -0.1963
  173DOPC   H8R21097   3.431   4.593   4.223 -1.4148 -1.2265  0.0691
  173DOPC   H8S21098   3.309   4.715   4.269 -0.7454 -1.7013 -1.2330
  173DOPC   C2921099   3.527   4.783   4.273  0.0439 -0.1801  0.0786
  173DOPC   H9R21100   3.593   4.826   4.197  0.5593  0.1049  0.6812
  173DOPC  C21021101   3.561   4.812   4.402 -0.3887  0.1326 -0.5033
  173DOPC  H10R21102   3.653   4.870   4.417 -0.8897  1.0455 -0.8927
  173DOPC  C21121103   3.476   4.764   4.519  0.0099 -0.2351 -0.0487
  173DOPC  H11R21104   3.391   4.704   4.481 -0.3810  1.1076 -1.3941
  173DOPC  H11S21105   3.422   4.849   4.566 -0.5019  0.4859 -1.8520
  173DOPC  C21221106   3.560   4.681   4.621 -0.2389 -0.4242  0.1192
  173DOPC  H12R21107   3.597   4.592   4.567 -2.1800  0.2030 -2.4340
  173DOPC  H12S21108   3.487   4.667   4.704 -1.5219  4.5169  0.1848
  173DOPC  C21321109   3.680   4.762   4.661 -0.2859 -0.4904  0.1689
  173DOPC  H13R21110   3.661   4.870   4.681  0.8325 -0.3014  0.2885
  173DOPC  H13S21111   3.760   4.759   4.584 -0.5666 -0.2387 -0.1336
  173DOPC  C21421112   3.744   4.700   4.788  0.2348  0.1508 -1.0024
  173DOPC  H14R21113   3.778   4.594   4.778 -0.3910 -0.6174  3.1641
  173DOPC  H14S21114   3.662   4.705   4.862 -0.9795  4.0688 -2.3657
  173DOPC  C21521115   3.867   4.783   4.827 -0.5335 -0.6675  1.0256
  173DOPC  H15R21116   3.849   4.892   4.829  1.3055 -0.3450  1.3072
  173DOPC  H15S21117   3.942   4.773   4.746  0.4097 -2.1945  2.0283
  173DOPC  C21621118   3.920   4.746   4.966 -0.2375 -0.7405  0.2354
  173DOPC  H16R21119   3.830   4.744   5.031 -2.2261  0.8445 -2.2826
  173DOPC  H16S21120   3.979   4.833   5.002 -3.2098  1.3370  0.3698
  173DOPC  C21721121   4.003   4.626   4.975 -0.3362  0.1037  0.1635
  173DOPC  H17R21122   4.071   4.630   4.887  2.8054 -0.3010  2.4100
  173DOPC  H17S21123   3.948   4.530   4.960 -0.9138  0.4785 -0.1443
  173DOPC  C21821124   4.099   4.621   5.097  0.2189 -0.2959  0.1356
  173DOPC  H18R21125   4.138   4.518   5.114  0.2128 -0.2549  0.3989
  173DOPC  H18S21126   4.044   4.636   5.193 -0.9132  0.0680 -0.5584
  173DOPC  H18T21127   4.177   4.698   5.080 -0.7690  0.4380 -1.2320
  173DOPC   C3321128   2.779   4.794   3.703 -0.0122  0.1787 -0.2020
  173DOPC   H3X21129   2.782   4.883   3.769 -0.2297  0.5602 -0.7001
  173DOPC   H3Y21130   2.884   4.761   3.693  0.8893  1.7867  2.8232
  173DOPC   C3421131   2.682   4.685   3.760  0.0079 -0.7012 -0.0936
  173DOPC   H4X21132   2.650   4.604   3.691 -0.9730 -0.8821  0.5402
  173DOPC   H4Y21133   2.588   4.737   3.790 -1.1020 -2.3612 -0.5783
  173DOPC   C3521134   2.742   4.628   3.887 -0.1489 -0.5971  0.7986
  173DOPC   H5X21135   2.781   4.710   3.951 -1.3101  0.0925  0.6545
  173DOPC   H5Y21136   2.831   4.571   3.852  0.0606  1.0188 -1.5521
  173DOPC   C3621137   2.648   4.522   3.942 -0.1222 -0.3628  0.4627
  173DOPC   H6X21138   2.566   4.560   4.007  1.4742  1.6836  1.4022
  173DOPC   H6Y21139   2.608   4.467   3.854  1.9790 -2.1813  0.5651
  173DOPC   C3721140   2.723   4.423   4.024 -0.4741 -0.1293 -0.1362
  173DOPC   H7X21141   2.800   4.379   3.957 -1.5037 -0.0388 -1.4276
  173DOPC   H7Y21142   2.782   4.466   4.108 -0.6977  0.5769 -0.3348
  173DOPC   C3821143   2.634   4.311   4.085 -0.0444 -0.4071  0.5616
  173DOPC   H8X21144   2.603   4.249   3.999  0.0149 -0.2285  0.4121
  173DOPC   H8Y21145   2.544   4.362   4.124  1.1424  0.3170  2.5030
  173DOPC   C3921146   2.695   4.229   4.197  0.3242 -0.3169 -0.8550
  173DOPC   H9X21147   2.740   4.133   4.169 -0.5335 -1.4119  1.3068
  173DOPC  C31021148   2.709   4.281   4.321  1.1694  0.0623 -0.1176
  173DOPC  H10X21149   2.760   4.222   4.400  1.0015 -1.2730 -0.9703
  173DOPC  C31121150   2.662   4.417   4.363  0.0651  0.2435 -0.8199
  173DOPC  H11X21151   2.564   4.414   4.417  0.5159 -1.1038 -0.0137
  173DOPC  H11Y21152   2.646   4.484   4.276 -0.2123  0.3167 -0.7153
  173DOPC  C31221153   2.769   4.493   4.452  0.3388  0.2700  0.3524
  173DOPC  H12X21154   2.865   4.487   4.396  0.2485 -1.1275  0.2924
  173DOPC  H12Y21155   2.787   4.432   4.544 -0.0065 -1.7391 -0.8386
  173DOPC  C31321156   2.733   4.635   4.497  0.0802  0.4884 -0.6455
  173DOPC  H13X21157   2.754   4.698   4.408  2.1446  0.4648 -0.2247
  173DOPC  H13Y21158   2.628   4.638   4.534  0.4932  1.4993  0.5179
  173DOPC  C31421159   2.819   4.702   4.614 -0.3292  0.2758  0.0181
  173DOPC  H14X21160   2.787   4.808   4.609  0.0927  0.4682  1.0238
  173DOPC  H14Y21161   2.804   4.656   4.714  1.4886 -2.5392 -0.8749
  173DOPC  C31521162   2.977   4.689   4.598  0.2754  0.0298 -0.6567
  173DOPC  H15X21163   2.995   4.743   4.502 -0.5241  0.8387 -0.3694
  173DOPC  H15Y21164   3.017   4.586   4.597 -0.9360 -0.4835 -2.7261
  173DOPC  C31621165   3.047   4.762   4.714 -0.1592  0.2210  0.2440
  173DOPC  H16X21166   3.040   4.870   4.691 -0.2427  0.1931  0.1377
  173DOPC  H16Y21167   2.995   4.742   4.810  0.0959  1.3783  0.6405
  173DOPC  C31721168   3.194   4.736   4.739  0.0391  0.0895 -0.8628
  173DOPC  H17X21169   3.217   4.628   4.742 -0.2293  0.0471  0.3112
  173DOPC  H17Y21170   3.244   4.772   4.647  0.8893  1.5458  0.1277
  173DOPC  C31821171   3.258   4.805   4.862 -0.3147 -0.0831 -0.1500
  173DOPC  H18X21172   3.364   4.773   4.878 -0.7320 -1.0090  0.8519
  173DOPC  H18Y21173   3.252   4.913   4.841 -0.6340 -0.4487 -2.1667
  173DOPC  H18Z21174   3.213   4.777   4.959 -1.2215 -0.6608 -0.7134
  174DOPC     N21175   5.457   2.922   2.814 -0.3521 -0.6493  0.1346
  174DOPC   C1221176   5.472   2.845   2.947 -0.4243 -0.1426 -0.0184
  174DOPC  H12A21177   5.438   2.916   3.021 -1.0757  0.1117 -0.5477
  174DOPC  H12B21178   5.577   2.830   2.967 -0.3008  0.5745 -0.1204
  174DOPC   C1321179   5.327   2.985   2.797  0.6657  0.2743 -0.1696
  174DOPC  H13A21180   5.294   3.043   2.881  1.3888  1.1501 -0.4727
  174DOPC  H13B21181   5.330   3.055   2.715  0.2015  1.4609  0.8042
  174DOPC  H13C21182   5.245   2.917   2.775  0.4787  0.6953 -0.7995
  174DOPC   C1421183   5.484   2.829   2.700 -0.3490 -0.3775 -0.2123
  174DOPC  H14A21184   5.409   2.752   2.711 -1.3752  0.6699  0.2962
  174DOPC  H14B21185   5.462   2.873   2.604  1.1249  1.7066  0.3554
  174DOPC  H14C21186   5.587   2.798   2.702 -0.6374 -1.4123 -0.4493
  174DOPC   C1521187   5.560   3.027   2.813  0.7772  0.0347 -0.1559
  174DOPC  H15A21188   5.536   3.098   2.891 -0.5922 -0.3856 -0.1665
  174DOPC  H15B21189   5.575   3.078   2.719 -1.0615 -0.9609 -1.0512
  174DOPC  H15C21190   5.651   2.974   2.834 -0.3179 -1.4476  1.0803
  174DOPC   C1121191   5.386   2.722   2.961  0.3227 -0.2342 -0.7316
  174DOPC  H11A21192   5.377   2.693   3.068 -2.0437 -0.5890 -0.9737
  174DOPC  H11B21193   5.283   2.747   2.928 -1.3990 -4.7473  0.4702
  174DOPC     P21194   5.339   2.497   2.834 -0.0357  0.0067  0.2983
  174DOPC   O1321195   5.412   2.384   2.773 -0.2325 -0.9143  0.3895
  174DOPC   O1421196   5.230   2.563   2.753  0.3002  0.4609 -0.1321
  174DOPC   O1221197   5.441   2.609   2.879  0.3247 -0.2822 -0.1875
  174DOPC   O1121198   5.278   2.447   2.972  0.2340 -0.0409 -0.1553
  174DOPC    C121199   5.265   2.305   3.005  0.3997 -0.3237  0.1957
  174DOPC    HA21200   5.306   2.234   2.930  0.5553  2.0437 -2.1044
  174DOPC    HB21201   5.158   2.281   3.018 -0.2561  1.2281 -1.8682
  174DOPC    C221202   5.329   2.275   3.146 -0.6863 -0.6567 -0.0016
  174DOPC    HS21203   5.359   2.169   3.135 -0.6545 -0.5328 -1.2087
  174DOPC   O2121204   5.229   2.308   3.246  0.2757  0.0449 -0.0123
  174DOPC   C2121205   5.237   2.234   3.355 -0.1128 -0.1124  0.0103
  174DOPC   O2221206   5.307   2.135   3.375 -0.4137 -0.1112 -0.3439
  174DOPC   C2221207   5.148   2.306   3.462 -0.3709 -0.7124  0.1332
  174DOPC   H2R21208   5.064   2.234   3.477 -1.0634 -0.1677 -0.9755
  174DOPC   H2S21209   5.114   2.405   3.425  2.5577  0.3447 -0.0102
  174DOPC    C321210   5.452   2.372   3.166 -0.2649  0.5646  0.3986
  174DOPC    HX21211   5.408   2.473   3.181  1.5572  1.1981  1.9280
  174DOPC    HY21212   5.516   2.382   3.076 -2.1935 -0.3607 -1.1267
  174DOPC   O3121213   5.517   2.350   3.293 -0.0474  0.3892 -0.2876
  174DOPC   C3121214   5.600   2.240   3.282  0.0149  0.1242  0.0040
  174DOPC   O3221215   5.622   2.172   3.182  0.1035 -0.2172  0.2990
  174DOPC   C3221216   5.665   2.217   3.423 -0.4609  0.0002 -0.2419
  174DOPC   H2X21217   5.684   2.317   3.467  1.0574 -0.9428  1.3420
  174DOPC   H2Y21218   5.586   2.163   3.479 -0.3874 -0.3439 -0.4692
  174DOPC   C2321219   5.233   2.322   3.595  0.7450 -0.6331 -1.1104
  174DOPC   H3R21220   5.255   2.218   3.627  0.0734 -0.2581  0.6454
  174DOPC   H3S21221   5.166   2.366   3.672  0.5003  0.0276 -1.6824
  174DOPC   C2421222   5.365   2.408   3.590  0.3953 -0.4621  0.5527
  174DOPC   H4R21223   5.338   2.507   3.548  0.0067 -1.6326 -2.1732
  174DOPC   H4S21224   5.442   2.358   3.528 -0.5267 -1.5333  0.2386
  174DOPC   C2521225   5.434   2.428   3.730  0.3121 -0.0020  0.1081
  174DOPC   H5R21226   5.535   2.472   3.714  0.3347  0.1616  0.6941
  174DOPC   H5S21227   5.455   2.329   3.776  1.6115  0.3658  0.3581
  174DOPC   C2621228   5.347   2.513   3.828 -0.0515 -0.3146 -0.1776
  174DOPC   H6R21229   5.268   2.448   3.872  0.5159 -0.0107  1.3791
  174DOPC   H6S21230   5.310   2.601   3.771  1.8931 -0.1205 -1.1976
  174DOPC   C2721231   5.444   2.552   3.945 -0.5770 -0.3039 -0.4616
  174DOPC   H7R21232   5.534   2.594   3.895  0.6540  1.9763  3.2604
  174DOPC   H7S21233   5.476   2.455   3.988  1.5188  0.2232 -0.7207
  174DOPC   C2821234   5.400   2.658   4.045 -0.9910  0.2316  0.2534
  174DOPC   H8R21235   5.342   2.606   4.124 -1.4381  1.9571  1.1003
  174DOPC   H8S21236   5.342   2.735   3.990  0.2802  0.2240 -1.1432
  174DOPC   C2921237   5.521   2.725   4.096 -0.4617 -0.0198  0.2026
  174DOPC   H9R21238   5.584   2.773   4.020  2.6240 -0.7171  2.1265
  174DOPC  C21021239   5.544   2.749   4.227 -0.3339 -0.1522 -0.4243
  174DOPC  H10R21240   5.633   2.802   4.265  0.2642 -1.2853 -0.2203
  174DOPC  C21121241   5.455   2.712   4.343  0.0292  0.4194  0.1074
  174DOPC  H11R21242   5.401   2.618   4.317 -3.3598  2.8054 -2.4257
  174DOPC  H11S21243   5.388   2.800   4.353 -0.9757  0.0845 -2.6262
  174DOPC  C21221244   5.547   2.717   4.472 -0.3547  0.1698  0.5549
  174DOPC  H12R21245   5.606   2.811   4.472  1.6976 -1.0501  0.3725
  174DOPC  H12S21246   5.622   2.634   4.474  0.1959  0.6728  0.9231
  174DOPC  C21321247   5.457   2.711   4.598 -0.4007 -0.1498  0.3733
  174DOPC  H13R21248   5.398   2.618   4.604  1.6606 -1.7202 -1.8789
  174DOPC  H13S21249   5.384   2.794   4.590 -1.7066 -0.9045  3.1640
  174DOPC  C21421250   5.541   2.727   4.722  0.6199  0.1152 -0.0666
  174DOPC  H14R21251   5.600   2.820   4.717  0.1102  0.3849 -2.3911
  174DOPC  H14S21252   5.623   2.651   4.722  0.9420  0.4596  0.4553
  174DOPC  C21521253   5.453   2.707   4.844 -0.4494 -0.0633  0.0097
  174DOPC  H15R21254   5.419   2.601   4.843 -0.7196  0.0239 -0.2446
  174DOPC  H15S21255   5.360   2.767   4.836 -0.0528  0.5330 -0.1624
  174DOPC  C21621256   5.524   2.737   4.975 -0.2649 -0.3633 -0.9261
  174DOPC  H16R21257   5.603   2.815   4.973  0.0511 -0.6802 -0.8408
  174DOPC  H16S21258   5.577   2.642   4.995 -0.4931  0.0624  2.4244
  174DOPC  C21721259   5.429   2.760   5.098  0.5001  0.0469  0.1727
  174DOPC  H17R21260   5.364   2.670   5.101  0.4361 -0.0869 -2.8891
  174DOPC  H17S21261   5.354   2.840   5.079  0.7550  0.5651  1.2706
  174DOPC  C21821262   5.498   2.769   5.227 -0.3836 -0.3893 -0.0315
  174DOPC  H18R21263   5.530   2.870   5.260 -1.7157 -0.6154  2.1523
  174DOPC  H18S21264   5.584   2.700   5.245 -0.1251  0.1299  0.7779
  174DOPC  H18T21265   5.425   2.732   5.303 -1.2387  0.1197 -0.5926
  174DOPC   C3321266   5.800   2.145   3.428 -0.4827 -0.4744 -0.1864
  174DOPC   H3X21267   5.871   2.210   3.372  0.1606  0.7996  2.0090
  174DOPC   H3Y21268   5.788   2.055   3.364 -0.6460 -0.9223  0.4688
  174DOPC   C3421269   5.842   2.119   3.572  0.0184 -0.0306 -0.1835
  174DOPC   H4X21270   5.938   2.064   3.573 -0.4789 -0.9069  0.5923
  174DOPC   H4Y21271   5.774   2.048   3.624  0.5923  0.9541  2.0245
  174DOPC   C3521272   5.872   2.243   3.659  0.2116 -0.1707  0.9887
  174DOPC   H5X21273   5.785   2.311   3.651  2.0802  2.1904 -1.2156
  174DOPC   H5Y21274   5.953   2.302   3.611 -0.7252  0.4540  0.1296
  174DOPC   C3621275   5.909   2.207   3.798 -0.2831 -0.1381  0.2901
  174DOPC   H6X21276   5.915   2.303   3.854  0.6244  0.7904 -1.3203
  174DOPC   H6Y21277   5.829   2.148   3.847  0.7373 -1.7506  0.0715
  174DOPC   C3721278   6.048   2.136   3.812  0.3416  0.0384 -0.1203
  174DOPC   H7X21279   6.058   2.082   3.909  3.1553 -0.7801 -0.7898
  174DOPC   H7Y21280   6.079   2.060   3.736  3.3682 -0.1188  1.1340
  174DOPC   C3821281   6.166   2.233   3.802  0.0014  0.2640  0.5083
  174DOPC   H8X21282   6.156   2.315   3.875 -0.2654  1.4445 -0.8129
  174DOPC   H8Y21283   6.160   2.273   3.698  1.7899 -0.1325  0.2191
  174DOPC   C3921284   6.309   2.181   3.814  0.5632 -0.2120 -0.3781
  174DOPC   H9X21285   6.360   2.141   3.725  0.3354 -0.4853 -0.3890
  174DOPC  C31021286   6.376   2.180   3.929 -0.1111 -1.0358  1.0557
  174DOPC  H10X21287   6.483   2.153   3.936  0.2812 -0.4297 -1.5452
  174DOPC  C31121288   6.311   2.218   4.057 -0.4934 -0.0994 -0.6775
  174DOPC  H11X21289   6.323   2.145   4.139 -1.2813 -0.2478 -0.6880
  174DOPC  H11Y21290   6.200   2.219   4.054 -0.4975  0.1481 -0.5022
  174DOPC  C31221291   6.363   2.353   4.111 -0.0816  0.5394  0.1236
  174DOPC  H12X21292   6.468   2.334   4.140 -0.5095 -0.0256  1.3573
  174DOPC  H12Y21293   6.318   2.379   4.209  1.3275 -0.4923  1.0701
  174DOPC  C31321294   6.356   2.475   4.020 -0.0986 -0.1664 -0.1976
  174DOPC  H13X21295   6.406   2.469   3.921  1.2839  2.8289  0.2082
  174DOPC  H13Y21296   6.248   2.500   4.019 -0.1723 -0.3102  1.2957
  174DOPC  C31421297   6.401   2.613   4.074 -0.0680 -0.6493 -0.1058
  174DOPC  H14X21298   6.512   2.615   4.080  0.0492  3.2099 -0.9445
  174DOPC  H14Y21299   6.380   2.696   4.002 -0.5678 -2.5050 -2.2249
  174DOPC  C31521300   6.341   2.652   4.208  0.0982  0.5167  0.3593
  174DOPC  H15X21301   6.381   2.592   4.292 -1.2210 -0.1490  0.5349
  174DOPC  H15Y21302   6.231   2.634   4.203  0.2858 -0.8254  0.8522
  174DOPC  C31621303   6.361   2.801   4.245 -0.0037  0.9752 -0.4896
  174DOPC  H16X21304   6.285   2.857   4.186 -0.8728  1.5239  1.1070
  174DOPC  H16Y21305   6.329   2.795   4.351 -0.1388 -1.9109 -0.6258
  174DOPC  C31721306   6.502   2.873   4.224 -0.3716 -0.5022  0.0037
  174DOPC  H17X21307   6.576   2.827   4.293 -1.7563 -0.0836  1.8709
  174DOPC  H17Y21308   6.528   2.852   4.118 -1.1657 -4.6441  0.4284
  174DOPC  C31821309   6.496   3.023   4.240  0.4656 -0.1833 -0.0620
  174DOPC  H18X21310   6.599   3.063   4.226  1.2248 -1.6400  1.0662
  174DOPC  H18Y21311   6.424   3.065   4.167  0.0690 -0.0518  0.4020
  174DOPC  H18Z21312   6.468   3.047   4.345  1.4793  1.0175 -0.0365
  175DOPC     N21313   3.358   6.098   2.804  0.8732  0.0188 -0.0473
  175DOPC   C1221314   3.396   6.237   2.857 -0.1105 -0.2562 -0.4860
  175DOPC  H12A21315   3.307   6.297   2.864 -0.1436 -0.4624  1.6927
  175DOPC  H12B21316   3.462   6.281   2.783  0.6985  0.4516  0.6186
  175DOPC   C1321317   3.261   6.027   2.894 -0.8473  0.2051  0.1058
  175DOPC  H13A21318   3.300   6.024   2.994  1.2029  2.3553 -0.5399
  175DOPC  H13B21319   3.161   6.067   2.885 -0.6950  0.5844  0.0940
  175DOPC  H13C21320   3.235   5.926   2.865 -1.5915  0.5728 -0.5640
  175DOPC   C1421321   3.472   6.008   2.795  0.0575 -0.2701 -0.6419
  175DOPC  H14A21322   3.556   6.040   2.735 -0.5184  0.0140 -1.3120
  175DOPC  H14B21323   3.511   5.993   2.895 -0.3047 -1.3005 -0.6479
  175DOPC  H14C21324   3.433   5.913   2.762  1.1965 -1.5588  1.5147
  175DOPC   C1521325   3.291   6.106   2.669  0.8268  0.3732 -0.3617
  175DOPC  H15A21326   3.355   6.161   2.601 -2.1575 -0.2089 -3.9346
  175DOPC  H15B21327   3.195   6.156   2.674  0.1021 -0.8561 -1.3204
  175DOPC  H15C21328   3.282   6.004   2.636 -0.9339  0.2172  0.4847
  175DOPC   C1121329   3.480   6.254   2.986 -0.6588  0.0773 -0.0762
  175DOPC  H11A21330   3.584   6.218   2.970 -1.7423 -2.5838 -1.6198
  175DOPC  H11B21331   3.489   6.364   3.006 -2.0031  0.5083 -1.6849
  175DOPC     P21332   3.331   6.253   3.196 -0.3221 -0.3955 -0.0673
  175DOPC   O1321333   3.259   6.145   3.261 -0.8096  0.1858  0.8409
  175DOPC   O1421334   3.240   6.353   3.134 -0.2542 -0.3417  0.1558
  175DOPC   O1221335   3.426   6.184   3.098 -0.0385  0.4411  0.1818
  175DOPC   O1121336   3.425   6.329   3.291  0.0295 -0.1468 -0.6501
  175DOPC    C121337   3.537   6.259   3.350 -0.2935 -0.8396  1.0326
  175DOPC    HA21338   3.623   6.328   3.367 -0.6500  0.1835 -0.9270
  175DOPC    HB21339   3.577   6.180   3.282 -2.5383 -0.8560 -0.3688
  175DOPC    C221340   3.490   6.210   3.489  0.1187  0.4042 -0.3395
  175DOPC    HS21341   3.417   6.129   3.470  1.6595 -1.4867  1.3620
  175DOPC   O2121342   3.449   6.334   3.567 -0.3674 -0.4095 -0.2148
  175DOPC   C2121343   3.327   6.327   3.607  0.3889  0.1285 -0.2669
  175DOPC   O2221344   3.248   6.231   3.599  0.0803  0.1643 -0.5919
  175DOPC   C2221345   3.284   6.465   3.669  0.3336  0.3420  1.0297
  175DOPC   H2R21346   3.251   6.529   3.585  4.1392  0.4000 -0.6449
  175DOPC   H2S21347   3.365   6.516   3.725  2.0434 -0.7253 -0.3259
  175DOPC    C321348   3.608   6.141   3.566 -0.4667  0.3295 -0.1193
  175DOPC    HX21349   3.693   6.213   3.570 -0.7858  0.6893  0.4043
  175DOPC    HY21350   3.641   6.052   3.509 -3.9200 -2.3959  1.8087
  175DOPC   O3121351   3.561   6.115   3.699 -0.1072  0.4651 -0.1065
  175DOPC   C3121352   3.484   6.005   3.698  0.1528 -0.3714 -0.7351
  175DOPC   O3221353   3.462   5.932   3.605 -0.1560  0.0014 -0.2186
  175DOPC   C3221354   3.418   6.000   3.837 -0.5815  0.7216 -0.2455
  175DOPC   H2X21355   3.477   5.924   3.894  0.3038  0.4108 -1.5213
  175DOPC   H2Y21356   3.408   6.099   3.886  3.3550  0.8963  0.5963
  175DOPC   C2321357   3.169   6.453   3.768  0.6483  0.2049  0.4084
  175DOPC   H3R21358   3.211   6.409   3.861 -1.1916  0.1020  1.2316
  175DOPC   H3S21359   3.093   6.379   3.736  0.6348  0.7839 -0.9377
  175DOPC   C2421360   3.099   6.579   3.807 -0.2895 -0.2578  0.5761
  175DOPC   H4R21361   3.071   6.641   3.719 -1.7744 -0.9149  0.5409
  175DOPC   H4S21362   3.180   6.632   3.860 -1.1298 -0.5600  2.2384
  175DOPC   C2521363   2.978   6.564   3.906 -0.5532 -0.0855 -0.1905
  175DOPC   H5R21364   2.971   6.669   3.941 -0.7309  0.6546 -2.2966
  175DOPC   H5S21365   3.010   6.498   3.990 -0.5219  1.9331  1.4691
  175DOPC   C2621366   2.844   6.539   3.843 -0.3405  0.2672  0.1494
  175DOPC   H6R21367   2.855   6.448   3.781  1.7597 -0.4571  1.4554
  175DOPC   H6S21368   2.821   6.618   3.768 -1.3116 -1.7920 -1.8390
  175DOPC   C2721369   2.719   6.538   3.941  0.0639 -0.6795  0.2793
  175DOPC   H7R21370   2.738   6.449   4.006 -2.0871 -2.3529 -1.2316
  175DOPC   H7S21371   2.627   6.519   3.881 -3.0262 -0.3344  4.4638
  175DOPC   C2821372   2.707   6.661   4.030 -0.0883 -0.2093 -0.4377
  175DOPC   H8R21373   2.756   6.747   3.980 -2.5347  2.0136  0.7433
  175DOPC   H8S21374   2.760   6.639   4.126 -0.5979 -0.7163 -0.2695
  175DOPC   C2921375   2.565   6.704   4.065 -0.0337  0.3546 -0.1300
  175DOPC   H9R21376   2.497   6.694   3.979  1.0292  2.5272 -1.2904
  175DOPC  C21021377   2.525   6.761   4.183 -0.4552  0.7497 -0.0120
  175DOPC  H10R21378   2.419   6.787   4.199 -1.2653 -0.6909 -2.4291
  175DOPC  C21121379   2.604   6.799   4.305  0.6720 -0.4182 -0.5154
  175DOPC  H11R21380   2.565   6.898   4.337 -1.7670 -1.3299 -0.5104
  175DOPC  H11S21381   2.712   6.812   4.282  1.3280 -0.7721  2.0069
  175DOPC  C21221382   2.591   6.697   4.417  0.0296  0.0774 -0.2684
  175DOPC  H12R21383   2.660   6.717   4.502 -1.1660  1.2997  0.4643
  175DOPC  H12S21384   2.623   6.599   4.377  0.0698  0.6323 -1.6311
  175DOPC  C21321385   2.456   6.696   4.482  0.2813 -0.0153 -0.0390
  175DOPC  H13R21386   2.383   6.666   4.403 -0.2151 -0.9258  0.7470
  175DOPC  H13S21387   2.433   6.800   4.511  0.7559  1.1042 -3.2362
  175DOPC  C21421388   2.433   6.596   4.595 -0.1827  0.1476 -0.6654
  175DOPC  H14R21389   2.466   6.497   4.558  1.7002  0.2041  0.7232
  175DOPC  H14S21390   2.325   6.588   4.623  0.3368 -0.0882  1.4343
  175DOPC  C21521391   2.514   6.620   4.727  0.3339  0.1162 -0.0637
  175DOPC  H15R21392   2.622   6.611   4.702  0.6695  2.2602  0.4031
  175DOPC  H15S21393   2.499   6.537   4.800 -1.2378 -1.5134 -2.1103
  175DOPC  C21621394   2.484   6.753   4.801 -0.2926 -0.1921  0.0449
  175DOPC  H16R21395   2.383   6.742   4.845 -0.2868  1.4210  0.5389
  175DOPC  H16S21396   2.479   6.841   4.733 -0.0357 -0.8726 -0.8663
  175DOPC  C21721397   2.573   6.798   4.926 -0.1050  0.1248  0.5641
  175DOPC  H17R21398   2.671   6.746   4.916  0.9509  2.2167 -0.6850
  175DOPC  H17S21399   2.513   6.774   5.016 -0.4964 -3.5316 -0.4931
  175DOPC  C21821400   2.613   6.950   4.915 -0.1698 -0.6651  0.5082
  175DOPC  H18R21401   2.667   6.979   5.007  1.2392 -1.6697  0.0300
  175DOPC  H18S21402   2.524   7.011   4.889 -0.0312 -1.1159 -1.2097
  175DOPC  H18T21403   2.669   6.972   4.821 -1.6249  0.3584 -0.1578
  175DOPC   C3321404   3.280   5.933   3.817 -0.3167  0.2873  0.5002
  175DOPC   H3X21405   3.285   5.845   3.749 -1.2816  1.6649 -1.4750
  175DOPC   H3Y21406   3.215   6.005   3.762 -1.0989 -1.0289 -0.3800
  175DOPC   C3421407   3.213   5.883   3.942  0.1868  0.3801 -0.0061
  175DOPC   H4X21408   3.264   5.791   3.978 -1.7341  0.0324  1.9807
  175DOPC   H4Y21409   3.117   5.842   3.904  0.0194  1.1291 -0.4223
  175DOPC   C3521410   3.191   5.990   4.053  0.1293 -0.1270 -0.6963
  175DOPC   H5X21411   3.285   6.025   4.100 -1.7665  1.7817  1.9888
  175DOPC   H5Y21412   3.129   5.946   4.134  0.2638  0.3544 -0.3240
  175DOPC   C3621413   3.098   6.101   4.005  0.2979  0.4993 -0.2180
  175DOPC   H6X21414   3.150   6.140   3.915  1.0521  0.3743  0.1569
  175DOPC   H6Y21415   2.996   6.066   3.980  0.7295 -1.0976  0.1044
  175DOPC   C3721416   3.085   6.216   4.101 -0.2930  0.0503 -0.3025
  175DOPC   H7X21417   3.151   6.218   4.190 -1.1174  2.3866  0.3267
  175DOPC   H7Y21418   3.110   6.298   4.030 -0.7833 -1.3708 -2.1915
  175DOPC   C3821419   2.932   6.222   4.146 -0.3926  0.4409  0.7217
  175DOPC   H8X21420   2.903   6.131   4.203 -1.7395  0.6115  0.3508
  175DOPC   H8Y21421   2.870   6.211   4.054 -0.1877 -0.8881  0.7150
  175DOPC   C3921422   2.902   6.350   4.217 -0.1774 -0.2179 -0.4750
  175DOPC   H9X21423   2.977   6.430   4.219  0.3296 -0.6312  2.6166
  175DOPC  C31021424   2.788   6.369   4.290  0.3177 -0.5934 -0.5002
  175DOPC  H10X21425   2.791   6.453   4.361  1.6523  0.0259 -1.2510
  175DOPC  C31121426   2.672   6.274   4.310 -0.3915 -0.5161 -0.6298
  175DOPC  H11X21427   2.663   6.211   4.219 -0.6622  1.6573 -2.1837
  175DOPC  H11Y21428   2.578   6.333   4.317 -1.0827 -1.7665  1.7417
  175DOPC  C31221429   2.677   6.190   4.440 -0.2929  0.2307  0.5484
  175DOPC  H12X21430   2.778   6.143   4.448 -1.9028 -4.1014 -1.2670
  175DOPC  H12Y21431   2.610   6.101   4.440 -1.7863  1.2220 -2.6580
  175DOPC  C31321432   2.647   6.263   4.573  0.3474 -0.1177  0.0575
  175DOPC  H13X21433   2.730   6.335   4.588  0.2019  0.5690 -2.0584
  175DOPC  H13Y21434   2.548   6.313   4.569 -0.4666 -1.7151 -0.9266
  175DOPC  C31421435   2.645   6.157   4.688  0.4261  0.1742 -0.6723
  175DOPC  H14X21436   2.572   6.075   4.672  1.4910 -1.3597  1.7328
  175DOPC  H14Y21437   2.749   6.121   4.680  0.9482  1.3671  0.3904
  175DOPC  C31521438   2.618   6.218   4.827  0.2919  0.3768 -0.6839
  175DOPC  H15X21439   2.513   6.255   4.832  0.3719  0.5478 -0.1775
  175DOPC  H15Y21440   2.673   6.314   4.836 -0.6541  0.9597 -1.0073
  175DOPC  C31621441   2.648   6.123   4.941 -0.0266 -0.3754 -0.2674
  175DOPC  H16X21442   2.673   6.187   5.028 -1.3205  2.1408 -1.6336
  175DOPC  H16Y21443   2.567   6.051   4.967  0.6036 -1.4344 -1.1530
  175DOPC  C31721444   2.783   6.036   4.928 -0.9404  0.4455 -0.2707
  175DOPC  H17X21445   2.793   5.977   4.835  0.6576 -0.6176  0.5161
  175DOPC  H17Y21446   2.867   6.108   4.916  0.3954 -0.5520  2.1564
  175DOPC  C31821447   2.812   5.950   5.045  0.1334  0.0691 -0.5781
  175DOPC  H18X21448   2.838   6.008   5.136  0.3321 -0.5874 -0.2054
  175DOPC  H18Y21449   2.728   5.882   5.072  0.7797  0.0819  1.6401
  175DOPC  H18Z21450   2.897   5.879   5.031  1.1428  1.1071  0.0501
  176DOPC     N21451   3.193   2.192   2.715 -0.2638  0.2613  0.3910
  176DOPC   C1221452   3.272   2.071   2.671 -0.0035 -0.1262 -0.4709
  176DOPC  H12A21453   3.349   2.055   2.746 -0.2126  1.5427  0.1288
  176DOPC  H12B21454   3.323   2.101   2.581  1.7544 -1.3477  0.0632
  176DOPC   C1321455   3.068   2.212   2.631  0.2709  0.4942 -0.2893
  176DOPC  H13A21456   3.104   2.229   2.530  0.4466 -1.6912 -0.6571
  176DOPC  H13B21457   3.002   2.127   2.630  2.6516 -1.5207  1.0233
  176DOPC  H13C21458   3.006   2.294   2.664 -2.7294 -1.3746 -0.8871
  176DOPC   C1421459   3.265   2.324   2.703 -0.0157 -0.1581 -0.6809
  176DOPC  H14A21460   3.196   2.406   2.713 -1.8961 -1.4714 -2.1423
  176DOPC  H14B21461   3.336   2.344   2.782  0.0334  3.2357 -1.4453
  176DOPC  H14C21462   3.323   2.337   2.612 -0.1671 -1.9160 -1.0777
  176DOPC   C1521463   3.158   2.180   2.861  0.0968 -0.4122  0.2552
  176DOPC  H15A21464   3.239   2.160   2.929  1.2955 -1.6206 -1.4380
  176DOPC  H15B21465   3.089   2.098   2.848  2.1371 -1.8360 -2.7157
  176DOPC  H15C21466   3.116   2.273   2.897  2.7276  0.4949  1.1809
  176DOPC   C1121467   3.202   1.938   2.652  0.6473  0.4934 -0.2260
  176DOPC  H11A21468   3.109   1.959   2.595  0.8264  0.3945 -0.5633
  176DOPC  H11B21469   3.260   1.862   2.595  0.0124  0.9241 -1.4987
  176DOPC     P21470   3.264   1.836   2.876 -0.1699 -0.1826  0.4794
  176DOPC   O1321471   3.344   1.955   2.919  0.3112  0.1607 -0.3463
  176DOPC   O1421472   3.342   1.716   2.822  0.1039  0.7818 -0.2314
  176DOPC   O1221473   3.156   1.881   2.770  0.4969 -0.4151  0.3019
  176DOPC   O1121474   3.184   1.789   3.008 -0.3988 -0.4230  0.0834
  176DOPC    C121475   3.044   1.828   3.016  0.3583  0.4479 -0.6790
  176DOPC    HA21476   2.990   1.771   2.938 -0.7629  0.9839 -0.3188
  176DOPC    HB21477   3.038   1.937   2.993  0.7743  0.7974  0.7532
  176DOPC    C221478   2.985   1.809   3.166  0.8838 -0.1193 -0.3521
  176DOPC    HS21479   2.886   1.859   3.168  1.4014  0.8970  0.1689
  176DOPC   O2121480   3.063   1.875   3.265 -0.5379  0.2793  0.5341
  176DOPC   C2121481   3.055   2.004   3.267 -0.2639 -0.0943 -0.4042
  176DOPC   O2221482   2.984   2.077   3.204 -0.3185 -0.2664 -0.0511
  176DOPC   C2221483   3.152   2.053   3.377  0.2578 -0.4623  0.2676
  176DOPC   H2R21484   3.201   2.141   3.331 -0.8201  0.9307  1.6815
  176DOPC   H2S21485   3.234   1.979   3.387 -0.0643 -0.7101  1.1295
  176DOPC    C321486   2.977   1.653   3.183  0.1674  0.6364  0.6194
  176DOPC    HX21487   3.080   1.619   3.164  0.2438  0.9203  0.5142
  176DOPC    HY21488   2.904   1.611   3.110 -0.6168 -0.1155  1.8012
  176DOPC   O3121489   2.925   1.614   3.309  0.5011  0.0492  0.4484
  176DOPC   C3121490   2.975   1.499   3.360 -0.0653  0.0820 -0.2971
  176DOPC   O3221491   3.062   1.434   3.312  0.1335 -0.2153  0.1981
  176DOPC   C3221492   2.910   1.469   3.487 -0.0548  0.6838 -0.4232
  176DOPC   H2X21493   2.836   1.387   3.476  0.2874  0.3172 -0.0198
  176DOPC   H2Y21494   2.996   1.442   3.551  0.7324  0.4790 -1.5311
  176DOPC   C2321495   3.075   2.099   3.500 -0.3185 -0.2907 -0.3715
  176DOPC   H3R21496   3.003   2.178   3.468  0.2995  0.6964  0.5890
  176DOPC   H3S21497   3.144   2.150   3.570 -1.1995 -1.2853  1.2913
  176DOPC   C2421498   2.991   1.993   3.572 -0.2640 -0.2880 -0.1061
  176DOPC   H4R21499   3.055   1.905   3.595 -0.8861 -0.9736 -0.9538
  176DOPC   H4S21500   2.903   1.955   3.515 -0.6001  0.6863 -0.2518
  176DOPC   C2521501   2.939   2.045   3.712 -0.3990 -0.2592  0.0767
  176DOPC   H5R21502   2.862   2.125   3.705 -1.9340 -1.5621  1.3769
  176DOPC   H5S21503   3.027   2.097   3.758  0.1936 -1.8911  0.8532
  176DOPC   C2621504   2.891   1.936   3.809  0.2706 -0.1884  0.7630
  176DOPC   H6R21505   2.968   1.856   3.810 -0.4649 -0.9182  0.6138
  176DOPC   H6S21506   2.801   1.914   3.748  0.7214  1.5778 -0.6263
  176DOPC   C2721507   2.855   1.986   3.947 -0.1936  0.2900  0.9413
  176DOPC   H7R21508   2.786   2.071   3.929  0.2663  0.2764 -1.0745
  176DOPC   H7S21509   2.942   2.029   4.001 -0.5584  1.6982  0.4612
  176DOPC   C2821510   2.781   1.880   4.030  0.2234  0.6054 -0.3212
  176DOPC   H8R21511   2.704   1.831   3.966 -1.0392  1.6354  0.3744
  176DOPC   H8S21512   2.727   1.925   4.115 -0.4642 -1.3566  0.3249
  176DOPC   C2921513   2.863   1.767   4.074 -0.3856  0.0967 -0.4520
  176DOPC   H9R21514   2.912   1.707   3.995 -0.4114 -0.8269  0.2073
  176DOPC  C21021515   2.889   1.731   4.203 -0.6456 -0.6059  0.7792
  176DOPC  H10R21516   2.941   1.634   4.210 -0.5972 -0.7052 -0.6873
  176DOPC  C21121517   2.849   1.789   4.335  0.7612  0.5075 -0.2264
  176DOPC  H11R21518   2.811   1.892   4.319 -0.5452 -0.1059 -1.3492
  176DOPC  H11S21519   2.938   1.790   4.401  0.1902  0.0989  0.5566
  176DOPC  C21221520   2.729   1.716   4.402 -0.1462 -0.9033 -0.2967
  176DOPC  H12R21521   2.759   1.609   4.410 -0.5293 -1.1129 -1.5495
  176DOPC  H12S21522   2.640   1.716   4.336 -0.3560  0.9006 -0.0648
  176DOPC  C21321523   2.700   1.783   4.540 -0.5573 -0.1041 -0.5723
  176DOPC  H13R21524   2.615   1.722   4.580  0.3376 -1.2488 -0.3556
  176DOPC  H13S21525   2.664   1.888   4.538  0.7311  0.4077  1.0619
  176DOPC  C21421526   2.824   1.767   4.632  0.5555  0.3561 -0.2105
  176DOPC  H14R21527   2.894   1.851   4.614 -0.4077  1.2751  0.2224
  176DOPC  H14S21528   2.878   1.672   4.611 -0.0410  0.0349 -0.3169
  176DOPC  C21521529   2.798   1.785   4.779  0.5935 -0.4725 -0.7184
  176DOPC  H15R21530   2.742   1.700   4.825 -1.2427  0.5020 -1.0820
  176DOPC  H15S21531   2.744   1.881   4.792 -0.9232 -1.2429 -1.0664
  176DOPC  C21621532   2.921   1.810   4.867 -1.0532  0.6640 -0.4422
  176DOPC  H16R21533   2.983   1.893   4.830 -0.8978  0.5915 -0.3436
  176DOPC  H16S21534   2.971   1.711   4.865 -1.8830  0.2516 -1.5948
  176DOPC  C21721535   2.876   1.839   5.014  0.9815  0.4700  0.3728
  176DOPC  H17R21536   2.964   1.855   5.080  2.2584 -0.3234 -1.0497
  176DOPC  H17S21537   2.816   1.756   5.057 -0.9194  3.6275  4.4204
  176DOPC  C21821538   2.789   1.966   5.028 -0.6963  0.1411 -0.1150
  176DOPC  H18R21539   2.846   2.058   5.005  0.5156  0.0235  2.1122
  176DOPC  H18S21540   2.758   1.979   5.134  0.4077 -1.7400  0.4849
  176DOPC  H18T21541   2.694   1.959   4.970 -0.4954 -0.3715 -0.3950
  176DOPC   C3321542   2.848   1.598   3.548  0.4786  0.7287 -0.0686
  176DOPC   H3X21543   2.757   1.626   3.491 -1.0115  0.1867  1.9305
  176DOPC   H3Y21544   2.927   1.676   3.549  1.7726 -0.4389 -2.2866
  176DOPC   C3421545   2.788   1.593   3.690  0.8647  0.2941 -0.8681
  176DOPC   H4X21546   2.766   1.695   3.727  1.7919  0.4302 -0.6546
  176DOPC   H4Y21547   2.863   1.559   3.765  0.6829  1.1594 -0.2866
  176DOPC   C3521548   2.665   1.510   3.710  0.1687 -0.8440 -0.1240
  176DOPC   H5X21549   2.691   1.403   3.691  0.8688 -0.7629  0.3376
  176DOPC   H5Y21550   2.585   1.536   3.638 -2.1881 -2.1815  1.8320
  176DOPC   C3621551   2.608   1.524   3.851  0.5606  0.2933  0.1910
  176DOPC   H6X21552   2.686   1.523   3.930 -0.3119  2.1674  1.1398
  176DOPC   H6Y21553   2.556   1.622   3.862  0.7914  0.2313  2.2923
  176DOPC   C3721554   2.513   1.406   3.889 -0.2695  0.7407  0.3368
  176DOPC   H7X21555   2.442   1.386   3.805 -0.5675  3.6331 -0.2101
  176DOPC   H7Y21556   2.570   1.311   3.894 -1.2402  0.1999  1.7719
  176DOPC   C3821557   2.442   1.413   4.026 -0.1166 -1.2379 -0.3959
  176DOPC   H8X21558   2.411   1.519   4.019 -1.2847 -1.6128 -1.2205
  176DOPC   H8Y21559   2.517   1.408   4.108  0.4590  0.3609 -0.8063
  176DOPC   C3921560   2.318   1.325   4.039  0.2341  0.1252  0.0315
  176DOPC   H9X21561   2.286   1.287   3.940 -0.9735 -1.9578  1.1434
  176DOPC  C31021562   2.261   1.284   4.152 -0.0948  0.2680 -1.0444
  176DOPC  H10X21563   2.178   1.211   4.152  0.1379 -0.0674  1.3174
  176DOPC  C31121564   2.310   1.315   4.290 -0.1321  0.4742 -0.0292
  176DOPC  H11X21565   2.240   1.394   4.324 -0.6596  0.3278 -0.7347
  176DOPC  H11Y21566   2.408   1.365   4.296  0.0901  0.0722 -0.2488
  176DOPC  C31221567   2.315   1.200   4.399  0.6540 -1.0124  0.2116
  176DOPC  H12X21568   2.297   1.240   4.502  0.9129 -1.0013  0.2522
  176DOPC  H12Y21569   2.422   1.172   4.404  1.7568  2.4522 -0.9908
  176DOPC  C31321570   2.213   1.091   4.388  1.0890  0.0967  0.0864
  176DOPC  H13X21571   2.113   1.141   4.391  0.0820 -1.7897 -0.3582
  176DOPC  H13Y21572   2.221   1.039   4.290  0.3094 -0.0723  0.1073
  176DOPC  C31421573   2.204   0.994   4.508  0.7192 -0.6488 -0.3618
  176DOPC  H14X21574   2.116   0.930   4.486  2.0340 -1.7144 -2.9659
  176DOPC  H14Y21575   2.293   0.929   4.523  1.2323 -0.3680 -1.9846
  176DOPC  C31521576   2.189   1.052   4.646  0.0039  0.2273 -0.4132
  176DOPC  H15X21577   2.119   1.138   4.645 -2.0282 -1.3320  0.1735
  176DOPC  H15Y21578   2.289   1.082   4.682  0.5481 -1.1359 -0.7180
  176DOPC  C31621579   2.119   0.952   4.738 -0.3034 -0.1113 -0.2153
  176DOPC  H16X21580   2.023   0.913   4.697 -1.3126 -0.2089  2.0869
  176DOPC  H16Y21581   2.189   0.866   4.748  1.1738  1.1925  1.2586
  176DOPC  C31721582   2.071   1.006   4.875  0.0767 -0.0936 -0.4897
  176DOPC  H17X21583   2.020   0.920   4.924  0.3562 -0.5717 -1.0163
  176DOPC  H17Y21584   2.161   1.038   4.931  0.2745 -0.1734 -0.7584
  176DOPC  C31821585   1.976   1.129   4.866 -0.2339  0.1835  0.0299
  176DOPC  H18X21586   1.906   1.149   4.950 -0.1959 -0.2846  0.1727
  176DOPC  H18Y21587   2.034   1.224   4.858  0.2646 -0.1308 -0.1113
  176DOPC  H18Z21588   1.916   1.114   4.774 -0.3468  0.6421  0.0218
  177DOPC     N21589   4.472   7.184   3.054  0.2849 -0.0377  0.2524
  177DOPC   C1221590   4.544   7.091   3.147 -0.0129  0.3445  1.0236
  177DOPC  H12A21591   4.651   7.101   3.133 -0.1258 -1.1620 -1.6556
  177DOPC  H12B21592   4.530   6.992   3.107 -1.5521  0.9693 -0.0893
  177DOPC   C1321593   4.335   7.130   3.025 -0.3242  0.1361  0.6390
  177DOPC  H13A21594   4.276   7.102   3.111 -2.7061 -2.8274 -1.7484
  177DOPC  H13B21595   4.277   7.200   2.967 -2.7250  0.2014  2.9239
  177DOPC  H13C21596   4.337   7.039   2.967  0.7583  0.8921 -0.5740
  177DOPC   C1421597   4.541   7.210   2.923 -0.4528  0.4742 -0.1100
  177DOPC  H14A21598   4.628   7.273   2.936 -0.3855  0.3323  0.1265
  177DOPC  H14B21599   4.563   7.117   2.873  0.9827 -0.8273  2.7248
  177DOPC  H14C21600   4.469   7.267   2.867 -0.1637  1.1493  0.1931
  177DOPC   C1521601   4.443   7.307   3.125 -0.8200  0.6078 -0.8520
  177DOPC  H15A21602   4.414   7.292   3.228  1.4562 -0.5640 -0.3158
  177DOPC  H15B21603   4.369   7.365   3.072 -0.7085  0.8740 -0.7200
  177DOPC  H15C21604   4.528   7.373   3.125 -0.0723 -0.3083  0.4386
  177DOPC   C1121605   4.515   7.077   3.298  0.0990 -0.2463 -0.0741
  177DOPC  H11A21606   4.593   7.027   3.358 -0.8144 -1.5988  0.0294
  177DOPC  H11B21607   4.502   7.179   3.341 -1.5475 -0.7301  0.6468
  177DOPC     P21608   4.385   6.857   3.284 -0.1506  0.1868  0.0347
  177DOPC   O1321609   4.527   6.810   3.303 -0.0992 -0.1272  0.1392
  177DOPC   O1421610   4.303   6.833   3.165 -1.0112  0.2051  0.1490
  177DOPC   O1221611   4.392   7.008   3.325 -1.0718  0.6419  0.7962
  177DOPC   O1121612   4.306   6.793   3.402  0.1156 -0.3389 -0.0806
  177DOPC    C121613   4.180   6.837   3.443 -0.9183 -0.0668 -0.0196
  177DOPC    HA21614   4.105   6.757   3.425 -0.8786  0.1834 -1.4053
  177DOPC    HB21615   4.148   6.930   3.392  0.6587  0.6216  0.2115
  177DOPC    C221616   4.179   6.856   3.598  0.8524  0.2788  0.1505
  177DOPC    HS21617   4.257   6.928   3.633  0.5029  0.4357  0.6233
  177DOPC   O2121618   4.187   6.724   3.661  0.4715 -0.0568 -0.3038
  177DOPC   C2121619   4.308   6.677   3.670  0.2457  0.2602 -0.1545
  177DOPC   O2221620   4.413   6.735   3.667 -0.1283 -0.5893  0.2310
  177DOPC   C2221621   4.291   6.531   3.713  0.0748  0.1348 -0.6694
  177DOPC   H2R21622   4.395   6.497   3.730  0.6397  0.3861 -3.1588
  177DOPC   H2S21623   4.246   6.474   3.629  1.8560 -3.7242  0.7713
  177DOPC    C321624   4.047   6.922   3.632  0.4721  0.1623 -0.2676
  177DOPC    HX21625   3.971   6.849   3.596 -0.2013 -0.1651  1.7148
  177DOPC    HY21626   4.036   7.025   3.591 -1.4849  0.9968  2.0760
  177DOPC   O3121627   4.036   6.941   3.770  0.1979  0.0974 -0.1465
  177DOPC   C3121628   3.914   6.943   3.828  0.5352  0.4438  0.3032
  177DOPC   O3221629   3.810   6.920   3.768 -0.1629  0.1634 -0.6351
  177DOPC   C3221630   3.931   6.993   3.967 -0.1180  0.0571  0.1863
  177DOPC   H2X21631   4.035   7.018   3.998  0.0204 -0.3231  0.0276
  177DOPC   H2Y21632   3.865   7.083   3.971  0.3674  0.5559 -2.0283
  177DOPC   C2321633   4.210   6.519   3.843 -0.6362 -0.2798  0.1895
  177DOPC   H3R21634   4.101   6.531   3.824 -0.6491 -0.5366  0.1064
  177DOPC   H3S21635   4.233   6.589   3.927  2.9355 -0.2638 -0.6481
  177DOPC   C2421636   4.247   6.382   3.909  0.7063 -0.1423  0.2018
  177DOPC   H4R21637   4.347   6.383   3.957  1.3434  0.1133 -1.0888
  177DOPC   H4S21638   4.240   6.306   3.828 -2.6489 -1.4655  1.5477
  177DOPC   C2521639   4.147   6.346   4.024 -0.4603  0.1466 -0.4600
  177DOPC   H5R21640   4.037   6.347   4.007 -0.5416  1.3648  0.0095
  177DOPC   H5S21641   4.163   6.425   4.100  1.7442  0.3596 -1.0737
  177DOPC   C2621642   4.178   6.210   4.094  0.4775  0.0787 -0.2063
  177DOPC   H6R21643   4.282   6.216   4.132 -0.4077  0.5395  2.3039
  177DOPC   H6S21644   4.170   6.129   4.018 -1.0414  0.3701 -0.3810
  177DOPC   C2721645   4.082   6.189   4.211 -0.2280  0.2776  0.6410
  177DOPC   H7R21646   3.982   6.174   4.163 -0.2430  0.4712  0.6116
  177DOPC   H7S21647   4.073   6.280   4.274 -0.3776  0.4252  0.4102
  177DOPC   C2821648   4.114   6.065   4.294 -0.4902  0.2565  0.3207
  177DOPC   H8R21649   4.219   6.054   4.327  0.5045 -2.9458 -3.1537
  177DOPC   H8S21650   4.099   5.981   4.223 -0.2326  1.0856 -0.7480
  177DOPC   C2921651   4.004   6.043   4.394  0.0023  0.4670  0.5005
  177DOPC   H9R21652   3.905   6.038   4.347 -0.5556  0.9015  1.5912
  177DOPC  C21021653   4.020   6.004   4.525 -0.4318 -0.5657  0.0798
  177DOPC  H10R21654   3.930   5.976   4.583 -1.9016  1.8514 -0.8682
  177DOPC  C21121655   4.157   5.981   4.592 -0.1050 -0.3013  0.3724
  177DOPC  H11R21656   4.210   6.078   4.589 -0.6764  0.0351  0.8456
  177DOPC  H11S21657   4.212   5.908   4.530  2.6473  0.8073  1.3401
  177DOPC  C21221658   4.147   5.924   4.734  0.2089  0.3545  0.3296
  177DOPC  H12R21659   4.243   5.881   4.769 -0.3258 -0.2141  1.1312
  177DOPC  H12S21660   4.081   5.835   4.738  1.0615 -0.3172 -0.3348
  177DOPC  C21321661   4.098   6.025   4.837  0.1166  0.3359  0.1112
  177DOPC  H13R21662   4.003   6.071   4.801  0.2058  1.8983  1.7326
  177DOPC  H13S21663   4.172   6.107   4.844  0.9500 -0.5107  2.1685
  177DOPC  C21421664   4.088   5.977   4.985 -0.0416  0.3065 -0.2077
  177DOPC  H14R21665   4.190   5.934   4.998  0.0156 -0.5173 -2.7862
  177DOPC  H14S21666   4.017   5.892   4.992 -0.5585  0.7153 -0.4427
  177DOPC  C21521667   4.064   6.094   5.078  0.4470  0.4645  1.2095
  177DOPC  H15R21668   4.098   6.192   5.037 -0.7800  0.4946  0.1960
  177DOPC  H15S21669   4.124   6.075   5.169 -0.6161  0.5006  1.9428
  177DOPC  C21621670   3.911   6.108   5.111 -0.1840 -0.4190 -0.0776
  177DOPC  H16R21671   3.854   6.103   5.016 -1.9033  1.4964  0.7751
  177DOPC  H16S21672   3.902   6.209   5.156 -0.8646 -0.3985 -0.2420
  177DOPC  C21721673   3.860   5.990   5.197 -0.0039  0.6461 -0.2290
  177DOPC  H17R21674   3.922   5.983   5.289 -1.0904 -0.0012  0.4825
  177DOPC  H17S21675   3.875   5.897   5.138 -1.4771  0.5672 -0.5082
  177DOPC  C21821676   3.716   6.007   5.254 -0.2870 -0.0208 -0.3783
  177DOPC  H18R21677   3.705   5.926   5.329  0.3564  1.0612  0.9258
  177DOPC  H18S21678   3.638   5.996   5.175  0.9252  0.5271 -1.6868
  177DOPC  H18T21679   3.707   6.110   5.293  0.8821 -0.4258  1.0349
  177DOPC   C3321680   3.888   6.875   4.049  0.1564  0.5855 -0.5200
  177DOPC   H3X21681   3.800   6.819   4.010  1.0118 -0.5958 -0.7979
  177DOPC   H3Y21682   3.877   6.913   4.153 -1.9837 -0.2941 -0.3751
  177DOPC   C3421683   4.006   6.774   4.063  0.2166 -0.0729 -0.1018
  177DOPC   H4X21684   4.103   6.807   4.022  1.4268  0.3588  2.8218
  177DOPC   H4Y21685   3.970   6.686   4.007 -0.7928 -1.0018  1.8984
  177DOPC   C3521686   4.038   6.730   4.208 -0.4433  0.1217  0.1096
  177DOPC   H5X21687   4.054   6.815   4.279  0.5862 -0.1241  0.1885
  177DOPC   H5Y21688   4.138   6.683   4.210 -1.4879 -2.2490  0.2855
  177DOPC   C3621689   3.946   6.620   4.271 -0.1099 -0.3173  0.0128
  177DOPC   H6X21690   3.923   6.542   4.195 -3.9764  2.0299 -1.5473
  177DOPC   H6Y21691   3.997   6.564   4.353  3.9877  2.0419 -0.6616
  177DOPC   C3721692   3.813   6.669   4.325 -0.0958 -0.0030  0.0145
  177DOPC   H7X21693   3.753   6.712   4.242 -0.0969  2.3154  1.1337
  177DOPC   H7Y21694   3.755   6.581   4.362 -2.0781  1.1502 -0.2063
  177DOPC   C3821695   3.829   6.768   4.446 -0.3426  0.3950  1.2990
  177DOPC   H8X21696   3.891   6.849   4.402  0.1757 -0.8449 -0.3227
  177DOPC   H8Y21697   3.886   6.709   4.521  2.6750 -0.1640 -1.2429
  177DOPC   C3921698   3.699   6.804   4.511 -0.0297 -0.0981  0.2583
  177DOPC   H9X21699   3.619   6.844   4.447 -1.8360 -0.6446  2.0671
  177DOPC  C31021700   3.681   6.830   4.644 -1.5462  0.1401  0.1515
  177DOPC  H10X21701   3.582   6.867   4.673 -2.3557 -1.1512 -0.8421
  177DOPC  C31121702   3.789   6.823   4.755  0.2231  0.5912  0.5543
  177DOPC  H11X21703   3.894   6.797   4.732 -0.3256 -0.7129 -0.6416
  177DOPC  H11Y21704   3.749   6.742   4.821 -1.4010 -0.6056 -1.7623
  177DOPC  C31221705   3.776   6.957   4.828  0.1193 -0.2479 -0.0968
  177DOPC  H12X21706   3.678   6.989   4.869  1.3245  1.7432  1.3945
  177DOPC  H12Y21707   3.816   7.040   4.765 -0.3150  2.6332  3.0875
  177DOPC  C31321708   3.868   6.953   4.954  0.3868  0.4291 -0.8513
  177DOPC  H13X21709   3.823   6.870   5.013 -0.4466  0.5959 -1.2398
  177DOPC  H13Y21710   3.971   6.917   4.932  0.9069  0.8810  0.6853
  177DOPC  C31421711   3.868   7.077   5.035  0.0121 -0.9116  0.1493
  177DOPC  H14X21712   3.922   7.154   4.976 -0.0389 -0.6802  0.4026
  177DOPC  H14Y21713   3.765   7.111   5.058 -0.3809 -1.5075 -0.6988
  177DOPC  C31521714   3.941   7.067   5.171 -0.0421  0.0005 -0.0967
  177DOPC  H15X21715   4.044   7.045   5.136  0.4325  2.4079 -0.4297
  177DOPC  H15Y21716   3.903   6.985   5.236 -1.8613 -0.8414 -2.0797
  177DOPC  C31621717   3.919   7.188   5.265  0.0876  0.2674  0.3748
  177DOPC  H16X21718   3.962   7.281   5.222 -0.4660  1.5459  2.4268
  177DOPC  H16Y21719   3.809   7.205   5.269  0.3191  1.8162  0.9824
  177DOPC  C31721720   3.962   7.158   5.412  0.4632  0.0856  0.2715
  177DOPC  H17X21721   4.072   7.138   5.407  0.7255  1.4410  0.1856
  177DOPC  H17Y21722   3.954   7.256   5.464  0.2604  0.2008  0.0225
  177DOPC  C31821723   3.889   7.050   5.491  0.1268  0.2862 -0.1155
  177DOPC  H18X21724   3.778   7.054   5.494  0.1659  1.0224  1.8421
  177DOPC  H18Y21725   3.919   6.953   5.446 -1.0327  0.5886 -1.6032
  177DOPC  H18Z21726   3.911   7.058   5.600 -0.6366 -2.6610  0.3530
  178DOPC     N21727   5.136   5.538   2.841  0.0728 -0.2925 -0.2316
  178DOPC   C1221728   5.086   5.611   2.963  0.2402 -0.2800  0.1117
  178DOPC  H12A21729   4.993   5.654   2.930  1.9508  2.4187 -1.5245
  178DOPC  H12B21730   5.136   5.701   2.996 -2.5747  1.9039 -1.1355
  178DOPC   C1321731   5.211   5.630   2.744 -0.9422  0.2462  0.0759
  178DOPC  H13A21732   5.241   5.567   2.661 -1.7424 -1.4405  1.0333
  178DOPC  H13B21733   5.138   5.702   2.711 -0.7136  0.5552  0.2348
  178DOPC  H13C21734   5.283   5.691   2.797 -1.1761 -0.1705  0.8828
  178DOPC   C1421735   5.026   5.465   2.779 -0.5437  0.5479  0.7139
  178DOPC  H14A21736   5.056   5.417   2.687  0.3125  0.9650  0.7613
  178DOPC  H14B21737   4.988   5.391   2.848 -0.8098 -0.5567 -0.5850
  178DOPC  H14C21738   4.945   5.534   2.761  0.8330  1.9354 -0.5093
  178DOPC   C1521739   5.237   5.436   2.890  0.6030 -0.3964 -0.1787
  178DOPC  H15A21740   5.193   5.343   2.923  0.5736 -0.6027 -0.7746
  178DOPC  H15B21741   5.285   5.473   2.979 -0.1449 -2.0141  0.9526
  178DOPC  H15C21742   5.320   5.421   2.822  1.5151  2.4906  0.1550
  178DOPC   C1121743   5.055   5.517   3.086  0.2177  0.1052  0.4207
  178DOPC  H11A21744   5.150   5.470   3.120  0.0376  0.7503  1.8802
  178DOPC  H11B21745   5.019   5.577   3.172  0.5004 -2.2246  2.2786
  178DOPC     P21746   4.808   5.454   3.051 -0.0743 -0.0285 -0.1106
  178DOPC   O1321747   4.724   5.338   3.010 -0.8760  0.4309  0.6054
  178DOPC   O1421748   4.797   5.571   2.964 -0.2227 -0.4094  0.0536
  178DOPC   O1221749   4.958   5.417   3.058 -0.2931  0.1282 -0.2756
  178DOPC   O1121750   4.765   5.495   3.199  0.0182  0.5200  0.1283
  178DOPC    C121751   4.752   5.416   3.313 -0.1896 -0.2413  0.5620
  178DOPC    HA21752   4.798   5.475   3.395 -1.6277  1.1760  0.3993
  178DOPC    HB21753   4.800   5.316   3.311  2.5963  1.0098  0.3191
  178DOPC    C221754   4.604   5.396   3.359 -0.6542  0.8488 -0.2060
  178DOPC    HS21755   4.549   5.371   3.265 -0.6537 -3.2225  0.6899
  178DOPC   O2121756   4.556   5.515   3.423  0.3652 -0.1662  0.8464
  178DOPC   C2121757   4.434   5.503   3.459  0.3533 -0.7485 -0.3239
  178DOPC   O2221758   4.352   5.421   3.427  0.3225 -0.4176  0.1885
  178DOPC   C2221759   4.411   5.628   3.550  0.2598  0.2109  0.4411
  178DOPC   H2R21760   4.416   5.711   3.476 -0.2010  0.9743  1.2539
  178DOPC   H2S21761   4.503   5.634   3.611 -0.2871  1.0552  1.2098
  178DOPC    C321762   4.598   5.271   3.451 -0.1226  0.3698 -0.5762
  178DOPC    HX21763   4.599   5.183   3.383  0.9159  1.2518 -1.7514
  178DOPC    HY21764   4.500   5.276   3.504 -0.9130  0.1142 -1.9555
  178DOPC   O3121765   4.709   5.253   3.538  0.2249  0.6749  0.1035
  178DOPC   C3121766   4.713   5.295   3.658 -0.0814  0.2257 -0.6936
  178DOPC   O3221767   4.629   5.371   3.708 -0.0679  0.1201  0.1069
  178DOPC   C3221768   4.840   5.235   3.717 -0.0665 -0.3209  0.1609
  178DOPC   H2X21769   4.855   5.127   3.699 -0.8828 -0.6767  1.4361
  178DOPC   H2Y21770   4.921   5.298   3.675 -0.8825  2.4770  2.4270
  178DOPC   C2321771   4.282   5.627   3.632 -0.5912 -1.1473 -0.2862
  178DOPC   H3R21772   4.190   5.625   3.571 -0.5379 -1.1461 -0.3666
  178DOPC   H3S21773   4.277   5.725   3.683  1.0367 -0.3364 -1.6203
  178DOPC   C2421774   4.260   5.520   3.745  0.1880  0.1860  0.4722
  178DOPC   H4R21775   4.349   5.521   3.811  1.4499  1.1927 -1.1514
  178DOPC   H4S21776   4.253   5.416   3.706 -0.1029  0.1811  0.5349
  178DOPC   C2521777   4.140   5.551   3.832  0.5279  0.0550 -0.3970
  178DOPC   H5R21778   4.050   5.538   3.768  0.0223 -2.7791  0.7331
  178DOPC   H5S21779   4.131   5.652   3.876 -2.4855 -0.9546  1.6335
  178DOPC   C2621780   4.115   5.449   3.945 -0.0699  0.4378  0.5265
  178DOPC   H6R21781   4.215   5.428   3.987  1.9967  2.0073 -3.1727
  178DOPC   H6S21782   4.090   5.350   3.901  0.8648  0.5234 -0.2411
  178DOPC   C2721783   4.001   5.480   4.043  0.1336  0.3834 -0.3793
  178DOPC   H7R21784   3.901   5.458   3.999  1.7753 -0.8590 -3.8939
  178DOPC   H7S21785   4.006   5.591   4.055  1.3247  0.2113  0.8512
  178DOPC   C2821786   4.022   5.405   4.176 -0.1837 -0.2280  0.9888
  178DOPC   H8R21787   4.026   5.296   4.154  1.2486 -0.1325  0.6175
  178DOPC   H8S21788   3.930   5.411   4.237  0.4619  1.9834  1.8276
  178DOPC   C2921789   4.139   5.444   4.270 -0.4542 -0.6069  0.2155
  178DOPC   H9R21790   4.238   5.440   4.221  1.1462 -1.3083  3.2717
  178DOPC  C21021791   4.132   5.479   4.403 -1.2079  0.3135  0.1682
  178DOPC  H10R21792   4.223   5.524   4.446 -0.8455  0.6512 -0.9043
  178DOPC  C21121793   4.014   5.484   4.498 -0.5447 -0.4612  0.1830
  178DOPC  H11R21794   4.052   5.435   4.590  0.4518 -0.0899 -0.0177
  178DOPC  H11S21795   3.928   5.421   4.468 -1.4337  1.7879 -2.4571
  178DOPC  C21221796   3.968   5.621   4.539  0.8968  0.7641  0.4426
  178DOPC  H12R21797   3.951   5.677   4.444  0.0329 -0.3705 -0.0898
  178DOPC  H12S21798   4.044   5.681   4.593  0.6847  0.6611  0.8556
  178DOPC  C21321799   3.833   5.613   4.615 -0.3579  0.6630 -0.0860
  178DOPC  H13R21800   3.842   5.534   4.692 -0.9428  1.0903  0.4309
  178DOPC  H13S21801   3.753   5.579   4.546  0.5363 -1.3277 -0.2108
  178DOPC  C21421802   3.787   5.739   4.690 -0.4156 -0.3815  0.3212
  178DOPC  H14R21803   3.763   5.816   4.613 -0.8204 -1.8125 -1.0382
  178DOPC  H14S21804   3.869   5.772   4.757 -0.9613 -0.6219  1.1140
  178DOPC  C21521805   3.677   5.710   4.783 -0.4492  0.9761 -0.3510
  178DOPC  H15R21806   3.603   5.645   4.732  1.2529 -1.3214 -0.0817
  178DOPC  H15S21807   3.629   5.808   4.804  1.0952  0.9609  4.2656
  178DOPC  C21621808   3.728   5.654   4.917 -0.6094  1.1558 -0.1435
  178DOPC  H16R21809   3.773   5.739   4.972  1.3212 -1.5556  2.8994
  178DOPC  H16S21810   3.806   5.576   4.910  0.9151  2.4020  2.0030
  178DOPC  C21721811   3.614   5.607   5.017  0.2875 -0.5549  0.0699
  178DOPC  H17R21812   3.571   5.509   4.988 -1.4943  0.3223 -0.4419
  178DOPC  H17S21813   3.530   5.679   5.004  0.9144  0.1129 -0.3403
  178DOPC  C21821814   3.660   5.617   5.163 -0.4722  0.0358 -0.0273
  178DOPC  H18R21815   3.595   5.560   5.232  0.6043 -1.4729 -0.2119
  178DOPC  H18S21816   3.678   5.723   5.189  1.9067 -0.3535  0.1337
  178DOPC  H18T21817   3.754   5.558   5.170 -0.6081  0.0529  2.7032
  178DOPC   C3321818   4.837   5.242   3.876 -0.0128  0.5263 -0.2137
  178DOPC   H3X21819   4.760   5.173   3.915 -1.4762  2.2369  0.0332
  178DOPC   H3Y21820   4.781   5.335   3.901 -2.4879 -0.7880 -0.6538
  178DOPC   C3421821   4.970   5.225   3.945  0.2846 -0.2761 -0.8901
  178DOPC   H4X21822   5.038   5.309   3.921 -1.2125  1.0049 -0.7812
  178DOPC   H4Y21823   5.009   5.124   3.919  0.0382 -1.0648  1.5146
  178DOPC   C3521824   4.960   5.218   4.106  0.3868 -0.0987 -0.5560
  178DOPC   H5X21825   5.056   5.200   4.159  0.6473  0.6743 -0.7525
  178DOPC   H5Y21826   4.891   5.130   4.111  1.0259 -0.7572 -2.5691
  178DOPC   C3621827   4.907   5.347   4.168  0.0916  0.5769  0.5595
  178DOPC   H6X21828   4.966   5.426   4.117  0.6529 -1.6982 -2.6124
  178DOPC   H6Y21829   4.799   5.358   4.144 -0.1788  1.2236  1.9506
  178DOPC   C3721830   4.933   5.355   4.320  0.5241  0.4686 -0.8870
  178DOPC   H7X21831   4.871   5.439   4.358 -0.1286  0.4291 -1.8314
  178DOPC   H7Y21832   4.889   5.260   4.357 -1.8385  0.8350 -2.5349
  178DOPC   C3821833   5.082   5.368   4.360 -0.8588 -0.3996  0.0350
  178DOPC   H8X21834   5.141   5.274   4.362 -0.2898 -0.0764 -0.9883
  178DOPC   H8Y21835   5.077   5.385   4.470 -0.7614  1.7268 -0.2466
  178DOPC   C3921836   5.155   5.483   4.295  0.2169  0.0557  0.3967
  178DOPC   H9X21837   5.241   5.449   4.235  0.2572 -0.2166  0.6049
  178DOPC  C31021838   5.118   5.615   4.288  0.0120  0.6590 -0.1724
  178DOPC  H10X21839   5.197   5.682   4.251  2.1137  0.0541  2.8665
  178DOPC  C31121840   4.991   5.670   4.348 -0.4426  0.7566  0.2574
  178DOPC  H11X21841   4.963   5.598   4.427  0.4189  0.8318  0.6436
  178DOPC  H11Y21842   4.906   5.664   4.277 -1.5965 -1.4902  1.7256
  178DOPC  C31221843   5.001   5.808   4.418 -0.0787  0.1602 -0.1930
  178DOPC  H12X21844   5.064   5.795   4.509 -0.3889 -0.6757 -0.0950
  178DOPC  H12Y21845   4.899   5.844   4.444 -0.8615 -0.4219 -2.2739
  178DOPC  C31321846   5.070   5.919   4.337 -0.3435 -0.7696  0.6845
  178DOPC  H13X21847   5.181   5.912   4.345 -0.3181  0.5467  2.0119
  178DOPC  H13Y21848   5.044   5.899   4.231  2.4544  0.5610 -0.3540
  178DOPC  C31421849   5.045   6.065   4.359  0.5050 -0.8492 -0.7055
  178DOPC  H14X21850   5.126   6.131   4.321 -0.7566  0.5636 -1.0581
  178DOPC  H14Y21851   4.955   6.095   4.301 -0.4947  0.0067  1.1911
  178DOPC  C31521852   5.014   6.099   4.501 -0.2165  0.7031 -0.0354
  178DOPC  H15X21853   5.110   6.079   4.554  0.8574  2.6108 -1.1028
  178DOPC  H15Y21854   4.920   6.058   4.542  0.2563 -0.8718 -0.4764
  178DOPC  C31621855   5.003   6.249   4.519  0.1450  0.5720  0.4645
  178DOPC  H16X21856   5.102   6.291   4.495  0.3750 -1.1395 -1.8437
  178DOPC  H16Y21857   4.937   6.302   4.446  0.2971  0.8532  0.5293
  178DOPC  C31721858   4.967   6.290   4.664 -1.2391 -0.1998 -0.6951
  178DOPC  H17X21859   4.859   6.295   4.691 -0.6900 -0.1475  1.6904
  178DOPC  H17Y21860   5.009   6.220   4.739  0.7159  0.7836 -0.8054
  178DOPC  C31821861   5.031   6.433   4.697  0.9422 -0.0519 -0.1966
  178DOPC  H18X21862   4.967   6.509   4.646 -0.4881 -1.7052 -0.9815
  178DOPC  H18Y21863   5.022   6.445   4.807 -1.4028 -0.1437 -0.3279
  178DOPC  H18Z21864   5.136   6.446   4.664  0.2795  1.5178 -1.8781
  179DOPC     N21865   6.108   5.057   2.852 -0.0162 -0.3151  0.4608
  179DOPC   C1221866   6.116   5.161   2.965 -0.2035  0.0662 -0.0482
  179DOPC  H12A21867   6.129   5.255   2.913 -0.5118  1.3857  2.1208
  179DOPC  H12B21868   6.208   5.157   3.020 -0.9714 -2.0494  1.1851
  179DOPC   C1321869   6.217   5.067   2.757 -0.7702 -0.2289  0.2929
  179DOPC  H13A21870   6.305   5.042   2.814  1.0328  0.2159 -2.1860
  179DOPC  H13B21871   6.196   5.003   2.673 -0.6212 -0.3875  0.3754
  179DOPC  H13C21872   6.237   5.167   2.722  3.0764 -0.8299  0.4321
  179DOPC   C1421873   5.979   5.074   2.768  0.2879  0.8475 -0.0621
  179DOPC  H14A21874   5.974   5.175   2.729  2.1842  1.0391  0.1101
  179DOPC  H14B21875   5.970   4.999   2.691  3.1038  1.2350 -0.8904
  179DOPC  H14C21876   5.887   5.069   2.825 -0.5144  1.1899 -1.2847
  179DOPC   C1521877   6.109   4.908   2.908  0.2162 -0.9663 -0.1942
  179DOPC  H15A21878   6.209   4.889   2.945 -0.1725 -0.0698  1.4134
  179DOPC  H15B21879   6.098   4.847   2.819  1.3660 -1.7561  0.1909
  179DOPC  H15C21880   6.035   4.892   2.985  1.6910  1.8353  1.9998
  179DOPC   C1121881   5.992   5.168   3.059  0.6295 -0.0302 -0.3061
  179DOPC  H11A21882   5.942   5.069   3.068  0.6383  0.0786  1.2382
  179DOPC  H11B21883   6.026   5.195   3.161  0.0643 -0.3542 -0.0251
  179DOPC     P21884   5.915   5.418   3.047  0.5500 -0.0607 -0.1782
  179DOPC   O1321885   5.790   5.496   3.026 -0.4227 -0.3150  0.1135
  179DOPC   O1421886   6.038   5.461   2.977  0.1510  0.1316 -0.3857
  179DOPC   O1221887   5.892   5.266   3.015  0.7666 -0.1171  0.4015
  179DOPC   O1121888   5.940   5.415   3.207 -0.3945 -0.1247 -0.4209
  179DOPC    C121889   5.837   5.374   3.296 -0.1159  0.3298 -0.6179
  179DOPC    HA21890   5.882   5.304   3.370 -2.1390 -2.3982 -1.7850
  179DOPC    HB21891   5.765   5.309   3.242 -0.6863 -0.1773  0.7044
  179DOPC    C221892   5.765   5.502   3.362 -1.0251  0.0588  0.2407
  179DOPC    HS21893   5.716   5.551   3.276  0.9743  2.1423  0.1730
  179DOPC   O2121894   5.876   5.578   3.418  0.3999  0.2854 -0.1348
  179DOPC   C2121895   5.855   5.711   3.419  0.2252 -0.5387 -0.2444
  179DOPC   O2221896   5.759   5.759   3.362 -0.2534 -0.3562  0.4505
  179DOPC   C2221897   5.962   5.789   3.486  0.0406  0.0986  0.3336
  179DOPC   H2R21898   6.034   5.812   3.405  1.1999 -0.5095  1.1629
  179DOPC   H2S21899   6.011   5.712   3.549  1.4917 -0.0755 -0.9418
  179DOPC    C321900   5.659   5.474   3.465  0.1152  0.3027  0.6353
  179DOPC    HX21901   5.590   5.402   3.415 -0.8060 -0.2308  2.5755
  179DOPC    HY21902   5.610   5.564   3.509  0.0989  0.6186 -0.0278
  179DOPC   O3121903   5.705   5.395   3.572  0.0172 -0.3143  0.5143
  179DOPC   C3121904   5.758   5.457   3.686 -0.5843  0.7005  0.7121
  179DOPC   O3221905   5.773   5.578   3.693 -0.9872  0.0598  0.9440
  179DOPC   C3221906   5.804   5.353   3.787 -0.3378  0.1254  0.2423
  179DOPC   H2X21907   5.719   5.308   3.844  0.5495  0.8622  2.2268
  179DOPC   H2Y21908   5.853   5.279   3.720 -0.3486 -0.8679  1.2907
  179DOPC   C2321909   5.923   5.916   3.560  0.5869 -0.1653  0.4661
  179DOPC   H3R21910   5.876   5.986   3.488  4.2423  0.9077 -1.1452
  179DOPC   H3S21911   6.015   5.965   3.598  2.7977 -2.6412 -1.3278
  179DOPC   C2421912   5.824   5.886   3.680 -0.2365 -0.8504 -0.4754
  179DOPC   H4R21913   5.866   5.811   3.751 -0.1050 -1.3321 -1.0603
  179DOPC   H4S21914   5.733   5.833   3.645 -2.4770  1.3940  1.5108
  179DOPC   C2521915   5.775   6.015   3.751 -0.9351 -0.0998 -0.0207
  179DOPC   H5R21916   5.733   6.088   3.678 -0.8662 -1.3981 -1.4011
  179DOPC   H5S21917   5.864   6.074   3.784 -1.5343  0.5737  0.4293
  179DOPC   C2621918   5.687   6.003   3.872  0.3775 -0.0400 -0.4789
  179DOPC   H6R21919   5.636   6.101   3.889 -0.8724 -0.6757 -0.3932
  179DOPC   H6S21920   5.737   5.953   3.957  0.2229  1.5428  0.5757
  179DOPC   C2721921   5.560   5.933   3.831 -0.3168  0.2991  0.2764
  179DOPC   H7R21922   5.486   5.933   3.914 -2.4844  0.1182 -1.5909
  179DOPC   H7S21923   5.582   5.827   3.805  1.8968  0.8399 -0.3239
  179DOPC   C2821924   5.479   6.007   3.726 -0.0201 -0.4306  0.9916
  179DOPC   H8R21925   5.538   5.987   3.634 -2.9860 -0.6758 -0.9979
  179DOPC   H8S21926   5.477   6.118   3.737  0.1136 -0.5584  2.6403
  179DOPC   C2921927   5.344   5.950   3.675 -0.2492  0.3335 -0.4271
  179DOPC   H9R21928   5.326   5.886   3.587  1.3363 -0.7940  0.0039
  179DOPC  C21021929   5.235   5.964   3.749  0.6386  0.7281 -0.0631
  179DOPC  H10R21930   5.143   5.911   3.720  0.5141  1.7941 -1.7511
  179DOPC  C21121931   5.228   6.030   3.879  0.6134 -0.0096 -0.4785
  179DOPC  H11R21932   5.287   6.122   3.856  1.0423 -0.0678  0.3540
  179DOPC  H11S21933   5.274   5.977   3.964 -2.2488 -1.7748  0.1239
  179DOPC  C21221934   5.080   6.072   3.914 -0.0475 -0.1902 -0.1583
  179DOPC  H12R21935   5.034   6.119   3.825 -1.6334 -0.7892  0.3113
  179DOPC  H12S21936   5.085   6.141   4.001  0.2332  0.0646 -0.3745
  179DOPC  C21321937   4.986   5.955   3.942 -0.1508 -0.2430 -0.0189
  179DOPC  H13R21938   4.934   5.971   4.039  1.0156 -1.3208  0.8227
  179DOPC  H13S21939   5.052   5.867   3.955 -2.2659 -1.8579  0.3047
  179DOPC  C21421940   4.875   5.922   3.842 -0.3903  0.4421  0.8049
  179DOPC  H14R21941   4.904   5.944   3.737 -0.7058 -0.0888  0.6005
  179DOPC  H14S21942   4.796   5.995   3.869 -1.8840 -0.5398 -0.7178
  179DOPC  C21521943   4.843   5.774   3.854  0.2525  0.0116  0.0279
  179DOPC  H15R21944   4.736   5.775   3.823 -1.2776  0.5921  4.5786
  179DOPC  H15S21945   4.834   5.743   3.960  0.6581 -4.0034 -0.9597
  179DOPC  C21621946   4.929   5.664   3.780 -0.2506 -0.7145 -0.7074
  179DOPC  H16R21947   4.909   5.561   3.815  1.9734 -0.1235  2.7068
  179DOPC  H16S21948   5.035   5.679   3.807 -1.0502  1.1779  1.7661
  179DOPC  C21721949   4.919   5.665   3.626  0.3433 -0.1331 -0.7666
  179DOPC  H17R21950   4.957   5.768   3.613  0.7132  0.0858  1.5398
  179DOPC  H17S21951   4.813   5.666   3.591 -0.5011  0.4270  1.5772
  179DOPC  C21821952   5.012   5.569   3.553 -0.3899  0.2399  0.4171
  179DOPC  H18R21953   5.006   5.591   3.444 -0.9738  1.5062  0.6836
  179DOPC  H18S21954   4.967   5.468   3.563  1.2261 -0.4481  1.0019
  179DOPC  H18T21955   5.116   5.562   3.591  0.2615 -1.7669 -1.4884
  179DOPC   C3321956   5.895   5.422   3.891 -0.3344 -0.3371 -0.1344
  179DOPC   H3X21957   5.850   5.511   3.940 -0.2108 -0.4650  0.2188
  179DOPC   H3Y21958   5.991   5.452   3.844  0.1683 -1.6620 -0.0004
  179DOPC   C3421959   5.935   5.318   4.003 -0.0665 -0.4905  0.1077
  179DOPC   H4X21960   5.946   5.218   3.957 -0.5352 -0.9142  0.8834
  179DOPC   H4Y21961   5.845   5.309   4.068 -1.2785  0.4639 -1.3456
  179DOPC   C3521962   6.066   5.348   4.081  0.7088  0.3378  0.7440
  179DOPC   H5X21963   6.056   5.440   4.142 -0.4388  0.6452  0.1139
  179DOPC   H5Y21964   6.141   5.373   4.003 -0.8645  2.1916 -0.2649
  179DOPC   C3621965   6.125   5.239   4.175 -0.1059  0.7294 -0.6377
  179DOPC   H6X21966   6.160   5.145   4.130  2.5731  0.5866  1.5063
  179DOPC   H6Y21967   6.211   5.285   4.228 -0.9964  1.5973  0.1178
  179DOPC   C3721968   6.015   5.208   4.279 -0.3070  0.8171 -0.6378
  179DOPC   H7X21969   5.972   5.304   4.315 -1.0378  0.5935 -0.9145
  179DOPC   H7Y21970   5.943   5.141   4.227  2.0645 -1.5794 -1.0514
  179DOPC   C3821971   6.081   5.139   4.408  0.7883 -0.3112  0.2327
  179DOPC   H8X21972   6.156   5.209   4.451  0.1963  0.3662  0.1775
  179DOPC   H8Y21973   6.143   5.051   4.378 -1.1744 -0.9721 -2.2295
  179DOPC   C3921974   5.979   5.096   4.505 -0.3433 -0.5657  0.0267
  179DOPC   H9X21975   5.909   5.024   4.460 -1.0050  0.3395 -0.4182
  179DOPC  C31021976   5.962   5.146   4.625  0.8281 -0.9264  0.1927
  179DOPC  H10X21977   5.868   5.130   4.680  1.8470  1.3815  2.8472
  179DOPC  C31121978   6.040   5.258   4.697  0.2122 -0.3523  0.2623
  179DOPC  H11X21979   6.149   5.244   4.685  0.3875  0.4702  0.8576
  179DOPC  H11Y21980   6.019   5.258   4.806  1.7451  2.6493  0.6557
  179DOPC  C31221981   6.008   5.406   4.651 -0.3445  0.1244  0.0096
  179DOPC  H12X21982   5.897   5.418   4.643 -0.3296  0.3896  0.1916
  179DOPC  H12Y21983   6.046   5.430   4.549 -3.0890  0.2789 -1.0718
  179DOPC  C31321984   6.076   5.513   4.742 -1.2188  0.6427  0.4350
  179DOPC  H13X21985   6.023   5.520   4.839  0.5774  0.1412  1.4952
  179DOPC  H13Y21986   6.179   5.473   4.758 -0.3513  1.7308 -2.0011
  179DOPC  C31421987   6.090   5.648   4.665 -0.2611 -0.1873 -0.5438
  179DOPC  H14X21988   6.160   5.638   4.579 -0.5477  0.9603 -0.9346
  179DOPC  H14Y21989   5.988   5.684   4.639 -0.7839 -1.1358  0.1528
  179DOPC  C31521990   6.157   5.751   4.761  0.1061  0.2879 -0.0296
  179DOPC  H15X21991   6.259   5.724   4.796  1.1695  1.9315 -1.7174
  179DOPC  H15Y21992   6.093   5.757   4.852 -0.4412 -0.2374 -0.3661
  179DOPC  C31621993   6.170   5.892   4.708 -0.5820  0.5112  0.1972
  179DOPC  H16X21994   6.065   5.925   4.689 -0.0701  2.4167  0.5205
  179DOPC  H16Y21995   6.211   5.945   4.796  0.7502 -0.8611  0.4395
  179DOPC  C31721996   6.242   5.917   4.583 -0.1243 -0.3678 -0.0680
  179DOPC  H17X21997   6.341   5.865   4.583 -0.2034 -0.6024  2.0468
  179DOPC  H17Y21998   6.169   5.878   4.509 -0.5717  2.2011 -1.0553
  179DOPC  C31821999   6.257   6.068   4.545 -0.0721  0.1496 -0.6448
  179DOPC  H18X22000   6.274   6.132   4.634 -2.2557 -0.1685  0.0450
  179DOPC  H18Y22001   6.345   6.078   4.477  0.5542 -0.0900  0.1046
  179DOPC  H18Z22002   6.184   6.113   4.475 -0.2415 -1.8626 -1.8457
  180DOPC     N22003   6.130   3.515   2.721 -0.0593  0.8343  0.6052
  180DOPC   C1222004   6.150   3.470   2.864 -0.1407 -0.3741  0.1462
  180DOPC  H12A22005   6.202   3.376   2.855 -2.6409 -1.6789 -2.8628
  180DOPC  H12B22006   6.053   3.451   2.909 -0.8464 -1.0458 -1.5746
  180DOPC   C1322007   6.040   3.636   2.724 -0.0573  0.1973 -0.0705
  180DOPC  H13A22008   6.020   3.682   2.628 -1.1335 -2.5453 -1.2868
  180DOPC  H13B22009   5.946   3.605   2.768  0.3389 -1.2511 -0.1887
  180DOPC  H13C22010   6.084   3.712   2.786  0.1776 -1.4317  1.8653
  180DOPC   C1422011   6.067   3.406   2.646 -0.1007  0.1727 -0.2585
  180DOPC  H14A22012   6.027   3.440   2.552 -0.1776 -1.4706 -0.8617
  180DOPC  H14B22013   6.134   3.326   2.616 -0.5431  0.2355 -1.4453
  180DOPC  H14C22014   5.987   3.353   2.696 -0.6255  1.1219 -0.0792
  180DOPC   C1522015   6.260   3.545   2.660  0.2301 -0.1811 -0.3001
  180DOPC  H15A22016   6.249   3.587   2.561 -0.4571 -0.5026 -0.3632
  180DOPC  H15B22017   6.314   3.451   2.652  1.7181  0.5197  0.8661
  180DOPC  H15C22018   6.324   3.611   2.717  1.0741 -1.4031  0.2166
  180DOPC   C1122019   6.225   3.569   2.962  0.0665 -0.1596  0.0581
  180DOPC  H11A22020   6.178   3.668   2.945  0.8826  0.0567 -1.0727
  180DOPC  H11B22021   6.214   3.542   3.069 -1.2367 -2.7823 -0.6514
  180DOPC     P22022   6.475   3.492   2.951  0.1033 -0.2918 -0.1682
  180DOPC   O1322023   6.604   3.555   2.928  0.1828  0.0480  0.3156
  180DOPC   O1422024   6.453   3.366   2.869 -0.4032 -0.1435 -0.2686
  180DOPC   O1222025   6.358   3.593   2.919  0.0635 -0.0881  0.3007
  180DOPC   O1122026   6.462   3.452   3.111  0.2122 -1.0458 -0.0498
  180DOPC    C122027   6.577   3.466   3.197 -0.0819  0.2552 -0.0841
  180DOPC    HA22028   6.657   3.538   3.168 -0.4110  1.0592  0.9524
  180DOPC    HB22029   6.632   3.371   3.215  0.6619  0.5595 -0.6784
  180DOPC    C222030   6.533   3.524   3.339  0.6727 -0.4896  0.4144
  180DOPC    HS22031   6.624   3.548   3.399  0.1977  3.5972 -0.1674
  180DOPC   O2122032   6.443   3.432   3.400  0.2111 -0.3947  0.4348
  180DOPC   C2122033   6.486   3.382   3.515  0.0492  0.3168  0.0453
  180DOPC   O2222034   6.593   3.402   3.567 -0.2531  0.8297  0.5776
  180DOPC   C2222035   6.382   3.296   3.582 -0.2645  0.5914 -0.5155
  180DOPC   H2R22036   6.377   3.200   3.526  1.3187  0.2338 -0.0924
  180DOPC   H2S22037   6.281   3.341   3.572 -1.0869 -0.9177  0.6509
  180DOPC    C322038   6.464   3.656   3.306  0.1082 -0.0502 -0.7851
  180DOPC    HX22039   6.371   3.635   3.250  0.0388 -0.2992 -0.5779
  180DOPC    HY22040   6.524   3.714   3.232  0.9000 -0.9099 -0.8303
  180DOPC   O3122041   6.449   3.736   3.432 -0.1440  0.1051  0.1915
  180DOPC   C3122042   6.324   3.721   3.478  0.1638 -0.2502  0.4023
  180DOPC   O3222043   6.237   3.649   3.436 -0.1033  0.5753 -0.0701
  180DOPC   C3222044   6.305   3.827   3.590 -0.9237 -0.8213 -0.4992
  180DOPC   H2X22045   6.403   3.844   3.639 -1.7456  2.9692  0.1510
  180DOPC   H2Y22046   6.262   3.919   3.546 -1.2836 -0.3730  0.7493
  180DOPC   C2322047   6.410   3.294   3.737 -0.1596 -0.8642  0.0094
  180DOPC   H3R22048   6.316   3.286   3.795 -0.7337 -2.0233 -1.0344
  180DOPC   H3S22049   6.451   3.388   3.780  2.8141 -1.5416 -1.0965
  180DOPC   C2422050   6.504   3.182   3.778 -0.3056  0.0349  0.8489
  180DOPC   H4R22051   6.516   3.193   3.888 -1.8345 -1.0201  1.1495
  180DOPC   H4S22052   6.605   3.178   3.733  0.8043  3.8335  2.5617
  180DOPC   C2522053   6.434   3.050   3.766  0.1571  0.2180  0.3838
  180DOPC   H5R22054   6.413   3.029   3.659  1.2506 -0.1582  0.2262
  180DOPC   H5S22055   6.335   3.064   3.813  0.8917  0.8713  1.7987
  180DOPC   C2622056   6.499   2.922   3.826  0.2728 -0.1330  0.1316
  180DOPC   H6R22057   6.423   2.844   3.805 -3.4878  3.4754 -1.1336
  180DOPC   H6S22058   6.511   2.926   3.936 -0.2200 -1.1665  0.2352
  180DOPC   C2722059   6.635   2.889   3.751 -0.5579 -0.0815  0.6684
  180DOPC   H7R22060   6.698   2.980   3.759  0.1225 -0.3199 -1.4828
  180DOPC   H7S22061   6.612   2.879   3.643  2.5883  2.8997 -0.4700
  180DOPC   C2822062   6.709   2.752   3.791 -0.5346  0.7275  0.2075
  180DOPC   H8R22063   6.639   2.671   3.760  0.5346  0.7620 -2.5517
  180DOPC   H8S22064   6.718   2.752   3.902  0.7362 -3.1730  0.2610
  180DOPC   C2922065   6.845   2.732   3.720  0.6505  0.7172 -0.4608
  180DOPC   H9R22066   6.846   2.693   3.617  1.2260 -1.2022  0.2432
  180DOPC  C21022067   6.966   2.772   3.775  0.3160  0.4961 -0.0922
  180DOPC  H10R22068   7.056   2.738   3.722  1.0770  1.8070  0.3281
  180DOPC  C21122069   6.995   2.833   3.906 -0.3982  0.0717 -0.1058
  180DOPC  H11R22070   6.901   2.885   3.937  0.0780  1.2735 -0.6144
  180DOPC  H11S22071   7.070   2.913   3.886  1.5538 -1.7676 -0.4949
  180DOPC  C21222072   7.038   2.726   4.004 -0.1599 -0.2756  0.4364
  180DOPC  H12R22073   7.116   2.658   3.964 -0.0047 -0.6743  1.3655
  180DOPC  H12S22074   6.949   2.664   4.032 -0.4425  1.1647  3.1219
  180DOPC  C21322075   7.096   2.776   4.143 -0.6487  0.6032 -0.3708
  180DOPC  H13R22076   7.009   2.814   4.200 -2.0588  0.2043 -2.1698
  180DOPC  H13S22077   7.171   2.855   4.117 -0.1045  0.9030  1.8690
  180DOPC  C21422078   7.180   2.663   4.210  0.3270  0.7452 -0.2831
  180DOPC  H14R22079   7.252   2.614   4.140 -0.1712 -0.9826  0.3715
  180DOPC  H14S22080   7.125   2.581   4.260  1.0446 -0.6322 -1.6752
  180DOPC  C21522081   7.288   2.715   4.316  0.2760 -0.1164  0.4838
  180DOPC  H15R22082   7.255   2.801   4.378  0.2869 -0.5352  1.0792
  180DOPC  H15S22083   7.364   2.763   4.251 -0.9167  1.4549  0.2020
  180DOPC  C21622084   7.345   2.611   4.415  0.0773  0.2399  0.3238
  180DOPC  H16R22085   7.334   2.517   4.356 -0.2472  0.8780 -0.6694
  180DOPC  H16S22086   7.282   2.615   4.506 -2.1931  2.5153 -1.2183
  180DOPC  C21722087   7.504   2.635   4.441  0.1384 -0.1506  0.5014
  180DOPC  H17R22088   7.512   2.704   4.528  1.1814 -1.2301  1.2979
  180DOPC  H17S22089   7.555   2.668   4.348  3.0693 -3.0682  0.8915
  180DOPC  C21822090   7.568   2.510   4.499  0.4441 -0.4468  0.4082
  180DOPC  H18R22091   7.491   2.463   4.565  0.1174  1.4491  1.4479
  180DOPC  H18S22092   7.656   2.536   4.562  0.7600  0.4273 -0.3785
  180DOPC  H18T22093   7.596   2.435   4.422 -0.0778 -0.3511  0.1217
  180DOPC   C3322094   6.201   3.778   3.698 -0.0445 -0.1538 -0.7190
  180DOPC   H3X22095   6.106   3.744   3.651 -0.1409  1.2756 -1.6123
  180DOPC   H3Y22096   6.177   3.868   3.760  1.0991 -0.8465  0.7983
  180DOPC   C3422097   6.251   3.658   3.789 -0.0540  0.6602  0.6113
  180DOPC   H4X22098   6.345   3.683   3.843  0.1197 -0.9921  1.1105
  180DOPC   H4Y22099   6.267   3.571   3.722 -0.5296  0.8179  0.2898
  180DOPC   C3522100   6.149   3.620   3.890 -0.0547  0.0112 -0.1801
  180DOPC   H5X22101   6.050   3.588   3.850 -0.5667  0.0164  1.0437
  180DOPC   H5Y22102   6.122   3.708   3.952 -2.2385  0.1499 -1.2254
  180DOPC   C3622103   6.199   3.510   3.983  0.0267 -0.0470  0.1393
  180DOPC   H6X22104   6.232   3.417   3.932  1.9527 -1.0568  2.9498
  180DOPC   H6Y22105   6.291   3.550   4.031  0.5326 -0.6950 -0.2633
  180DOPC   C3722106   6.093   3.463   4.091  0.7309 -0.0854  0.0204
  180DOPC   H7X22107   6.068   3.541   4.167 -1.6014 -1.0887  0.3691
  180DOPC   H7Y22108   5.997   3.419   4.054 -0.9845  0.4310  3.4354
  180DOPC   C3822109   6.153   3.339   4.167 -0.1651 -0.4408  0.1092
  180DOPC   H8X22110   6.112   3.334   4.271 -0.0534 -0.2417  0.1648
  180DOPC   H8Y22111   6.261   3.347   4.190  0.0702 -1.0290 -0.7597
  180DOPC   C3922112   6.137   3.205   4.102 -0.0659  0.0876 -0.1480
  180DOPC   H9X22113   6.141   3.224   3.994 -0.2553  2.3109  0.1865
  180DOPC  C31022114   6.098   3.081   4.156 -0.9577 -0.1323 -0.4848
  180DOPC  H10X22115   6.084   2.994   4.090  1.3483 -0.2051 -0.9648
  180DOPC  C31122116   6.065   3.053   4.301  0.1162 -0.2637 -0.0897
  180DOPC  H11X22117   5.990   3.123   4.344  0.5481 -0.2565  0.6640
  180DOPC  H11Y22118   6.163   3.050   4.353  1.7767  1.3608 -2.8814
  180DOPC  C31222119   6.000   2.918   4.320  0.5269 -0.7158  0.4509
  180DOPC  H12X22120   6.067   2.836   4.288 -0.1736 -1.0723 -0.1268
  180DOPC  H12Y22121   5.905   2.912   4.263  2.0031  1.0289 -2.4348
  180DOPC  C31322122   5.983   2.889   4.471 -0.5143 -0.3335  0.5645
  180DOPC  H13X22123   6.075   2.897   4.532 -0.6423 -1.5826  0.9609
  180DOPC  H13Y22124   5.914   2.958   4.524 -0.3276 -0.1698  0.5926
  180DOPC  C31422125   5.921   2.750   4.487  0.6848  0.3190 -0.3709
  180DOPC  H14X22126   5.886   2.731   4.591  1.9675  2.3167  0.4882
  180DOPC  H14Y22127   5.828   2.743   4.427 -0.1937 -0.8005  1.0422
  180DOPC  C31522128   5.999   2.633   4.433 -0.6057 -0.5932  0.0307
  180DOPC  H15X22129   6.098   2.630   4.482 -0.3471  1.6899 -0.2890
  180DOPC  H15Y22130   6.023   2.648   4.326  0.6251 -0.5163  0.3077
  180DOPC  C31622131   5.925   2.496   4.442  0.1105  0.4252 -0.1785
  180DOPC  H16X22132   5.826   2.504   4.393 -0.4095  2.0850  1.0606
  180DOPC  H16Y22133   5.984   2.416   4.393 -1.3254 -0.5620 -0.3804
  180DOPC  C31722134   5.876   2.445   4.579 -0.7932  0.3210 -0.0300
  180DOPC  H17X22135   5.973   2.423   4.628  0.1959  1.4588 -1.4047
  180DOPC  H17Y22136   5.814   2.514   4.641  3.1797  1.1998  3.4305
  180DOPC  C31822137   5.799   2.318   4.565 -0.4680  0.4988 -0.5054
  180DOPC  H18X22138   5.719   2.336   4.490 -0.7635  0.6932 -0.1509
  180DOPC  H18Y22139   5.871   2.241   4.533 -0.5605  0.6544 -1.0875
  180DOPC  H18Z22140   5.749   2.288   4.660 -1.1059  1.1645 -0.6241
  181DOPC     N22141   0.590   4.363   2.961  0.2723 -0.0410  0.4245
  181DOPC   C1222142   0.682   4.427   3.075 -0.3619  0.2418  0.0293
  181DOPC  H12A22143   0.703   4.527   3.040  0.8336 -0.5184 -1.5697
  181DOPC  H12B22144   0.781   4.383   3.073  0.2480  1.5597 -1.8689
  181DOPC   C1322145   0.659   4.380   2.830 -0.4298  0.0831 -0.2090
  181DOPC  H13A22146   0.758   4.337   2.835  0.4920  2.0175 -0.8963
  181DOPC  H13B22147   0.608   4.329   2.750  0.3639  0.4414 -0.9589
  181DOPC  H13C22148   0.657   4.484   2.804 -0.1059 -0.6126 -3.4677
  181DOPC   C1422149   0.462   4.446   2.962 -0.1495  0.3687 -0.1609
  181DOPC  H14A22150   0.435   4.448   3.067 -0.2175 -0.5371 -0.1558
  181DOPC  H14B22151   0.474   4.543   2.916 -0.1515  0.1454 -0.6342
  181DOPC  H14C22152   0.386   4.405   2.898  1.1860 -0.2501 -1.4054
  181DOPC   C1522153   0.558   4.224   2.990  0.0540 -0.5673  0.2442
  181DOPC  H15A22154   0.497   4.202   3.076  0.4744 -2.0411  0.1980
  181DOPC  H15B22155   0.648   4.169   3.016  2.3810  2.5430 -0.5942
  181DOPC  H15C22156   0.506   4.177   2.908  1.0037  2.0702 -2.0149
  181DOPC   C1122157   0.631   4.440   3.225  0.0251  0.0807  0.6073
  181DOPC  H11A22158   0.574   4.345   3.231  0.9087 -0.5136 -0.1091
  181DOPC  H11B22159   0.713   4.434   3.300 -0.1152 -2.0861  0.6412
  181DOPC     P22160   0.595   4.696   3.267  0.5998 -0.2619  0.3637
  181DOPC   O1322161   0.473   4.786   3.264  0.1849 -0.0365 -0.1792
  181DOPC   O1422162   0.693   4.722   3.162  0.1394 -0.4473  0.1171
  181DOPC   O1222163   0.538   4.551   3.243 -0.4847  0.2127  0.3390
  181DOPC   O1122164   0.661   4.696   3.412  0.6734 -0.4383 -0.6895
  181DOPC    C122165   0.583   4.731   3.529 -0.5214  0.3378 -0.1039
  181DOPC    HA22166   0.488   4.780   3.501 -0.9984  0.8482  2.2141
  181DOPC    HB22167   0.637   4.815   3.577  2.7526 -1.1284 -0.9331
  181DOPC    C222168   0.550   4.603   3.620  0.6519 -0.3497  0.0116
  181DOPC    HS22169   0.507   4.648   3.712  0.4019  0.3846 -0.4522
  181DOPC   O2122170   0.651   4.516   3.639  0.0938 -0.0129 -0.7530
  181DOPC   C2122171   0.745   4.564   3.714 -0.0351 -0.2077  0.3184
  181DOPC   O2222172   0.746   4.677   3.771  0.1703  0.5875  0.0412
  181DOPC   C2222173   0.865   4.472   3.715 -0.0267  0.0190  0.2819
  181DOPC   H2R22174   0.955   4.509   3.660 -0.5001 -0.7257 -1.0228
  181DOPC   H2S22175   0.826   4.376   3.675 -0.5299  0.6543 -0.7831
  181DOPC    C322176   0.433   4.528   3.552 -0.4443 -0.2675 -0.6011
  181DOPC    HX22177   0.472   4.484   3.457 -0.8296  0.5395 -1.1413
  181DOPC    HY22178   0.349   4.591   3.518 -1.3738 -1.3839 -0.4376
  181DOPC   O3122179   0.386   4.441   3.655  0.0707 -0.6082 -0.3259
  181DOPC   C3122180   0.407   4.311   3.646  0.0833 -0.5880  0.9196
  181DOPC   O3222181   0.482   4.262   3.561  0.1511 -0.0955 -0.1142
  181DOPC   C3222182   0.322   4.222   3.733  0.3413 -0.5246  0.1769
  181DOPC   H2X22183   0.215   4.247   3.715  0.3794  0.7880  1.5125
  181DOPC   H2Y22184   0.338   4.121   3.692  1.6144  0.1698 -1.1191
  181DOPC   C2322185   0.903   4.439   3.853 -0.2593  0.3852 -0.0757
  181DOPC   H3R22186   0.978   4.356   3.849 -0.5076  0.1580 -0.0260
  181DOPC   H3S22187   0.824   4.395   3.917 -1.3284  4.3865  1.6450
  181DOPC   C2422188   0.965   4.554   3.936  0.0701  1.4924  0.1038
  181DOPC   H4R22189   0.901   4.645   3.942  0.8507  2.0496  0.2897
  181DOPC   H4S22190   1.057   4.590   3.884  1.1881  0.8916  1.5744
  181DOPC   C2522191   0.999   4.498   4.079  0.1498  0.0431  0.0930
  181DOPC   H5R22192   1.007   4.387   4.076 -3.4271 -0.3291 -1.5606
  181DOPC   H5S22193   0.911   4.530   4.138  1.5518  2.9672  0.7818
  181DOPC   C2622194   1.123   4.575   4.133 -0.0953 -0.2439  0.8270
  181DOPC   H6R22195   1.140   4.680   4.102  1.9185 -0.9439 -0.6318
  181DOPC   H6S22196   1.209   4.526   4.084  1.6203  2.2131  1.2072
  181DOPC   C2722197   1.144   4.569   4.280 -0.0932  0.9398 -0.2469
  181DOPC   H7R22198   1.252   4.592   4.293 -0.0205  1.1925 -1.1914
  181DOPC   H7S22199   1.139   4.467   4.324  0.1746  1.3354  0.7195
  181DOPC   C2822200   1.056   4.665   4.363  0.1794  0.0106 -0.6170
  181DOPC   H8R22201   1.032   4.613   4.459 -1.3396 -0.5430 -1.2804
  181DOPC   H8S22202   0.965   4.676   4.301  0.2455  1.3790 -0.4936
  181DOPC   C2922203   1.124   4.796   4.401  0.1489 -0.2275  0.2808
  181DOPC   H9R22204   1.231   4.793   4.423  0.1211  0.1737  0.4879
  181DOPC  C21022205   1.058   4.916   4.405 -0.8189 -0.0033  0.0511
  181DOPC  H10R22206   1.129   4.996   4.429  1.2884 -2.1901  1.5906
  181DOPC  C21122207   0.917   4.943   4.376 -0.5183  0.3134  0.7551
  181DOPC  H11R22208   0.862   4.852   4.343  1.4735 -0.0302 -1.9788
  181DOPC  H11S22209   0.913   5.014   4.290  1.2408 -2.5761 -1.9389
  181DOPC  C21222210   0.841   5.009   4.485 -0.0569 -0.1800 -0.8476
  181DOPC  H12R22211   0.744   5.039   4.440 -0.9555 -1.0388  0.4640
  181DOPC  H12S22212   0.887   5.105   4.516  1.0158 -1.2452  1.0022
  181DOPC  C21322213   0.824   4.924   4.609 -0.6198  0.3653 -0.5130
  181DOPC  H13R22214   0.919   4.905   4.663 -0.5985  2.3146  0.2204
  181DOPC  H13S22215   0.782   4.827   4.575 -0.4169  1.0796 -2.9552
  181DOPC  C21422216   0.728   4.990   4.714 -0.2052 -0.2091  0.6433
  181DOPC  H14R22217   0.629   5.002   4.665  0.6242 -1.4492 -1.4300
  181DOPC  H14S22218   0.763   5.096   4.722  0.8312 -0.5113  0.2978
  181DOPC  C21522219   0.703   4.924   4.849 -0.5026 -0.1635 -0.6873
  181DOPC  H15R22220   0.685   4.990   4.936  0.8943  0.4974 -0.8756
  181DOPC  H15S22221   0.803   4.881   4.871 -1.1802 -0.8571  1.2986
  181DOPC  C21622222   0.595   4.812   4.833 -0.0770 -0.8622  0.0824
  181DOPC  H16R22223   0.602   4.748   4.742 -0.7734  0.5181 -0.9664
  181DOPC  H16S22224   0.496   4.861   4.825  0.0680 -0.5716  0.0523
  181DOPC  C21722225   0.579   4.722   4.953 -0.3035  0.2857 -0.9685
  181DOPC  H17R22226   0.553   4.780   5.044 -0.2968 -0.5455 -0.4195
  181DOPC  H17S22227   0.669   4.668   4.989 -2.1779 -1.7417  0.9789
  181DOPC  C21822228   0.481   4.608   4.931  0.2553  0.2615 -0.7142
  181DOPC  H18R22229   0.381   4.642   4.896  0.1360  0.0244 -0.6082
  181DOPC  H18S22230   0.479   4.562   5.033  0.9529 -0.1600 -0.8825
  181DOPC  H18T22231   0.517   4.531   4.860 -1.0967  0.0330 -1.1861
  181DOPC   C3322232   0.355   4.241   3.880 -0.5054 -0.1591 -0.5008
  181DOPC   H3X22233   0.464   4.231   3.901 -0.9092 -1.3278  1.2224
  181DOPC   H3Y22234   0.310   4.159   3.939 -0.0154 -0.3669 -0.4108
  181DOPC   C3422235   0.293   4.373   3.937  0.0694  0.4917 -1.0172
  181DOPC   H4X22236   0.192   4.385   3.893 -0.2229 -0.1547 -0.5181
  181DOPC   H4Y22237   0.353   4.463   3.910 -0.8079  0.9164 -1.5897
  181DOPC   C3522238   0.278   4.389   4.093 -0.6467  0.1622  0.2605
  181DOPC   H5X22239   0.182   4.347   4.129  0.9248 -1.0996  3.4068
  181DOPC   H5Y22240   0.266   4.497   4.114  0.3134 -0.1970  3.1473
  181DOPC   C3622241   0.401   4.334   4.168 -0.1285  0.5051  0.4903
  181DOPC   H6X22242   0.389   4.229   4.135  0.0697  0.7853 -0.5285
  181DOPC   H6Y22243   0.495   4.384   4.134  1.0109 -1.9987 -0.2593
  181DOPC   C3722244   0.396   4.358   4.317  0.4987  0.7240 -0.6236
  181DOPC   H7X22245   0.374   4.466   4.333 -1.1688  0.3480 -0.1681
  181DOPC   H7Y22246   0.317   4.289   4.353  0.6945  1.3802  1.1829
  181DOPC   C3822247   0.523   4.331   4.400  0.8327  0.0407  0.1988
  181DOPC   H8X22248   0.556   4.225   4.392 -1.3908 -0.5950 -1.1830
  181DOPC   H8Y22249   0.499   4.343   4.508  1.6758 -0.8537  0.5023
  181DOPC   C3922250   0.627   4.435   4.364  0.3768 -0.2530  0.5288
  181DOPC   H9X22251   0.644   4.451   4.257  0.1086 -2.2736  0.1424
  181DOPC  C31022252   0.715   4.487   4.455 -0.2128  0.3231  0.9048
  181DOPC  H10X22253   0.778   4.569   4.418 -1.8385  0.7227 -1.2130
  181DOPC  C31122254   0.731   4.456   4.597  0.2225 -0.5902  0.0067
  181DOPC  H11X22255   0.645   4.501   4.652 -1.6473 -0.0562 -3.1011
  181DOPC  H11Y22256   0.824   4.511   4.624  0.4429 -1.2622  0.6647
  181DOPC  C31222257   0.747   4.311   4.644  0.5269  0.4331  0.2810
  181DOPC  H12X22258   0.826   4.258   4.587  1.0937  0.4262  1.0518
  181DOPC  H12Y22259   0.651   4.256   4.635  0.2432  0.9060  0.3499
  181DOPC  C31322260   0.776   4.298   4.797  0.3974 -0.0996  0.7942
  181DOPC  H13X22261   0.871   4.347   4.825  2.0344 -2.3367 -0.5564
  181DOPC  H13Y22262   0.691   4.344   4.852  0.4166 -1.5688  2.1157
  181DOPC  C31422263   0.768   4.152   4.851 -0.8571  0.2568  1.2047
  181DOPC  H14X22264   0.673   4.111   4.811 -0.5524 -0.7456  1.4695
  181DOPC  H14Y22265   0.855   4.093   4.814 -0.1526  1.6397  0.5681
  181DOPC  C31522266   0.768   4.139   5.008  0.2194 -0.3407 -0.4196
  181DOPC  H15X22267   0.702   4.208   5.065  0.3407 -0.1075 -0.5616
  181DOPC  H15Y22268   0.868   4.165   5.048  0.3201 -2.0592  0.5567
  181DOPC  C31622269   0.737   3.992   5.047 -0.5619 -0.1343  0.0869
  181DOPC  H16X22270   0.647   3.954   4.995 -0.1531  0.5756 -1.1589
  181DOPC  H16Y22271   0.826   3.937   5.009  0.1782  1.0773 -0.0120
  181DOPC  C31722272   0.704   3.970   5.197 -0.4130 -0.1274 -0.1475
  181DOPC  H17X22273   0.797   3.983   5.257 -0.8812  1.4221  0.2851
  181DOPC  H17Y22274   0.629   4.050   5.215 -1.3566 -0.7595 -1.1975
  181DOPC  C31822275   0.648   3.839   5.247  0.1960 -0.6547 -0.3286
  181DOPC  H18X22276   0.717   3.762   5.206  1.8090  1.2848 -1.4503
  181DOPC  H18Y22277   0.646   3.838   5.358 -1.9499  1.1309 -0.2756
  181DOPC  H18Z22278   0.547   3.821   5.203  0.0979  0.9452 -0.8153
  182DOPC     N22279   1.361   0.225   2.167 -0.5462 -0.1701 -0.8700
  182DOPC   C1222280   1.301   0.226   2.303 -0.2143 -0.2002 -0.0885
  182DOPC  H12A22281   1.271   0.327   2.325 -2.2015 -0.6221 -0.6144
  182DOPC  H12B22282   1.376   0.190   2.372  0.3243 -0.5465 -0.8485
  182DOPC   C1322283   1.266   0.266   2.065  0.2425 -0.2620 -0.5155
  182DOPC  H13A22284   1.308   0.237   1.970 -0.7125 -0.6115 -0.8419
  182DOPC  H13B22285   1.172   0.215   2.079  0.3460  0.0969  1.8799
  182DOPC  H13C22286   1.248   0.371   2.079 -3.3442 -0.8989  0.5066
  182DOPC   C1422287   1.400   0.085   2.134  0.2380 -0.2690 -0.1886
  182DOPC  H14A22288   1.426   0.077   2.030 -1.1009 -0.2789 -0.5427
  182DOPC  H14B22289   1.487   0.057   2.191  0.7247 -1.6830 -1.5783
  182DOPC  H14C22290   1.318   0.019   2.157  0.5509 -1.6697 -2.8133
  182DOPC   C1522291   1.490   0.311   2.170  0.0910  0.1317 -0.4285
  182DOPC  H15A22292   1.468   0.412   2.202  2.0041  0.5801 -0.4571
  182DOPC  H15B22293   1.528   0.316   2.069 -0.8949 -0.6496 -0.8601
  182DOPC  H15C22294   1.565   0.265   2.233 -0.6439 -0.9443 -0.3086
  182DOPC   C1122295   1.175   0.138   2.331  0.1680  0.2737 -0.5972
  182DOPC  H11A22296   1.089   0.151   2.262 -2.5317 -3.0753  1.7627
  182DOPC  H11B22297   1.188   0.028   2.324  2.0030  0.3691  0.5931
  182DOPC     P22298   1.055   0.304   2.490 -0.0684  0.1890  0.5083
  182DOPC   O1322299   0.911   0.273   2.508 -0.2534 -0.1289  0.0674
  182DOPC   O1422300   1.091   0.400   2.380  0.3927  0.0345  0.6131
  182DOPC   O1222301   1.126   0.170   2.465 -0.5075 -0.2639  1.1999
  182DOPC   O1122302   1.119   0.355   2.620  0.5571  0.7600  0.0836
  182DOPC    C122303   1.068   0.326   2.748  0.3919  0.6128 -0.7975
  182DOPC    HA22304   1.044   0.218   2.765 -1.0821  1.1181  0.5971
  182DOPC    HB22305   0.972   0.377   2.771 -1.0184 -1.5402 -1.5759
  182DOPC    C222306   1.162   0.359   2.862 -0.3461  0.3225  0.5852
  182DOPC    HS22307   1.245   0.284   2.862  0.5600  1.1160 -2.8932
  182DOPC   O2122308   1.101   0.366   2.988 -0.0995 -0.0739  0.1333
  182DOPC   C2122309   1.072   0.252   3.047  0.4048  0.6821  0.2493
  182DOPC   O2222310   1.104   0.141   3.004 -0.3043 -0.2662  0.0179
  182DOPC   C2222311   0.993   0.285   3.178  0.4204  0.0952 -0.6924
  182DOPC   H2R22312   0.917   0.205   3.188 -0.3430  0.9762  1.0315
  182DOPC   H2S22313   0.938   0.382   3.175  1.5476  0.7402 -1.3171
  182DOPC    C322314   1.233   0.497   2.834 -0.5955  0.2288 -0.0766
  182DOPC    HX22315   1.153   0.573   2.827 -0.7307  0.2684  1.4879
  182DOPC    HY22316   1.287   0.478   2.738 -0.8160 -0.7450 -0.0180
  182DOPC   O3122317   1.325   0.545   2.931  0.8707  0.4268 -0.4865
  182DOPC   C3122318   1.452   0.511   2.932  0.7366 -0.0735 -0.3441
  182DOPC   O3222319   1.512   0.475   2.833 -0.2587  0.2259  0.5242
  182DOPC   C3222320   1.511   0.547   3.069 -0.1573 -0.0665  0.2954
  182DOPC   H2X22321   1.621   0.536   3.058 -0.1587 -0.7479  0.8388
  182DOPC   H2Y22322   1.479   0.649   3.098 -2.3740 -0.6202  0.0093
  182DOPC   C2322323   1.086   0.290   3.302  0.2506 -0.3904 -0.3335
  182DOPC   H3R22324   1.108   0.395   3.330 -2.5720  1.0295 -2.8959
  182DOPC   H3S22325   1.176   0.231   3.274  0.0279 -1.3445  0.8546
  182DOPC   C2422326   1.030   0.218   3.432 -0.1733  0.0569  1.2945
  182DOPC   H4R22327   1.011   0.113   3.401  1.4666  0.5868 -1.9151
  182DOPC   H4S22328   0.935   0.264   3.468 -0.1024  0.7173  0.6592
  182DOPC   C2522329   1.131   0.218   3.543  0.2877  0.4002  0.3506
  182DOPC   H5R22330   1.219   0.162   3.506 -0.5412  0.8408 -2.5322
  182DOPC   H5S22331   1.078   0.162   3.623  0.2161  1.6194  1.1850
  182DOPC   C2622332   1.191   0.356   3.592 -0.6082  0.3885  0.1217
  182DOPC   H6R22333   1.103   0.412   3.631 -1.4918  0.3837 -1.7448
  182DOPC   H6S22334   1.239   0.416   3.511 -1.2191  1.6856  0.6788
  182DOPC   C2722335   1.297   0.341   3.705 -0.6565 -0.0112 -0.1633
  182DOPC   H7R22336   1.367   0.426   3.719  0.6520 -0.7804 -1.6876
  182DOPC   H7S22337   1.363   0.254   3.686  1.7898  1.3300  1.4876
  182DOPC   C2822338   1.227   0.312   3.839  0.0090 -0.5511  0.5845
  182DOPC   H8R22339   1.159   0.225   3.825  0.6673 -1.0630  0.5816
  182DOPC   H8S22340   1.158   0.395   3.867 -0.9614 -1.4146  0.8279
  182DOPC   C2922341   1.315   0.287   3.955 -0.1049  0.0606 -0.4854
  182DOPC   H9R22342   1.394   0.211   3.944 -0.2363 -0.2184  0.3881
  182DOPC  C21022343   1.307   0.340   4.076  0.2261  0.2238  0.5542
  182DOPC  H10R22344   1.383   0.312   4.151  0.6537 -0.0867  0.0096
  182DOPC  C21122345   1.209   0.442   4.127  0.6428  0.0656 -0.0643
  182DOPC  H11R22346   1.167   0.504   4.044 -0.2527  1.0379  1.0842
  182DOPC  H11S22347   1.266   0.516   4.187 -0.5322  1.8607 -1.0584
  182DOPC  C21222348   1.094   0.381   4.205  0.4851 -0.1476  1.0457
  182DOPC  H12R22349   1.132   0.354   4.306  0.5808  3.3987  2.0952
  182DOPC  H12S22350   1.058   0.290   4.153  0.7340  0.7358 -0.7139
  182DOPC  C21322351   0.982   0.487   4.229  0.4012 -0.8113  0.3562
  182DOPC  H13R22352   0.948   0.517   4.128  2.9057  0.7057 -0.1199
  182DOPC  H13S22353   1.025   0.570   4.288  2.8865 -3.5423  2.7415
  182DOPC  C21422354   0.866   0.439   4.319 -0.4590  0.2247 -0.2668
  182DOPC  H14R22355   0.787   0.516   4.306 -0.0879  0.7635  0.5564
  182DOPC  H14S22356   0.894   0.426   4.426 -1.2910  0.9490  0.0554
  182DOPC  C21522357   0.807   0.299   4.281 -0.1649 -0.3134  1.0815
  182DOPC  H15R22358   0.887   0.227   4.310 -0.8526 -1.0249  1.2579
  182DOPC  H15S22359   0.793   0.296   4.170  0.0884 -0.9948  1.0637
  182DOPC  C21622360   0.663   0.275   4.328  0.1527  0.5791 -0.1990
  182DOPC  H16R22361   0.623   0.188   4.272  0.1525  0.4916 -0.0639
  182DOPC  H16S22362   0.592   0.359   4.314 -0.8100 -0.1768  0.0458
  182DOPC  C21722363   0.661   0.244   4.477 -0.1851  0.5992 -0.7090
  182DOPC  H17R22364   0.687   0.337   4.531  1.9741 -1.2065  1.5462
  182DOPC  H17S22365   0.735   0.164   4.496 -0.9334  0.1968  0.6810
  182DOPC  C21822366   0.528   0.177   4.523 -0.4898  0.1024  0.9675
  182DOPC  H18R22367   0.537   0.152   4.631 -3.4221 -0.9488  1.0678
  182DOPC  H18S22368   0.512   0.087   4.460  0.0571  0.1618  0.7422
  182DOPC  H18T22369   0.438   0.242   4.516  0.2525  1.2179  1.6613
  182DOPC   C3322370   1.457   0.454   3.181  0.0040 -0.5571  0.0988
  182DOPC   H3X22371   1.472   0.352   3.139  1.1174  0.2713 -1.6731
  182DOPC   H3Y22372   1.348   0.468   3.195  0.0337  0.9494 -1.0268
  182DOPC   C3422373   1.526   0.459   3.313  0.0633  0.1616  0.1184
  182DOPC   H4X22374   1.610   0.388   3.303  1.3698  1.7119 -0.3327
  182DOPC   H4Y22375   1.459   0.417   3.391  0.1298 -0.7916 -0.3335
  182DOPC   C3522376   1.578   0.596   3.368 -0.1620  0.1735 -0.1215
  182DOPC   H5X22377   1.635   0.653   3.291 -1.0277  0.7035 -0.3890
  182DOPC   H5Y22378   1.645   0.569   3.452  0.3444 -0.9517 -0.8721
  182DOPC   C3622379   1.471   0.691   3.418  0.0496  0.3791 -0.1711
  182DOPC   H6X22380   1.419   0.743   3.335 -1.9693  0.1296  0.8770
  182DOPC   H6Y22381   1.385   0.636   3.462  0.7370 -1.5787 -1.1746
  182DOPC   C3722382   1.514   0.786   3.537  0.2165  0.6912  0.2264
  182DOPC   H7X22383   1.614   0.833   3.519  1.4290 -1.2006  1.6141
  182DOPC   H7Y22384   1.446   0.873   3.536 -0.1321  0.4202  0.3797
  182DOPC   C3822385   1.524   0.714   3.668 -0.3917  0.7048  0.7605
  182DOPC   H8X22386   1.618   0.755   3.713 -0.4668  2.9565 -0.9629
  182DOPC   H8Y22387   1.553   0.610   3.643  0.2293  1.0870 -0.1771
  182DOPC   C3922388   1.396   0.726   3.741 -0.3752 -0.1439  0.2204
  182DOPC   H9X22389   1.308   0.727   3.675  0.6523 -1.8550 -1.2676
  182DOPC  C31022390   1.375   0.725   3.873  0.0423 -0.1934 -0.4486
  182DOPC  H10X22391   1.281   0.762   3.917  1.5020 -0.0422  2.8925
  182DOPC  C31122392   1.480   0.710   3.978  0.0033  0.3720 -0.3151
  182DOPC  H11X22393   1.584   0.695   3.941  0.2955 -1.1527  1.0344
  182DOPC  H11Y22394   1.454   0.619   4.035 -0.8259  0.1624 -0.9986
  182DOPC  C31222395   1.478   0.824   4.085  0.2109 -0.9108  0.2968
  182DOPC  H12X22396   1.376   0.831   4.129  1.1903 -1.0034  2.7359
  182DOPC  H12Y22397   1.488   0.923   4.035 -1.1045 -1.0548 -0.3127
  182DOPC  C31322398   1.576   0.792   4.202 -0.8468  0.3834 -0.6862
  182DOPC  H13X22399   1.654   0.731   4.152 -0.0567  0.8909 -0.1043
  182DOPC  H13Y22400   1.621   0.888   4.236 -1.9938  0.1124  1.7957
  182DOPC  C31422401   1.512   0.717   4.320 -0.3676  0.3365 -0.5038
  182DOPC  H14X22402   1.432   0.787   4.352  1.6997  2.6795 -0.1752
  182DOPC  H14Y22403   1.460   0.622   4.292 -0.7709  0.3139  0.3056
  182DOPC  C31522404   1.599   0.689   4.444  0.1788  0.2309  0.6446
  182DOPC  H15X22405   1.681   0.616   4.427  1.3147  0.8729  2.9888
  182DOPC  H15Y22406   1.537   0.642   4.524 -0.2445  0.1332  0.2665
  182DOPC  C31622407   1.661   0.819   4.495  0.1620 -0.7290  0.0720
  182DOPC  H16X22408   1.752   0.848   4.438 -1.6750  0.2989 -2.4995
  182DOPC  H16Y22409   1.580   0.894   4.491 -0.3684 -1.3605 -1.6916
  182DOPC  C31722410   1.718   0.797   4.637 -0.3541  0.2829 -0.4829
  182DOPC  H17X22411   1.746   0.897   4.676 -1.5560  1.1523 -1.7785
  182DOPC  H17Y22412   1.637   0.765   4.706  0.8657  0.2711  1.0308
  182DOPC  C31822413   1.837   0.703   4.644  0.3411  0.1802 -0.5506
  182DOPC  H18X22414   1.912   0.718   4.564  0.5632 -1.7175 -0.7236
  182DOPC  H18Y22415   1.892   0.718   4.739 -0.2900 -0.3270 -0.0952
  182DOPC  H18Z22416   1.799   0.600   4.631 -0.8816  0.6393 -0.8043
  183DOPC     N22417   6.918   4.183   2.598  0.4718 -0.3582  0.3637
  183DOPC   C1222418   6.856   4.185   2.741  0.8906  0.4281 -0.2632
  183DOPC  H12A22419   6.880   4.096   2.797 -0.3085  2.5281  3.9834
  183DOPC  H12B22420   6.750   4.192   2.720  1.1696  0.5196 -1.7359
  183DOPC   C1322421   7.060   4.198   2.603 -0.7009 -0.2397  0.6576
  183DOPC  H13A22422   7.084   4.298   2.635  0.8704 -0.6247  0.7552
  183DOPC  H13B22423   7.108   4.121   2.662  1.2818  1.2527  1.0823
  183DOPC  H13C22424   7.102   4.183   2.504 -0.2154  0.7958  0.6999
  183DOPC   C1422425   6.851   4.282   2.516 -0.3445  0.1269  0.1203
  183DOPC  H14A22426   6.894   4.378   2.538  2.9513 -1.5852  2.0171
  183DOPC  H14B22427   6.861   4.262   2.410 -1.2559 -1.8428  0.3571
  183DOPC  H14C22428   6.745   4.292   2.537 -1.2351  1.5180 -4.0226
  183DOPC   C1522429   6.885   4.045   2.535 -0.4942 -0.2337  0.8743
  183DOPC  H15A22430   6.954   4.039   2.452 -0.9970 -1.0636  0.5024
  183DOPC  H15B22431   6.787   4.047   2.490  1.2136  0.6159 -3.2567
  183DOPC  H15C22432   6.892   3.967   2.610  0.2309  1.0856  2.2374
  183DOPC   C1122433   6.898   4.308   2.833  0.1567  0.2562  0.0250
  183DOPC  H11A22434   6.871   4.282   2.938 -0.2426  0.5849  0.0115
  183DOPC  H11B22435   7.008   4.310   2.840  0.1106 -0.3189  1.0424
  183DOPC     P22436   6.704   4.497   2.809  0.1560 -0.0604  0.0531
  183DOPC   O1322437   6.601   4.410   2.748  0.0201  0.3700 -0.4272
  183DOPC   O1422438   6.699   4.631   2.774 -0.0988  0.1378  0.4287
  183DOPC   O1222439   6.845   4.432   2.784  0.2538 -0.2619  0.3174
  183DOPC   O1122440   6.694   4.491   2.965  0.2501  0.1503  0.2433
  183DOPC    C122441   6.756   4.585   3.051  0.0920  0.2827  0.6737
  183DOPC    HA22442   6.709   4.579   3.151  1.0077  1.4305  1.2035
  183DOPC    HB22443   6.743   4.693   3.028 -0.8837 -0.1306 -0.8432
  183DOPC    C222444   6.898   4.540   3.082  1.2061  0.2271 -0.3603
  183DOPC    HS22445   6.955   4.526   2.988 -0.2094  1.2223 -1.4235
  183DOPC   O2122446   6.886   4.412   3.151 -0.1325 -0.4762 -0.1401
  183DOPC   C2122447   6.996   4.339   3.153  0.0831 -0.0442  0.3925
  183DOPC   O2222448   7.099   4.375   3.102  0.0355 -0.3598 -0.4057
  183DOPC   C2222449   6.968   4.221   3.242 -0.3376  0.3389  0.2267
  183DOPC   H2R22450   6.941   4.130   3.185  0.2400 -0.3026  0.9470
  183DOPC   H2S22451   6.886   4.247   3.313 -1.6548 -1.5909 -0.4966
  183DOPC    C322452   6.959   4.651   3.169 -0.2919  0.6938 -0.2419
  183DOPC    HX22453   6.969   4.744   3.110  0.7611  0.1958 -0.8672
  183DOPC    HY22454   7.064   4.626   3.196 -0.6868 -2.9125 -1.4169
  183DOPC   O3122455   6.882   4.673   3.294 -0.0883 -0.8546  0.3327
  183DOPC   C3122456   6.934   4.604   3.395 -0.6256 -0.0679 -0.4635
  183DOPC   O3222457   7.037   4.546   3.406 -0.6015  0.1231  0.3895
  183DOPC   C3222458   6.823   4.600   3.502 -0.0526  0.4520  0.0900
  183DOPC   H2X22459   6.795   4.700   3.540  1.0400  0.6395  0.4363
  183DOPC   H2Y22460   6.748   4.535   3.452  0.9208  0.4145 -1.3882
  183DOPC   C2322461   7.084   4.195   3.335 -0.4370  0.3388 -0.7073
  183DOPC   H3R22462   7.106   4.288   3.391 -2.0122 -0.1692  0.8576
  183DOPC   H3S22463   7.171   4.167   3.272 -0.6816  0.0095 -0.9085
  183DOPC   C2422464   7.058   4.076   3.420 -0.3341  0.3066  0.1411
  183DOPC   H4R22465   7.054   3.987   3.355  0.9437  2.0486 -2.4919
  183DOPC   H4S22466   6.964   4.096   3.476 -1.6743  1.3276 -2.3210
  183DOPC   C2522467   7.171   4.057   3.528  0.2472 -0.1624 -0.8353
  183DOPC   H5R22468   7.266   4.085   3.477 -0.7140  0.7287 -2.2184
  183DOPC   H5S22469   7.168   3.953   3.565  2.8955  0.1255  0.4305
  183DOPC   C2622470   7.156   4.137   3.663  0.6978 -0.2681 -0.5628
  183DOPC   H6R22471   7.152   4.246   3.642 -0.2101 -0.0728  0.5600
  183DOPC   H6S22472   7.249   4.125   3.722 -1.5170 -1.6132  2.9305
  183DOPC   C2722473   7.040   4.088   3.752 -0.2210 -0.9061  0.3105
  183DOPC   H7R22474   7.029   3.978   3.753  0.6456 -1.0770 -1.9600
  183DOPC   H7S22475   6.949   4.126   3.701  1.6332  0.3120 -2.3874
  183DOPC   C2822476   7.041   4.141   3.892 -0.4480  0.1677  0.0584
  183DOPC   H8R22477   6.945   4.130   3.946 -0.0934  0.2909  0.7373
  183DOPC   H8S22478   7.075   4.246   3.893 -1.2485  0.4465 -1.2679
  183DOPC   C2922479   7.140   4.065   3.980  0.5447  0.4785 -1.0204
  183DOPC   H9R22480   7.241   4.108   3.984  0.5292  0.4970  3.0834
  183DOPC  C21022481   7.114   3.952   4.056  0.0855  0.0876 -0.1688
  183DOPC  H10R22482   7.197   3.907   4.113 -0.1298 -1.9843 -1.3519
  183DOPC  C21122483   6.976   3.881   4.064  0.7422 -0.6058 -0.2519
  183DOPC  H11R22484   6.973   3.773   4.039 -0.4472 -0.6577  0.0666
  183DOPC  H11S22485   6.890   3.926   4.010  2.3025  1.1055 -1.4772
  183DOPC  C21222486   6.928   3.886   4.214 -0.0350 -0.6474  0.4482
  183DOPC  H12R22487   7.003   3.878   4.296 -1.8221  2.1633  2.5411
  183DOPC  H12S22488   6.857   3.803   4.231  0.5916 -1.1392  0.7259
  183DOPC  C21322489   6.847   4.016   4.247 -0.1998  0.1919 -0.7187
  183DOPC  H13R22490   6.771   4.026   4.167 -0.3426 -0.3954 -0.6554
  183DOPC  H13S22491   6.907   4.110   4.239 -0.2363  0.1225 -1.9875
  183DOPC  C21422492   6.785   3.998   4.391  0.5652 -0.3672 -0.5241
  183DOPC  H14R22493   6.858   3.962   4.466  0.3229  0.6773  0.2355
  183DOPC  H14S22494   6.710   3.917   4.377 -0.1713  0.3391 -0.8065
  183DOPC  C21522495   6.704   4.119   4.443  0.1008 -0.2625 -0.5708
  183DOPC  H15R22496   6.600   4.121   4.405 -0.3192 -0.2032  0.5243
  183DOPC  H15S22497   6.752   4.208   4.397  1.2415 -1.3920 -1.6350
  183DOPC  C21622498   6.692   4.132   4.598  0.1284  0.5671  0.4215
  183DOPC  H16R22499   6.665   4.239   4.616  0.5662  0.5514  1.2320
  183DOPC  H16S22500   6.785   4.116   4.656  0.3060 -0.7638 -0.2076
  183DOPC  C21722501   6.577   4.054   4.675  0.1508 -0.2225  0.4662
  183DOPC  H17R22502   6.476   4.074   4.633  0.6351 -3.1172 -2.5531
  183DOPC  H17S22503   6.577   4.081   4.782  0.0561 -0.7584  0.6065
  183DOPC  C21822504   6.582   3.903   4.659 -0.0136 -0.5743 -0.0535
  183DOPC  H18R22505   6.500   3.859   4.599  0.3012  0.6944 -1.4726
  183DOPC  H18S22506   6.586   3.851   4.757 -1.9777  1.2526  1.1026
  183DOPC  H18T22507   6.679   3.875   4.614 -0.9337 -0.8323 -1.9679
  183DOPC   C3322508   6.866   4.519   3.630  0.9566  0.0680  0.2419
  183DOPC   H3X22509   6.952   4.574   3.674  2.4631 -2.6273  0.9307
  183DOPC   H3Y22510   6.907   4.416   3.619 -0.9888 -0.8103  0.8870
  183DOPC   C3422511   6.745   4.520   3.714 -0.4365  0.0051 -0.0345
  183DOPC   H4X22512   6.668   4.452   3.673  0.5862 -1.2518  0.0875
  183DOPC   H4Y22513   6.700   4.620   3.733 -0.7878 -0.6621  3.2875
  183DOPC   C3522514   6.778   4.451   3.846  0.7427  0.2319  0.3993
  183DOPC   H5X22515   6.872   4.495   3.886  0.5906  0.0900  0.9251
  183DOPC   H5Y22516   6.804   4.347   3.820  0.9707  0.7060 -1.3839
  183DOPC   C3622517   6.659   4.460   3.948  0.0998 -0.6891  0.3664
  183DOPC   H6X22518   6.642   4.569   3.958 -1.3158 -0.7421 -1.0218
  183DOPC   H6Y22519   6.562   4.422   3.909 -0.2388  2.9255 -2.8501
  183DOPC   C3722520   6.685   4.396   4.084  0.1944 -0.1215  0.1169
  183DOPC   H7X22521   6.694   4.286   4.074 -0.4490 -0.2426  0.7530
  183DOPC   H7Y22522   6.775   4.443   4.129  1.6032 -1.8037 -0.8139
  183DOPC   C3822523   6.569   4.409   4.180  0.3533  0.0325  0.1958
  183DOPC   H8X22524   6.609   4.355   4.268 -0.5896 -1.5632 -0.3159
  183DOPC   H8Y22525   6.480   4.359   4.136 -1.9030  3.3504  0.5977
  183DOPC   C3922526   6.521   4.549   4.215 -0.2750 -0.4221 -0.5016
  183DOPC   H9X22527   6.463   4.597   4.135 -0.3755  1.1383  0.4681
  183DOPC  C31022528   6.534   4.616   4.333  0.1928  0.4136  0.6512
  183DOPC  H10X22529   6.476   4.708   4.349  1.1700  1.3320 -0.8748
  183DOPC  C31122530   6.600   4.557   4.452  0.0063 -0.4026 -0.1555
  183DOPC  H11X22531   6.684   4.623   4.485  0.5278 -0.9154 -0.4445
  183DOPC  H11Y22532   6.641   4.456   4.430 -1.4263 -0.3381 -3.7997
  183DOPC  C31222533   6.513   4.543   4.576  0.1994  0.2299  0.3083
  183DOPC  H12X22534   6.434   4.469   4.552  0.2550  0.4000 -0.3961
  183DOPC  H12Y22535   6.444   4.629   4.590 -0.7582 -0.5543  0.4846
  183DOPC  C31322536   6.580   4.514   4.708  0.8494  0.4363 -0.3643
  183DOPC  H13X22537   6.609   4.407   4.717 -0.5265 -0.0432 -1.2331
  183DOPC  H13Y22538   6.670   4.580   4.713  1.2637 -0.0722 -0.8932
  183DOPC  C31422539   6.487   4.561   4.823 -0.2443  0.3021  0.0112
  183DOPC  H14X22540   6.476   4.672   4.823  0.0660  0.3349 -0.1456
  183DOPC  H14Y22541   6.383   4.524   4.814 -0.6903  1.3242  0.7432
  183DOPC  C31522542   6.539   4.523   4.965  0.1554  0.7345  0.3842
  183DOPC  H15X22543   6.643   4.558   4.979  0.2122 -0.2109  2.5814
  183DOPC  H15Y22544   6.536   4.414   4.985 -1.9401  1.1304  2.6701
  183DOPC  C31622545   6.468   4.593   5.079  0.2514 -0.3270 -0.8601
  183DOPC  H16X22546   6.466   4.702   5.058 -0.8325 -0.1888 -0.1086
  183DOPC  H16Y22547   6.362   4.560   5.081  0.3550 -0.6319 -0.3736
  183DOPC  C31722548   6.541   4.580   5.217  0.2345  0.1173 -0.1542
  183DOPC  H17X22549   6.560   4.471   5.223 -2.5845 -0.4412  0.0354
  183DOPC  H17Y22550   6.636   4.637   5.217  0.1678  0.2338  0.4744
  183DOPC  C31822551   6.450   4.614   5.335 -0.1114 -0.2712 -0.0697
  183DOPC  H18X22552   6.406   4.715   5.329  1.2704  0.3735  0.2037
  183DOPC  H18Y22553   6.366   4.541   5.343  0.0024 -0.4878 -0.7666
  183DOPC  H18Z22554   6.508   4.607   5.429 -0.5366 -0.1689  0.1993
  184DOPC     N22555   4.465   1.452   2.578 -0.1574 -0.4648 -0.1030
  184DOPC   C1222556   4.361   1.460   2.679  0.1154 -0.4948 -0.6342
  184DOPC  H12A22557   4.321   1.362   2.695  0.1477 -0.3194  0.6573
  184DOPC  H12B22558   4.283   1.527   2.645 -0.6081  0.5964  2.7871
  184DOPC   C1322559   4.562   1.571   2.576 -0.1715 -0.2488 -0.2135
  184DOPC  H13A22560   4.528   1.672   2.591  1.4738  0.2552  0.3446
  184DOPC  H13B22561   4.624   1.545   2.660 -2.1582 -1.2966  0.9999
  184DOPC  H13C22562   4.611   1.569   2.480 -0.5434 -2.3450 -0.4066
  184DOPC   C1422563   4.396   1.437   2.443 -0.1370  0.1159 -0.6896
  184DOPC  H14A22564   4.467   1.395   2.374  2.6726  0.9358  1.4734
  184DOPC  H14B22565   4.314   1.368   2.448 -1.3872  1.4610 -1.9303
  184DOPC  H14C22566   4.370   1.534   2.403 -0.9052  0.3132  0.2516
  184DOPC   C1522567   4.549   1.326   2.597  0.1603  0.5364  0.0473
  184DOPC  H15A22568   4.586   1.313   2.698 -2.4416  0.0807  1.0260
  184DOPC  H15B22569   4.626   1.327   2.521 -0.0700 -1.7344 -0.2909
  184DOPC  H15C22570   4.495   1.233   2.589  3.2534 -1.2879 -1.6742
  184DOPC   C1122571   4.393   1.506   2.821  0.0412  0.2463  0.0700
  184DOPC  H11A22572   4.454   1.599   2.826 -1.9314  1.5183  1.5954
  184DOPC  H11B22573   4.297   1.541   2.863 -0.4034  1.5791 -1.9053
  184DOPC     P22574   4.374   1.315   2.995 -0.0359  0.0264 -0.1271
  184DOPC   O1322575   4.450   1.192   3.026  0.3352  0.1407  1.0456
  184DOPC   O1422576   4.238   1.292   2.936 -0.2466 -0.2435  0.5702
  184DOPC   O1222577   4.465   1.407   2.891  0.1926  0.8484  0.3265
  184DOPC   O1122578   4.365   1.418   3.115 -0.2890 -0.4406  0.1823
  184DOPC    C122579   4.486   1.461   3.182  0.0967 -0.3197  0.1054
  184DOPC    HA22580   4.515   1.567   3.163 -1.1540 -0.1712 -1.1583
  184DOPC    HB22581   4.580   1.411   3.151  1.2011  0.4529  1.9921
  184DOPC    C222582   4.480   1.442   3.333  0.6826 -0.6424  0.8570
  184DOPC    HS22583   4.410   1.520   3.369  0.4496 -1.0917  1.4026
  184DOPC   O2122584   4.613   1.452   3.385 -0.0573 -0.2542 -0.5034
  184DOPC   C2122585   4.674   1.574   3.378  0.2065 -0.0339 -0.2152
  184DOPC   O2222586   4.618   1.674   3.343 -0.0031  0.7090  0.3917
  184DOPC   C2222587   4.825   1.569   3.415  0.5310 -0.5121 -0.1591
  184DOPC   H2R22588   4.843   1.633   3.505 -0.3240 -1.2482  0.5634
  184DOPC   H2S22589   4.878   1.611   3.328  2.6575 -0.9699  0.8536
  184DOPC    C322590   4.423   1.296   3.364  0.0859 -0.4004 -0.1812
  184DOPC    HX22591   4.483   1.223   3.307  0.7346  0.0453 -0.0786
  184DOPC    HY22592   4.321   1.284   3.322 -0.2258 -1.8597  0.9142
  184DOPC   O3122593   4.423   1.273   3.510  0.2473  0.0554  0.2307
  184DOPC   C3122594   4.528   1.214   3.561 -0.5293  0.2736  0.1044
  184DOPC   O3222595   4.629   1.179   3.500  0.3472  0.4449  0.4914
  184DOPC   C3222596   4.507   1.191   3.719 -0.3939  0.2131  0.1493
  184DOPC   H2X22597   4.413   1.246   3.743  0.6476  1.6411  1.1394
  184DOPC   H2Y22598   4.493   1.083   3.739 -0.8926  0.2658  0.1001
  184DOPC   C2322599   4.872   1.426   3.449 -0.1475  0.0605 -0.2273
  184DOPC   H3R22600   4.847   1.371   3.356 -0.7983  0.2748 -0.1869
  184DOPC   H3S22601   4.807   1.388   3.531  0.9480 -3.1699 -0.7399
  184DOPC   C2422602   5.020   1.424   3.480  0.0790 -0.9894  0.4570
  184DOPC   H4R22603   5.054   1.487   3.565  1.3224 -2.4566  1.0975
  184DOPC   H4S22604   5.059   1.468   3.386 -0.1580  1.7731  1.5549
  184DOPC   C2522605   5.083   1.283   3.501 -0.5230 -0.4179 -0.4447
  184DOPC   H5R22606   5.194   1.282   3.494 -0.4052 -0.3542  1.1440
  184DOPC   H5S22607   5.043   1.200   3.439  0.6538 -0.5563 -1.0405
  184DOPC   C2622608   5.056   1.229   3.643 -0.2034  0.5540 -1.0103
  184DOPC   H6R22609   5.104   1.129   3.650 -0.0516  0.5398 -2.0992
  184DOPC   H6S22610   4.947   1.206   3.645  0.0602 -0.7885 -1.1285
  184DOPC   C2722611   5.093   1.310   3.770 -0.4943  0.0773  0.1017
  184DOPC   H7R22612   5.048   1.411   3.776 -1.1709 -0.2518  0.7490
  184DOPC   H7S22613   5.202   1.330   3.766 -0.1626 -1.5450  0.0792
  184DOPC   C2822614   5.081   1.214   3.891 -0.7645 -0.6692  0.6597
  184DOPC   H8R22615   5.138   1.127   3.852  0.0373  0.1414 -0.0122
  184DOPC   H8S22616   4.977   1.185   3.917 -0.8884 -0.5410  0.3143
  184DOPC   C2922617   5.156   1.261   4.014  0.1609  0.1406  0.4051
  184DOPC   H9R22618   5.260   1.294   3.999  0.1810  0.8590  1.9693
  184DOPC  C21022619   5.109   1.277   4.140 -0.1543 -0.2595  0.2970
  184DOPC  H10R22620   5.181   1.298   4.220 -0.0638 -0.6810  0.3265
  184DOPC  C21122621   4.970   1.253   4.192 -0.4409  0.1543 -0.3874
  184DOPC  H11R22622   4.930   1.165   4.137 -0.3775 -0.0887 -0.0498
  184DOPC  H11S22623   4.895   1.334   4.184 -0.7248 -0.2067 -1.4951
  184DOPC  C21222624   4.975   1.218   4.348  0.1778 -0.1123  0.8371
  184DOPC  H12R22625   5.058   1.145   4.360 -0.8414 -1.4365  0.1476
  184DOPC  H12S22626   4.886   1.161   4.382  0.4763 -2.9033 -2.5012
  184DOPC  C21322627   4.992   1.338   4.439  0.2166 -0.1589 -0.5010
  184DOPC  H13R22628   4.906   1.407   4.425 -0.7218 -1.7852 -3.7548
  184DOPC  H13S22629   5.085   1.394   4.416 -1.0900  3.0001  1.2133
  184DOPC  C21422630   5.008   1.291   4.589  0.2933  0.0247 -0.2075
  184DOPC  H14R22631   5.076   1.204   4.599 -0.9783 -0.9699  0.0246
  184DOPC  H14S22632   4.907   1.254   4.617  0.0228  1.2126  0.4472
  184DOPC  C21522633   5.067   1.403   4.676  0.7239 -0.1668  0.4537
  184DOPC  H15R22634   5.040   1.495   4.621 -0.1268 -1.0612 -0.6822
  184DOPC  H15S22635   5.177   1.391   4.672  0.7058  0.1002 -1.7285
  184DOPC  C21622636   4.996   1.393   4.807 -0.7080 -0.2081 -0.5636
  184DOPC  H16R22637   5.019   1.293   4.849 -0.4725  0.8752  2.1006
  184DOPC  H16S22638   4.888   1.412   4.790 -0.5540  0.5582 -0.7204
  184DOPC  C21722639   5.047   1.493   4.910 -0.2154 -0.4293  0.0840
  184DOPC  H17R22640   5.151   1.471   4.941 -0.2963 -1.0507 -0.0701
  184DOPC  H17S22641   4.989   1.486   5.005 -0.4379 -0.3894 -0.0497
  184DOPC  C21822642   5.038   1.635   4.855 -0.3377  0.0191 -0.1658
  184DOPC  H18R22643   4.942   1.656   4.803 -0.7211  0.8785  0.8557
  184DOPC  H18S22644   5.126   1.653   4.789  0.3734  2.5990  1.3378
  184DOPC  H18T22645   5.039   1.700   4.945 -0.6077 -0.0457 -0.1171
  184DOPC   C3322646   4.633   1.233   3.804  0.4713  0.0975  0.6354
  184DOPC   H3X22647   4.648   1.340   3.778  0.1785  0.0517  0.2781
  184DOPC   H3Y22648   4.725   1.178   3.775  0.4614  0.8216 -0.8458
  184DOPC   C3422649   4.609   1.244   3.955 -0.2000 -0.0116  0.6066
  184DOPC   H4X22650   4.699   1.283   4.007 -0.4853 -0.9167  1.8143
  184DOPC   H4Y22651   4.598   1.148   4.008 -1.0482 -0.1426  0.2035
  184DOPC   C3522652   4.488   1.332   3.986  0.0117  0.0667 -0.3243
  184DOPC   H5X22653   4.394   1.277   3.966  0.1819 -0.9098  1.3677
  184DOPC   H5Y22654   4.487   1.423   3.922 -0.4648 -1.2673 -2.2912
  184DOPC   C3622655   4.494   1.381   4.132 -0.0705 -0.2486 -0.0279
  184DOPC   H6X22656   4.591   1.434   4.146 -0.3780  0.9848 -2.2207
  184DOPC   H6Y22657   4.412   1.456   4.133  0.3976  0.2803  1.2419
  184DOPC   C3722658   4.478   1.273   4.241 -0.6373  0.2483 -0.6910
  184DOPC   H7X22659   4.388   1.208   4.234 -1.4423  1.1216  0.8637
  184DOPC   H7Y22660   4.567   1.207   4.241 -0.7275 -0.1571  3.2548
  184DOPC   C3822661   4.462   1.342   4.380 -0.0143 -0.3102  0.3244
  184DOPC   H8X22662   4.417   1.262   4.443 -1.2084 -0.1810 -0.3211
  184DOPC   H8Y22663   4.386   1.423   4.365  1.3255  0.6922 -1.3349
  184DOPC   C3922664   4.597   1.395   4.422  0.1624  0.0795 -0.7337
  184DOPC   H9X22665   4.680   1.327   4.395 -1.9071 -2.6845 -0.5585
  184DOPC  C31022666   4.631   1.513   4.479 -0.4589 -0.1875 -0.0356
  184DOPC  H10X22667   4.733   1.546   4.503 -0.2962  1.2754 -2.4309
  184DOPC  C31122668   4.532   1.621   4.512 -0.1743  0.6769 -0.3974
  184DOPC  H11X22669   4.428   1.588   4.493 -0.2628 -0.1176  1.2622
  184DOPC  H11Y22670   4.544   1.709   4.445 -0.7268  1.3007  0.2984
  184DOPC  C31222671   4.549   1.685   4.652 -0.3417  0.5178 -0.3359
  184DOPC  H12X22672   4.659   1.697   4.657 -0.2441 -0.4606 -0.1140
  184DOPC  H12Y22673   4.526   1.618   4.738  1.2295  0.6394  0.2102
  184DOPC  C31322674   4.481   1.822   4.675  0.3649 -0.0261  1.0684
  184DOPC  H13X22675   4.508   1.879   4.583 -1.1236 -2.7618 -1.1963
  184DOPC  H13Y22676   4.371   1.808   4.683  0.2325  0.8292  0.8325
  184DOPC  C31422677   4.517   1.901   4.800  0.2942 -0.1643  0.4090
  184DOPC  H14X22678   4.458   1.992   4.823 -1.2000 -0.7419 -0.9357
  184DOPC  H14Y22679   4.502   1.829   4.883 -0.7606  0.8590  1.1353
  184DOPC  C31522680   4.668   1.931   4.812 -0.7021  0.1761  0.5358
  184DOPC  H15X22681   4.695   2.010   4.738 -1.2715  1.4461  1.6355
  184DOPC  H15Y22682   4.723   1.835   4.811 -3.4106 -1.4877  0.9885
  184DOPC  C31622683   4.689   1.983   4.950 -0.9822  0.7082 -0.0747
  184DOPC  H16X22684   4.622   2.070   4.971 -2.7550 -0.8937  1.2564
  184DOPC  H16Y22685   4.659   1.902   5.020  0.0474 -0.8791 -1.3949
  184DOPC  C31722686   4.835   2.012   4.976 -0.0961  0.4698 -0.5075
  184DOPC  H17X22687   4.901   1.925   4.953  1.7123  2.1107 -1.9125
  184DOPC  H17Y22688   4.878   2.092   4.912  1.1322 -0.5524 -1.0237
  184DOPC  C31822689   4.864   2.073   5.115  0.4128  0.2328  0.3370
  184DOPC  H18X22690   4.823   1.999   5.187 -2.7957  0.4358 -1.1068
  184DOPC  H18Y22691   4.973   2.094   5.127 -0.1048  3.7097 -0.0630
  184DOPC  H18Z22692   4.805   2.167   5.116  0.4363  0.3265 -2.0251
  185DOPC     N22693   4.597   6.451   3.040  0.3552  0.3411  0.1858
  185DOPC   C1222694   4.651   6.361   3.150 -0.4477  0.3353  0.1909
  185DOPC  H12A22695   4.562   6.324   3.197  0.1755  1.7812  2.6683
  185DOPC  H12B22696   4.694   6.428   3.223  1.4448  0.7618 -1.2397
  185DOPC   C1322697   4.476   6.523   3.102 -0.2150 -0.2528  0.1717
  185DOPC  H13A22698   4.398   6.541   3.030 -0.6113  0.0981  0.6820
  185DOPC  H13B22699   4.424   6.465   3.177  1.9355 -1.0247  1.1700
  185DOPC  H13C22700   4.510   6.615   3.146 -1.2458  0.5387 -0.6506
  185DOPC   C1422701   4.534   6.383   2.918 -0.9513 -0.3793  0.2179
  185DOPC  H14A22702   4.499   6.452   2.842  1.2705  0.1422 -0.4031
  185DOPC  H14B22703   4.593   6.304   2.873 -0.4915 -0.9057  1.6790
  185DOPC  H14C22704   4.448   6.325   2.949 -1.2596  0.6868  1.4423
  185DOPC   C1522705   4.686   6.545   2.988 -0.6251 -0.0704 -0.6644
  185DOPC  H15A22706   4.776   6.500   2.947 -1.2341 -0.5451 -1.5274
  185DOPC  H15B22707   4.723   6.612   3.064 -0.9631 -2.7474  2.0824
  185DOPC  H15C22708   4.646   6.614   2.915 -0.4161 -0.7691 -1.4578
  185DOPC   C1122709   4.751   6.251   3.113  0.8934  0.5039  0.4327
  185DOPC  H11A22710   4.782   6.222   3.216 -1.3320 -0.7396  0.8108
  185DOPC  H11B22711   4.698   6.171   3.058  0.4090  1.0261  0.1208
  185DOPC     P22712   4.991   6.320   3.078  0.2676 -0.3078  0.0082
  185DOPC   O1322713   5.053   6.421   2.990 -0.1269  0.1204  0.6639
  185DOPC   O1422714   5.069   6.193   3.095 -0.0928  0.0522  0.7721
  185DOPC   O1222715   4.847   6.290   3.017 -0.7270 -0.3317 -0.2970
  185DOPC   O1122716   4.962   6.378   3.218 -0.1750  0.1373 -0.4904
  185DOPC    C122717   5.036   6.343   3.336 -0.7569 -0.0763  0.1009
  185DOPC    HA22718   5.029   6.424   3.411 -1.1808 -0.4585  0.4759
  185DOPC    HB22719   5.142   6.316   3.317 -1.2282 -2.1642  0.1388
  185DOPC    C222720   4.976   6.228   3.425  0.3313 -0.0254  0.6219
  185DOPC    HS22721   4.977   6.143   3.353  0.7034  0.3169  0.2218
  185DOPC   O2122722   4.842   6.272   3.462 -0.1730  0.4041 -0.9068
  185DOPC   C2122723   4.771   6.166   3.501 -0.1665 -0.1118 -0.1142
  185DOPC   O2222724   4.804   6.049   3.493 -0.2581 -0.0985 -0.1538
  185DOPC   C2222725   4.634   6.208   3.545 -0.3040 -0.1283 -1.0836
  185DOPC   H2R22726   4.601   6.263   3.454 -1.1369 -2.6600 -2.3899
  185DOPC   H2S22727   4.627   6.290   3.620 -0.4777  0.1417 -1.3906
  185DOPC    C322728   5.062   6.190   3.552 -0.5096 -0.3439  0.0523
  185DOPC    HX22729   5.163   6.165   3.514 -0.8801 -1.4642 -0.2119
  185DOPC    HY22730   5.008   6.108   3.602 -0.0046  1.6394  4.3154
  185DOPC   O3122731   5.072   6.304   3.641  0.1453 -0.0526 -0.4726
  185DOPC   C3122732   5.196   6.351   3.664 -0.1232 -0.3177  0.1418
  185DOPC   O3222733   5.296   6.298   3.627 -0.3572 -0.3208  0.1156
  185DOPC   C3222734   5.188   6.482   3.734  0.1294 -0.4206 -0.0204
  185DOPC   H2X22735   5.269   6.549   3.699 -1.4967  0.5980 -2.0726
  185DOPC   H2Y22736   5.103   6.546   3.700  0.6184  1.0654  1.4117
  185DOPC   C2322737   4.528   6.097   3.579  0.1370  0.2074 -0.1243
  185DOPC   H3R22738   4.538   6.002   3.523 -0.1510  0.2698 -0.2827
  185DOPC   H3S22739   4.430   6.134   3.542 -0.5078 -0.2747  1.0303
  185DOPC   C2422740   4.531   6.070   3.732 -0.6828 -0.3238 -0.4807
  185DOPC   H4R22741   4.517   6.167   3.785  2.4109  0.1665 -0.4025
  185DOPC   H4S22742   4.635   6.036   3.753  0.0558  0.3267 -2.8083
  185DOPC   C2522743   4.421   5.977   3.786 -0.1132  0.3525  0.1817
  185DOPC   H5R22744   4.435   5.879   3.735 -1.9637  0.0461  0.2181
  185DOPC   H5S22745   4.320   6.020   3.767 -0.5513 -1.0432 -0.8453
  185DOPC   C2622746   4.438   5.955   3.934 -0.1089  0.4231  0.0671
  185DOPC   H6R22747   4.421   6.054   3.980 -2.9637  1.2218 -2.3861
  185DOPC   H6S22748   4.542   5.925   3.961  0.1144  2.2583  1.3844
  185DOPC   C2722749   4.353   5.842   3.993  0.1422  0.1493  0.3179
  185DOPC   H7R22750   4.352   5.758   3.921 -0.7547  0.5395 -0.1380
  185DOPC   H7S22751   4.248   5.878   3.991 -0.2316 -0.9165 -0.0871
  185DOPC   C2822752   4.393   5.789   4.133 -0.6994  0.2434  0.0300
  185DOPC   H8R22753   4.304   5.729   4.161 -1.2639  0.6402 -0.8758
  185DOPC   H8S22754   4.411   5.872   4.205 -0.3633  0.7478 -0.6219
  185DOPC   C2922755   4.511   5.694   4.133  0.2941  0.7856  0.9760
  185DOPC   H9R22756   4.536   5.651   4.034  0.5911 -0.4913  1.5764
  185DOPC  C21022757   4.580   5.643   4.239  0.9562 -0.1605  0.6770
  185DOPC  H10R22758   4.634   5.552   4.209  0.1371 -0.5961  0.4961
  185DOPC  C21122759   4.553   5.674   4.386 -0.4468  0.3664  0.8244
  185DOPC  H11R22760   4.470   5.748   4.393 -1.6700 -0.4076 -3.0054
  185DOPC  H11S22761   4.642   5.726   4.428 -0.3375  1.4768 -0.7072
  185DOPC  C21222762   4.527   5.548   4.467  0.7536 -0.3081 -0.1155
  185DOPC  H12R22763   4.621   5.491   4.460  0.9351  0.1666 -2.2468
  185DOPC  H12S22764   4.445   5.497   4.412 -2.6836  0.7186  3.5544
  185DOPC  C21322765   4.477   5.564   4.619 -0.8594 -0.0896 -0.5886
  185DOPC  H13R22766   4.373   5.602   4.615 -0.8239  0.0869  0.0535
  185DOPC  H13S22767   4.551   5.634   4.664 -0.4562 -0.3198 -0.8760
  185DOPC  C21422768   4.476   5.429   4.696  0.1675 -0.5289 -0.1198
  185DOPC  H14R22769   4.579   5.388   4.690  0.6424  0.6448 -0.2360
  185DOPC  H14S22770   4.412   5.359   4.638 -1.2045 -0.5264  1.3418
  185DOPC  C21522771   4.433   5.434   4.841 -0.1123  0.3910  0.3895
  185DOPC  H15R22772   4.497   5.503   4.900 -0.4639  2.6296 -1.6650
  185DOPC  H15S22773   4.437   5.337   4.895  1.5087 -0.5629 -1.3432
  185DOPC  C21622774   4.294   5.487   4.849  0.0129 -0.0239  0.3120
  185DOPC  H16R22775   4.218   5.430   4.792  0.3521  0.2650 -0.4417
  185DOPC  H16S22776   4.291   5.593   4.819  1.9312  0.6704  2.2667
  185DOPC  C21722777   4.239   5.495   4.991  0.8994 -0.2720  0.4678
  185DOPC  H17R22778   4.302   5.564   5.051 -1.6937  1.0861  1.8206
  185DOPC  H17S22779   4.243   5.393   5.034 -0.8397 -1.5400 -2.1475
  185DOPC  C21822780   4.092   5.551   4.987 -0.1004  0.1926 -0.4598
  185DOPC  H18R22781   4.037   5.468   4.939  2.0128 -1.1163 -0.7537
  185DOPC  H18S22782   4.082   5.647   4.932 -2.1996 -0.6302 -1.6337
  185DOPC  H18T22783   4.060   5.559   5.093  0.4494  0.3989 -0.3053
  185DOPC   C3322784   5.191   6.461   3.889  0.3338  0.1731 -0.0791
  185DOPC   H3X22785   5.126   6.373   3.908  1.1353 -0.8804 -1.9861
  185DOPC   H3Y22786   5.142   6.550   3.934 -0.1933  0.4167 -1.1207
  185DOPC   C3422787   5.331   6.449   3.952 -0.3583 -0.5487 -0.2962
  185DOPC   H4X22788   5.391   6.542   3.936 -1.2672  0.2685  0.8449
  185DOPC   H4Y22789   5.385   6.363   3.909 -0.7826 -0.7166 -0.4984
  185DOPC   C3522790   5.322   6.423   4.104 -0.7958 -0.2363 -0.7183
  185DOPC   H5X22791   5.426   6.397   4.136 -0.9569 -1.0649 -0.8375
  185DOPC   H5Y22792   5.265   6.328   4.112  3.0290 -2.7774 -0.8687
  185DOPC   C3622793   5.253   6.529   4.183 -0.1840  0.4511 -0.0924
  185DOPC   H6X22794   5.314   6.622   4.178 -0.5937  0.8512  1.6885
  185DOPC   H6Y22795   5.157   6.555   4.134 -0.0188  2.6043  0.6385
  185DOPC   C3722796   5.217   6.487   4.326  0.4283  0.3396 -1.0628
  185DOPC   H7X22797   5.133   6.414   4.322  0.4070  0.2659  0.4037
  185DOPC   H7Y22798   5.302   6.437   4.377 -0.6478  0.2252  0.6908
  185DOPC   C3822799   5.183   6.610   4.406  0.6793  0.2378 -0.0333
  185DOPC   H8X22800   5.267   6.683   4.410 -0.5741  1.7340  0.1113
  185DOPC   H8Y22801   5.166   6.575   4.510 -0.0650 -0.7697 -0.4757
  185DOPC   C3922802   5.056   6.683   4.365 -0.5534  0.5326  0.0880
  185DOPC   H9X22803   5.026   6.668   4.260  0.6081 -0.2987 -0.1424
  185DOPC  C31022804   4.987   6.779   4.426  0.3246  0.6236 -0.0751
  185DOPC  H10X22805   4.889   6.811   4.387  0.3861  0.3965 -0.4201
  185DOPC  C31122806   5.027   6.831   4.563  0.0623 -0.3455 -0.1066
  185DOPC  H11X22807   5.099   6.914   4.544 -0.7508  0.4713  0.3112
  185DOPC  H11Y22808   5.077   6.743   4.610 -1.4623 -1.2645 -0.1687
  185DOPC  C31222809   4.914   6.868   4.665 -0.7448  0.0522  0.4602
  185DOPC  H12X22810   4.842   6.940   4.621 -1.2430 -0.7329 -0.0376
  185DOPC  H12Y22811   4.954   6.925   4.751  0.2755 -0.6041  0.4313
  185DOPC  C31322812   4.830   6.748   4.702  0.6952  0.0604 -0.5008
  185DOPC  H13X22813   4.723   6.778   4.704  1.0107  1.2311  1.2889
  185DOPC  H13Y22814   4.835   6.669   4.624  0.9056 -1.4519  0.9926
  185DOPC  C31422815   4.854   6.685   4.842  0.3319 -0.0749 -0.8608
  185DOPC  H14X22816   4.962   6.661   4.854  0.4204  0.7231  0.0734
  185DOPC  H14Y22817   4.830   6.761   4.919  0.2944 -0.3881 -0.5599
  185DOPC  C31522818   4.760   6.568   4.864 -0.4589  0.8127 -0.3277
  185DOPC  H15X22819   4.767   6.515   4.767 -2.2258  0.6927 -0.4339
  185DOPC  H15Y22820   4.658   6.610   4.878 -1.9447 -2.5885  0.0696
  185DOPC  C31622821   4.799   6.482   4.985  0.3038  0.4288 -0.0075
  185DOPC  H16X22822   4.894   6.428   4.965 -0.5078 -0.9985 -0.1384
  185DOPC  H16Y22823   4.811   6.538   5.081  2.5318  0.2250 -0.1002
  185DOPC  C31722824   4.694   6.375   5.006  0.2390 -0.3150 -0.1127
  185DOPC  H17X22825   4.600   6.427   5.036  1.2133  1.2751  0.3210
  185DOPC  H17Y22826   4.676   6.338   4.903  0.1464  2.6082 -1.2419
  185DOPC  C31822827   4.738   6.265   5.103 -0.0825 -0.0513 -0.0500
  185DOPC  H18X22828   4.653   6.193   5.110 -0.8620  0.8343 -0.1226
  185DOPC  H18Y22829   4.837   6.222   5.077 -1.0451 -1.4320 -1.6425
  185DOPC  H18Z22830   4.748   6.311   5.203 -0.2347  0.2079 -0.1519
  186DOPC     N22831   1.284   1.775   2.557  0.1513  0.9286 -0.7519
  186DOPC   C1222832   1.249   1.850   2.688 -0.3548  0.5108 -0.5265
  186DOPC  H12A22833   1.143   1.873   2.686 -0.5382  0.2006  2.2018
  186DOPC  H12B22834   1.299   1.945   2.675  0.3318 -0.0032 -1.8164
  186DOPC   C1322835   1.215   1.843   2.447 -0.0368 -0.5698  0.6053
  186DOPC  H13A22836   1.230   1.788   2.356 -1.4357  1.7534 -1.1375
  186DOPC  H13B22837   1.108   1.851   2.461 -0.4220 -1.1722 -1.6007
  186DOPC  H13C22838   1.258   1.941   2.433 -0.6152 -0.5783 -1.5389
  186DOPC   C1422839   1.231   1.629   2.560  0.5213  0.1093 -0.4629
  186DOPC  H14A22840   1.260   1.581   2.468 -1.4213 -0.6079 -0.7414
  186DOPC  H14B22841   1.284   1.582   2.642  1.3878  1.0547 -0.4518
  186DOPC  H14C22842   1.123   1.625   2.556  0.2744  2.2215  1.6694
  186DOPC   C1522843   1.434   1.785   2.536 -0.3080 -1.3136  0.1547
  186DOPC  H15A22844   1.484   1.757   2.628  1.3227  1.5942  0.2840
  186DOPC  H15B22845   1.461   1.885   2.505  1.1328 -1.5125  0.6685
  186DOPC  H15C22846   1.474   1.723   2.457  2.3237  1.0572 -0.5359
  186DOPC   C1122847   1.292   1.790   2.829  0.3596  0.1580 -0.1390
  186DOPC  H11A22848   1.398   1.756   2.831  0.2116 -0.3209 -0.2055
  186DOPC  H11B22849   1.271   1.868   2.905 -0.8943 -0.4315  0.1537
  186DOPC     P22850   1.044   1.714   2.887 -0.2280  0.2584 -0.1505
  186DOPC   O1322851   0.975   1.591   2.936 -0.0016  0.2254  0.4604
  186DOPC   O1422852   0.982   1.777   2.769 -0.0117  0.3954  0.2859
  186DOPC   O1222853   1.201   1.681   2.864  0.7185  0.2708  0.0540
  186DOPC   O1122854   1.047   1.821   3.000 -0.2722 -0.1333  1.0073
  186DOPC    C122855   1.049   1.790   3.138  0.2149  0.0903  0.3970
  186DOPC    HA22856   1.151   1.753   3.165  0.5360  1.0298  0.5136
  186DOPC    HB22857   0.977   1.710   3.164 -2.0584  2.2593  1.0880
  186DOPC    C222858   1.012   1.912   3.223  0.1522 -0.2411 -0.9299
  186DOPC    HS22859   0.960   1.870   3.312 -0.3797 -0.1087 -1.1760
  186DOPC   O2122860   0.915   2.003   3.151  0.7226 -0.2004 -0.4402
  186DOPC   C2122861   0.794   1.946   3.144 -0.3515  0.3407 -0.3084
  186DOPC   O2222862   0.760   1.838   3.191  0.2441 -0.0006 -0.3888
  186DOPC   C2222863   0.701   2.047   3.077 -0.5284  0.3377  0.6283
  186DOPC   H2R22864   0.604   2.001   3.049 -0.8844  0.6384  1.3437
  186DOPC   H2S22865   0.766   2.077   2.992  0.8760 -0.2466  1.4512
  186DOPC    C322866   1.126   2.007   3.262 -0.9436 -0.3356 -0.3448
  186DOPC    HX22867   1.169   2.052   3.169 -0.5529 -1.3342 -0.6590
  186DOPC    HY22868   1.210   1.943   3.296  0.0716 -1.2526 -4.0816
  186DOPC   O3122869   1.098   2.108   3.356  0.3371 -0.3618  0.5964
  186DOPC   C3122870   1.096   2.054   3.474  0.1198 -0.2566 -0.4264
  186DOPC   O3222871   1.112   1.937   3.511 -0.0798  0.5350 -0.1492
  186DOPC   C3222872   1.073   2.163   3.578  0.5648 -0.2028 -0.3616
  186DOPC   H2X22873   1.170   2.214   3.589  0.9804 -1.1372  0.4634
  186DOPC   H2Y22874   0.997   2.231   3.535 -1.7809 -2.3025  0.2121
  186DOPC   C2322875   0.682   2.182   3.152  0.1835 -0.4149  0.2509
  186DOPC   H3R22876   0.624   2.255   3.092  0.7290  0.3749  0.6640
  186DOPC   H3S22877   0.783   2.227   3.167  0.8515 -1.1331 -1.7814
  186DOPC   C2422878   0.620   2.169   3.289  0.0967 -0.3535 -0.1832
  186DOPC   H4R22879   0.691   2.133   3.366 -0.1454  0.6755  0.5455
  186DOPC   H4S22880   0.538   2.094   3.287 -2.2410  2.0725 -1.8070
  186DOPC   C2522881   0.547   2.302   3.336 -0.4412 -0.1218 -0.0760
  186DOPC   H5R22882   0.471   2.339   3.263  0.0339  1.1504  0.0442
  186DOPC   H5S22883   0.612   2.391   3.349  0.0370 -0.7165  1.9412
  186DOPC   C2622884   0.481   2.292   3.475 -0.3534  0.2226 -0.3207
  186DOPC   H6R22885   0.406   2.210   3.476 -1.0458  0.8451  0.9341
  186DOPC   H6S22886   0.413   2.380   3.485  0.8729  1.3653 -1.5504
  186DOPC   C2722887   0.580   2.288   3.591  0.9401  0.0688 -0.4783
  186DOPC   H7R22888   0.642   2.380   3.595  0.4784  0.3693  1.9764
  186DOPC   H7S22889   0.641   2.200   3.564  3.7028  1.7644 -0.1497
  186DOPC   C2822890   0.503   2.269   3.726 -0.4975 -0.2673  0.8353
  186DOPC   H8R22891   0.582   2.234   3.796  0.3539  1.7365  0.9313
  186DOPC   H8S22892   0.428   2.189   3.705 -0.3418  0.1866 -1.7463
  186DOPC   C2922893   0.440   2.401   3.768 -0.3312  0.4410 -0.0562
  186DOPC   H9R22894   0.445   2.475   3.686  1.0797  0.3004 -0.1253
  186DOPC  C21022895   0.407   2.451   3.886  0.0851  1.1251 -0.7834
  186DOPC  H10R22896   0.375   2.555   3.901 -0.0422  0.7844  1.6426
  186DOPC  C21122897   0.437   2.371   4.019  0.1465  0.1965 -0.0950
  186DOPC  H11R22898   0.546   2.355   4.024  0.0623  0.0227  2.3362
  186DOPC  H11S22899   0.399   2.268   4.002  0.6427  0.0138 -0.0898
  186DOPC  C21222900   0.385   2.438   4.150 -0.0107 -0.6698  0.6721
  186DOPC  H12R22901   0.274   2.442   4.149 -0.0334 -1.3383  0.2889
  186DOPC  H12S22902   0.430   2.540   4.155 -1.6621  0.0503  1.7996
  186DOPC  C21322903   0.442   2.364   4.275 -0.5596  0.0139  0.3006
  186DOPC  H13R22904   0.553   2.366   4.266 -0.3997 -3.4501  0.2544
  186DOPC  H13S22905   0.407   2.259   4.271  0.2487 -0.3187  1.4897
  186DOPC  C21422906   0.399   2.413   4.409  0.6699 -0.1514  0.1295
  186DOPC  H14R22907   0.289   2.428   4.410  0.5527 -0.8699 -0.7175
  186DOPC  H14S22908   0.451   2.507   4.435  1.5809 -0.4782 -0.4731
  186DOPC  C21522909   0.427   2.304   4.514 -0.9200  0.0072 -0.1788
  186DOPC  H15R22910   0.385   2.205   4.485 -0.4478 -0.5468  0.9710
  186DOPC  H15S22911   0.380   2.341   4.608 -0.3165  1.2341 -0.3427
  186DOPC  C21622912   0.583   2.288   4.553 -0.4827 -0.8627  0.0188
  186DOPC  H16R22913   0.614   2.377   4.611 -0.4151 -1.8596  1.5670
  186DOPC  H16S22914   0.654   2.291   4.467  0.6355 -1.1462  0.8986
  186DOPC  C21722915   0.598   2.155   4.621  0.2876  0.2939 -0.2749
  186DOPC  H17R22916   0.575   2.088   4.536  1.1928 -1.4972  0.8274
  186DOPC  H17S22917   0.523   2.137   4.701 -0.4817  0.9590 -0.8325
  186DOPC  C21822918   0.735   2.125   4.676 -0.4654 -1.0406  0.6964
  186DOPC  H18R22919   0.755   2.193   4.761 -2.6572  0.3358  0.2048
  186DOPC  H18S22920   0.818   2.141   4.603  1.3123 -3.5045  2.0382
  186DOPC  H18T22921   0.740   2.024   4.720  0.3269 -2.1185 -1.6923
  186DOPC   C3322922   1.026   2.105   3.718  0.1466  0.2102 -0.9589
  186DOPC   H3X22923   1.095   2.024   3.749  0.7467  1.3500  0.8808
  186DOPC   H3Y22924   0.919   2.074   3.711  0.0832 -0.1835  1.0385
  186DOPC   C3422925   1.041   2.213   3.828 -0.2795  0.1089  0.4301
  186DOPC   H4X22926   1.145   2.227   3.862  0.1444 -0.8528 -0.4295
  186DOPC   H4Y22927   0.987   2.174   3.918  0.1340 -1.0374  0.2028
  186DOPC   C3522928   0.971   2.344   3.795  0.4624  0.1597 -0.3728
  186DOPC   H5X22929   0.885   2.348   3.725  0.1442 -0.5767 -0.0401
  186DOPC   H5Y22930   1.056   2.403   3.755  0.5451  0.2355 -0.0839
  186DOPC   C3622931   0.898   2.407   3.917 -0.1839 -0.8196 -1.0092
  186DOPC   H6X22932   0.826   2.336   3.962  0.3453 -1.1007 -0.5855
  186DOPC   H6Y22933   0.982   2.412   3.990  0.9658 -0.4889 -2.3191
  186DOPC   C3722934   0.830   2.541   3.891 -0.3172 -0.8274  0.7324
  186DOPC   H7X22935   0.897   2.608   3.833 -1.5670 -0.4795 -0.3517
  186DOPC   H7Y22936   0.741   2.525   3.826 -0.4883 -0.9405  0.9921
  186DOPC   C3822937   0.782   2.608   4.018 -0.6313 -0.7115  0.1948
  186DOPC   H8X22938   0.736   2.530   4.082  0.7536 -2.0609 -0.3692
  186DOPC   H8Y22939   0.703   2.683   3.998  0.4615  0.5429  0.4650
  186DOPC   C3922940   0.896   2.677   4.083 -0.2768 -0.9311 -0.1038
  186DOPC   H9X22941   0.944   2.750   4.016 -1.3470  0.7666  0.8951
  186DOPC  C31022942   0.928   2.665   4.214 -0.0755  0.5997 -0.0768
  186DOPC  H10X22943   1.004   2.730   4.259  0.4166  0.3863 -0.5954
  186DOPC  C31122944   0.861   2.582   4.318 -0.7101 -0.7193 -0.2042
  186DOPC  H11X22945   0.943   2.514   4.348  0.9722  1.1246 -0.4499
  186DOPC  H11Y22946   0.782   2.517   4.273 -1.2731  0.8506 -1.5840
  186DOPC  C31222947   0.806   2.652   4.446 -0.3764  0.2084  0.0066
  186DOPC  H12X22948   0.873   2.729   4.489 -0.6634  0.4776 -0.0309
  186DOPC  H12Y22949   0.797   2.562   4.511 -0.2526  1.0910  1.2839
  186DOPC  C31322950   0.677   2.730   4.419 -0.0910  0.5108 -0.5115
  186DOPC  H13X22951   0.697   2.813   4.348 -1.5116 -0.4411 -2.1219
  186DOPC  H13Y22952   0.600   2.661   4.377 -0.6435  0.6007  0.3200
  186DOPC  C31422953   0.604   2.796   4.540 -0.2068  0.0858  0.0270
  186DOPC  H14X22954   0.680   2.856   4.594  1.0530 -0.2746 -1.2772
  186DOPC  H14Y22955   0.527   2.868   4.505  0.4968  0.4190 -0.8603
  186DOPC  C31522956   0.546   2.697   4.640 -0.3239  0.9338 -0.9862
  186DOPC  H15X22957   0.623   2.622   4.669  0.1582  0.9617 -2.1617
  186DOPC  H15Y22958   0.462   2.632   4.607  0.6832 -1.6035  1.0914
  186DOPC  C31622959   0.498   2.768   4.774  0.4739  0.6906  0.4098
  186DOPC  H16X22960   0.591   2.807   4.821 -0.3060  2.2848  0.6928
  186DOPC  H16Y22961   0.439   2.856   4.741  1.2622  1.4212  0.8965
  186DOPC  C31722962   0.436   2.674   4.876  0.1738  0.7619  0.4854
  186DOPC  H17X22963   0.392   2.744   4.951  0.8280  3.5372 -1.5449
  186DOPC  H17Y22964   0.354   2.620   4.825  0.9282  1.7140 -1.8830
  186DOPC  C31822965   0.526   2.570   4.939  0.0513  0.5924  0.2790
  186DOPC  H18X22966   0.472   2.522   5.023  1.6649 -1.0794  0.4473
  186DOPC  H18Y22967   0.562   2.490   4.870 -2.7273 -1.0843  0.6032
  186DOPC  H18Z22968   0.614   2.619   4.986 -0.1245  1.2316 -0.0496
  187DOPC     N22969   5.542   1.397   2.780 -0.8649  0.0830  0.1108
  187DOPC   C1222970   5.667   1.474   2.813  0.1002 -0.0599  0.4448
  187DOPC  H12A22971   5.630   1.565   2.856  1.6449  2.0230 -2.2822
  187DOPC  H12B22972   5.703   1.496   2.713 -1.8103 -2.0738 -0.7825
  187DOPC   C1322973   5.577   1.259   2.723 -0.1036 -0.0291  0.1528
  187DOPC  H13A22974   5.634   1.201   2.794 -0.8696 -1.2100 -0.1825
  187DOPC  H13B22975   5.485   1.207   2.703 -0.2378  0.6884 -1.2927
  187DOPC  H13C22976   5.637   1.269   2.634  2.4648 -2.3873  1.4537
  187DOPC   C1422977   5.461   1.463   2.684  0.6328  0.0313 -0.1521
  187DOPC  H14A22978   5.517   1.483   2.594 -2.0931  0.9554 -1.7914
  187DOPC  H14B22979   5.384   1.401   2.641 -0.2029  0.1674  1.0858
  187DOPC  H14C22980   5.410   1.548   2.729 -0.0136 -0.2574 -0.3362
  187DOPC   C1522981   5.465   1.378   2.909 -0.6883 -0.7637 -0.5410
  187DOPC  H15A22982   5.460   1.467   2.970 -0.5824 -1.7794  1.0200
  187DOPC  H15B22983   5.512   1.308   2.977  0.6801  0.3704 -0.2612
  187DOPC  H15C22984   5.366   1.341   2.888 -0.3580 -2.8526  1.2100
  187DOPC   C1122985   5.776   1.407   2.904  0.3423  0.2121 -0.0451
  187DOPC  H11A22986   5.822   1.326   2.844 -1.1131  0.1727 -1.1440
  187DOPC  H11B22987   5.843   1.495   2.915 -1.6242  1.6616  1.1411
  187DOPC     P22988   5.800   1.297   3.142 -0.3144  0.0057 -0.2725
  187DOPC   O1322989   5.843   1.172   3.078  0.0463 -0.4863  0.3532
  187DOPC   O1422990   5.711   1.291   3.256 -0.2421  0.0907 -0.2713
  187DOPC   O1222991   5.717   1.377   3.033  0.2010  0.0523  0.2446
  187DOPC   O1122992   5.926   1.383   3.168  0.4829 -0.2937 -0.8671
  187DOPC    C122993   5.903   1.525   3.217 -0.1290 -0.2967  0.2110
  187DOPC    HA22994   5.797   1.557   3.209 -0.1651 -0.0578  1.4679
  187DOPC    HB22995   5.950   1.599   3.149  1.1072 -0.1188  1.2220
  187DOPC    C222996   5.965   1.552   3.355  0.0881  0.4114 -0.2305
  187DOPC    HS22997   6.073   1.529   3.358  0.0615 -0.2680 -2.3988
  187DOPC   O2122998   5.887   1.485   3.454 -0.7382 -0.3949 -0.2721
  187DOPC   C2122999   5.928   1.361   3.493 -0.0943 -0.2134 -0.8235
  187DOPC   O2223000   6.036   1.310   3.464 -0.3337  0.2327  0.6488
  187DOPC   C2223001   5.814   1.293   3.569 -0.2393  0.1991 -0.6362
  187DOPC   H2R23002   5.848   1.187   3.568  0.5385  0.4257 -2.7235
  187DOPC   H2S23003   5.728   1.299   3.499  0.5799 -3.6633 -2.2674
  187DOPC    C323004   5.949   1.704   3.382 -0.3494 -0.4461 -0.1983
  187DOPC    HX23005   5.850   1.738   3.345  0.0581  0.3409 -0.5861
  187DOPC    HY23006   6.022   1.761   3.320 -0.8252  0.1392 -0.2338
  187DOPC   O3123007   5.970   1.737   3.522 -0.0548  0.1724 -0.5817
  187DOPC   C3123008   5.857   1.752   3.591 -0.2774 -0.3697  0.0327
  187DOPC   O3223009   5.743   1.733   3.554 -0.4044  0.7737 -0.2891
  187DOPC   C3223010   5.891   1.797   3.735 -0.0922  0.3337 -0.1330
  187DOPC   H2X23011   5.973   1.729   3.764 -0.6116 -0.5687 -0.7471
  187DOPC   H2Y23012   5.945   1.895   3.738  0.0358  0.3258 -1.4055
  187DOPC   C2323013   5.776   1.346   3.704 -0.0155 -0.0501  0.2761
  187DOPC   H3R23014   5.678   1.303   3.732 -1.5704  2.9779 -0.1481
  187DOPC   H3S23015   5.764   1.457   3.706  1.3175  0.1103  0.4442
  187DOPC   C2423016   5.877   1.309   3.818 -0.4863 -0.1648  0.3541
  187DOPC   H4R23017   5.972   1.364   3.808 -0.0440 -0.7870  0.9922
  187DOPC   H4S23018   5.894   1.199   3.812 -1.3713 -0.2226 -1.7775
  187DOPC   C2523019   5.806   1.349   3.944 -0.1698 -0.2449 -0.5954
  187DOPC   H5R23020   5.711   1.292   3.954 -0.8037  0.8204 -0.4504
  187DOPC   H5S23021   5.775   1.455   3.940  1.4208  0.4032  1.8406
  187DOPC   C2623022   5.894   1.336   4.070 -0.1499 -0.3826 -0.7157
  187DOPC   H6R23023   5.971   1.416   4.073 -1.1004  0.6207  3.4813
  187DOPC   H6S23024   5.945   1.239   4.089 -2.5892 -1.2799  2.0995
  187DOPC   C2723025   5.816   1.366   4.197 -0.3593  0.0741  0.0063
  187DOPC   H7R23026   5.711   1.332   4.200  0.0814 -1.4456 -0.4800
  187DOPC   H7S23027   5.788   1.472   4.208 -0.6713  0.3075 -2.4825
  187DOPC   C2823028   5.883   1.309   4.328  0.3137  1.2918  0.0345
  187DOPC   H8R23029   5.985   1.353   4.332 -0.4471  3.0783  0.8696
  187DOPC   H8S23030   5.884   1.198   4.325  1.4826  1.2171  1.7057
  187DOPC   C2923031   5.809   1.341   4.459 -0.8704 -0.2996  0.5723
  187DOPC   H9R23032   5.752   1.267   4.516 -3.6022  1.2503  0.0386
  187DOPC  C21023033   5.812   1.463   4.515 -0.4564  0.7189  0.2160
  187DOPC  H10R23034   5.768   1.467   4.616 -0.0269  1.9072  0.3650
  187DOPC  C21123035   5.881   1.588   4.477  0.7005 -0.1666 -0.4039
  187DOPC  H11R23036   5.797   1.655   4.450  0.1307 -0.5027  0.4704
  187DOPC  H11S23037   5.944   1.596   4.386 -1.1706  1.2631 -1.6415
  187DOPC  C21223038   5.948   1.656   4.602  0.0376 -0.1937 -0.7146
  187DOPC  H12R23039   5.989   1.753   4.566  3.6136 -1.6731 -1.0570
  187DOPC  H12S23040   6.033   1.591   4.634 -1.2405 -1.2340  0.7337
  187DOPC  C21323041   5.854   1.690   4.714  0.1250  0.2934  0.3440
  187DOPC  H13R23042   5.815   1.595   4.758 -1.8464  0.6934 -0.4541
  187DOPC  H13S23043   5.763   1.738   4.674 -0.2390 -1.3507 -0.9122
  187DOPC  C21423044   5.918   1.774   4.828  0.8778  0.0817 -0.0146
  187DOPC  H14R23045   5.974   1.861   4.787  0.5476  1.2045  1.8317
  187DOPC  H14S23046   5.987   1.712   4.889 -0.9251 -2.3456 -0.3079
  187DOPC  C21523047   5.802   1.819   4.924  0.0339 -0.1095 -0.4507
  187DOPC  H15R23048   5.765   1.716   4.945  0.7116 -0.2818 -0.0728
  187DOPC  H15S23049   5.731   1.887   4.872  0.7068 -0.0109 -1.2511
  187DOPC  C21623050   5.850   1.895   5.048  0.0133  0.1804 -0.7584
  187DOPC  H16R23051   5.760   1.934   5.099 -1.0434 -0.3625 -2.1394
  187DOPC  H16S23052   5.921   1.978   5.027  0.7174  0.5078  2.4613
  187DOPC  C21723053   5.930   1.811   5.141 -0.4125 -0.1249 -0.5995
  187DOPC  H17R23054   6.037   1.791   5.117  0.1171 -0.7916  1.9624
  187DOPC  H17S23055   5.875   1.714   5.136 -0.0839 -0.2568 -2.9348
  187DOPC  C21823056   5.946   1.865   5.285  0.2996 -0.0443 -0.3518
  187DOPC  H18R23057   6.007   1.807   5.358  0.5151  0.3257 -0.2343
  187DOPC  H18S23058   5.848   1.875   5.338  1.8665 -0.5818  2.8823
  187DOPC  H18T23059   5.996   1.964   5.285 -0.9711  0.6875  1.9696
  187DOPC   C3323060   5.784   1.782   3.839 -0.1794 -0.8866  0.2918
  187DOPC   H3X23061   5.746   1.678   3.850 -0.2521 -0.7611  1.2891
  187DOPC   H3Y23062   5.693   1.836   3.803  0.1286 -1.3509 -1.2663
  187DOPC   C3423063   5.813   1.833   3.980  0.0608 -0.1208 -0.2542
  187DOPC   H4X23064   5.718   1.833   4.038  0.2552  0.0028  0.0690
  187DOPC   H4Y23065   5.848   1.938   3.972  2.6615 -0.7167  1.8253
  187DOPC   C3523066   5.924   1.748   4.061  0.4319  0.0898  0.1245
  187DOPC   H5X23067   6.016   1.745   4.000 -0.6593  0.0588 -1.5838
  187DOPC   H5Y23068   5.889   1.647   4.089 -0.1348  0.6642  1.6356
  187DOPC   C3623069   5.970   1.811   4.200  0.4132  0.7794  0.3718
  187DOPC   H6X23070   5.879   1.811   4.264 -0.1285 -3.2535 -0.1696
  187DOPC   H6Y23071   6.041   1.744   4.251 -0.3339  0.6156  1.2319
  187DOPC   C3723072   6.037   1.949   4.192  0.0505 -0.2015 -0.8728
  187DOPC   H7X23073   6.134   1.955   4.139  1.3975 -0.5499  1.4155
  187DOPC   H7Y23074   5.959   2.006   4.137  0.8041 -0.3217 -2.0873
  187DOPC   C3823075   6.060   2.002   4.334 -0.5663  0.4889 -0.3526
  187DOPC   H8X23076   6.122   1.925   4.385 -2.7556 -1.6933 -0.7658
  187DOPC   H8Y23077   5.960   1.997   4.381 -0.3857 -1.9720 -0.1078
  187DOPC   C3923078   6.112   2.136   4.350 -0.8314  0.1435 -0.3528
  187DOPC   H9X23079   6.093   2.209   4.269 -1.6928  1.1104  0.6888
  187DOPC  C31023080   6.187   2.185   4.451 -0.4300  0.9008  0.7432
  187DOPC  H10X23081   6.227   2.287   4.437  2.6956 -0.2446  0.3889
  187DOPC  C31123082   6.245   2.127   4.581  0.1831 -0.4367  0.7248
  187DOPC  H11X23083   6.355   2.143   4.585  0.2121 -0.5265  0.3228
  187DOPC  H11Y23084   6.222   2.019   4.581  0.1455 -0.4359 -0.1046
  187DOPC  C31223085   6.180   2.199   4.699  0.1870  0.2732  0.1602
  187DOPC  H12X23086   6.069   2.192   4.689  0.1912  1.5274 -1.0205
  187DOPC  H12Y23087   6.209   2.306   4.686  0.2135  0.3570  0.8720
  187DOPC  C31323088   6.237   2.154   4.832 -0.3953 -0.7372 -1.0209
  187DOPC  H13X23089   6.223   2.045   4.849  0.4159 -0.7548 -0.3709
  187DOPC  H13Y23090   6.348   2.167   4.828 -0.6318  2.4331 -0.3968
  187DOPC  C31423091   6.169   2.230   4.954 -0.6670 -0.5463  0.1776
  187DOPC  H14X23092   6.183   2.337   4.928 -0.2963 -0.8829 -1.0841
  187DOPC  H14Y23093   6.062   2.199   4.959 -1.2135  1.1716 -0.1920
  187DOPC  C31523094   6.245   2.204   5.086 -0.7244  0.5761 -0.7802
  187DOPC  H15X23095   6.354   2.218   5.074 -0.2430 -1.4191  0.9154
  187DOPC  H15Y23096   6.234   2.095   5.103 -1.2732  0.5557 -1.1922
  187DOPC  C31623097   6.191   2.293   5.197  0.8589 -0.6369  0.4125
  187DOPC  H16X23098   6.184   2.397   5.159 -1.1557 -0.7670  0.3600
  187DOPC  H16Y23099   6.086   2.262   5.212  0.8414 -2.9514 -3.3020
  187DOPC  C31723100   6.265   2.289   5.330  0.3998 -0.1910  0.2443
  187DOPC  H17X23101   6.263   2.186   5.374  0.0623 -0.2853  0.0048
  187DOPC  H17Y23102   6.373   2.299   5.303  0.9371 -2.2065  1.3801
  187DOPC  C31823103   6.227   2.387   5.442 -0.6738  0.8679 -0.2934
  187DOPC  H18X23104   6.118   2.401   5.455 -0.7250  0.0437  0.2121
  187DOPC  H18Y23105   6.268   2.364   5.543 -3.6121  1.1386  1.0757
  187DOPC  H18Z23106   6.274   2.488   5.433 -1.3456  1.2172  0.0638
  188DOPC     N23107   0.942   0.761   2.302 -0.0980 -0.1926  0.1815
  188DOPC   C1223108   0.945   0.803   2.442 -0.7117 -0.0051  1.1940
  188DOPC  H12A23109   0.850   0.774   2.485 -0.4808 -2.0395  0.4498
  188DOPC  H12B23110   0.954   0.910   2.449 -0.5049 -0.0705  2.1658
  188DOPC   C1323111   0.897   0.621   2.303  0.0794 -0.0345 -0.6209
  188DOPC  H13A23112   0.866   0.579   2.209  1.1747 -3.1072  0.2527
  188DOPC  H13B23113   0.978   0.557   2.336  1.2818 -0.1996 -3.5917
  188DOPC  H13C23114   0.802   0.614   2.355 -0.0320  1.7413 -0.5298
  188DOPC   C1423115   1.066   0.766   2.226 -0.8978 -0.1507 -0.1397
  188DOPC  H14A23116   1.075   0.866   2.185 -0.6076 -0.1995 -0.1944
  188DOPC  H14B23117   1.154   0.741   2.284  0.9504  2.8888 -1.3790
  188DOPC  H14C23118   1.063   0.702   2.139  1.1109  1.6680 -1.6660
  188DOPC   C1523119   0.839   0.839   2.224 -0.3661  0.6226  0.3548
  188DOPC  H15A23120   0.863   0.944   2.218 -2.7063  1.1722 -0.2229
  188DOPC  H15B23121   0.747   0.838   2.281  0.3143 -0.5406  1.4902
  188DOPC  H15C23122   0.823   0.796   2.126 -1.3808 -0.2248  0.8728
  188DOPC   C1123123   1.062   0.735   2.521 -0.1024 -0.3803 -0.1892
  188DOPC  H11A23124   1.053   0.760   2.629 -0.8958  2.0923 -0.7493
  188DOPC  H11B23125   1.050   0.625   2.520 -0.0513 -0.4194 -2.7765
  188DOPC     P23126   1.244   0.916   2.516 -0.1044  0.0570  0.3761
  188DOPC   O1323127   1.136   1.012   2.485 -0.1727  0.1816  0.0792
  188DOPC   O1423128   1.383   0.942   2.461 -0.0943  0.1131  0.2831
  188DOPC   O1223129   1.190   0.774   2.467 -0.5989  0.0830 -0.1382
  188DOPC   O1123130   1.246   0.906   2.670  0.1343  0.0881  0.7678
  188DOPC    C123131   1.332   0.809   2.725 -0.6100  0.2665 -0.8016
  188DOPC    HA23132   1.392   0.744   2.657  0.3719  1.9953 -1.6753
  188DOPC    HB23133   1.270   0.748   2.793  0.5079  0.4958  0.4436
  188DOPC    C223134   1.432   0.882   2.822  0.0784 -0.0707  0.9461
  188DOPC    HS23135   1.474   0.802   2.887  2.4492 -1.8087 -2.4372
  188DOPC   O2123136   1.360   0.978   2.896  0.2070 -0.3528 -0.3569
  188DOPC   C2123137   1.396   0.994   3.025  0.4200 -0.0288 -0.3827
  188DOPC   O2223138   1.498   0.946   3.074  0.0726  0.3850 -0.4840
  188DOPC   C2223139   1.299   1.098   3.087 -0.2322  0.1196  0.7361
  188DOPC   H2R23140   1.196   1.059   3.101  0.2433 -2.4548 -1.9876
  188DOPC   H2S23141   1.300   1.185   3.017 -1.0211 -2.8273 -3.2803
  188DOPC    C323142   1.558   0.943   2.750  0.6849  0.0147 -0.5427
  188DOPC    HX23143   1.540   1.039   2.696  0.1127 -0.4247 -1.1487
  188DOPC    HY23144   1.593   0.875   2.669  1.7709 -0.1558  0.0473
  188DOPC   O3123145   1.659   0.967   2.847  0.2614 -0.5606  0.0042
  188DOPC   C3123146   1.731   0.852   2.880  0.2348  0.2868 -0.5003
  188DOPC   O3223147   1.741   0.752   2.814  0.5839  0.5190 -0.3412
  188DOPC   C3223148   1.798   0.887   3.011 -0.7789  0.1399  0.4535
  188DOPC   H2X23149   1.847   0.985   2.996 -0.3151  0.0316  1.1761
  188DOPC   H2Y23150   1.723   0.905   3.091 -0.2314  1.0922  0.7650
  188DOPC   C2323151   1.350   1.156   3.220 -0.0899  0.2361  0.4189
  188DOPC   H3R23152   1.298   1.252   3.239 -0.6447  0.8664 -3.5554
  188DOPC   H3S23153   1.455   1.191   3.217 -0.0063  0.3211  2.4693
  188DOPC   C2423154   1.322   1.068   3.344 -0.1004 -0.2923  0.4172
  188DOPC   H4R23155   1.402   0.997   3.371  0.5732  1.0438  2.1537
  188DOPC   H4S23156   1.226   1.014   3.326  0.2064 -0.3915 -0.9763
  188DOPC   C2523157   1.295   1.161   3.463  0.4308  0.1457 -0.3929
  188DOPC   H5R23158   1.216   1.232   3.429 -2.1507 -2.7216 -0.8672
  188DOPC   H5S23159   1.389   1.218   3.479 -0.0724  1.5865 -2.2789
  188DOPC   C2623160   1.246   1.093   3.592  0.0977 -0.2754  0.0140
  188DOPC   H6R23161   1.325   1.022   3.623  1.2571  0.7615 -0.4754
  188DOPC   H6S23162   1.157   1.028   3.588 -0.9722  0.9843  1.7233
  188DOPC   C2723163   1.222   1.190   3.717  0.2360 -0.2639  0.6856
  188DOPC   H7R23164   1.126   1.245   3.706  0.5113  0.3873  1.4896
  188DOPC   H7S23165   1.306   1.262   3.720 -0.6234  1.0244 -2.3685
  188DOPC   C2823166   1.218   1.107   3.848  0.0892 -0.2290 -0.4275
  188DOPC   H8R23167   1.316   1.055   3.848 -0.3232 -1.0073 -0.5635
  188DOPC   H8S23168   1.125   1.048   3.851 -1.5261  2.1892  0.7946
  188DOPC   C2923169   1.205   1.196   3.969  0.5613 -0.3694  0.4855
  188DOPC   H9R23170   1.277   1.278   3.983 -0.2019  0.2852  0.6272
  188DOPC  C21023171   1.116   1.187   4.067  0.1502 -0.2780 -0.0119
  188DOPC  H10R23172   1.114   1.262   4.148  2.1690  0.6593 -0.7781
  188DOPC  C21123173   1.005   1.091   4.091 -0.3232 -0.5483 -0.0245
  188DOPC  H11R23174   0.950   1.078   3.996  0.3621  1.1923 -0.6900
  188DOPC  H11S23175   0.927   1.132   4.159  0.7912  1.1946  0.2752
  188DOPC  C21223176   1.044   0.954   4.156  0.2779  0.1183 -0.1487
  188DOPC  H12R23177   1.134   0.915   4.102 -0.1962  0.9204 -1.5711
  188DOPC  H12S23178   0.952   0.892   4.163 -0.9731  2.1068  2.6167
  188DOPC  C21323179   1.089   0.961   4.305  0.0031 -0.2191  0.9959
  188DOPC  H13R23180   1.010   1.013   4.362  0.0798  0.7365  0.2530
  188DOPC  H13S23181   1.183   1.018   4.314  0.4749 -0.7882 -0.1473
  188DOPC  C21423182   1.110   0.827   4.371  0.4108 -0.7346 -0.3861
  188DOPC  H14R23183   1.173   0.765   4.302 -0.2911  0.6448 -2.3562
  188DOPC  H14S23184   1.013   0.775   4.386  0.8808 -1.2442  1.0525
  188DOPC  C21523185   1.171   0.838   4.509 -0.0550 -0.7821  0.1307
  188DOPC  H15R23186   1.108   0.894   4.581  1.2709  1.6791 -0.4713
  188DOPC  H15S23187   1.261   0.903   4.501  1.5066 -2.8799 -0.1901
  188DOPC  C21623188   1.214   0.706   4.571 -0.1084 -0.1526  0.2298
  188DOPC  H16R23189   1.295   0.652   4.518  2.3474  1.3366  2.2191
  188DOPC  H16S23190   1.122   0.644   4.577 -0.2322  0.0625  0.5656
  188DOPC  C21723191   1.285   0.716   4.710  0.7189 -0.8368  0.1209
  188DOPC  H17R23192   1.216   0.761   4.785  1.6134 -0.1911  0.5684
  188DOPC  H17S23193   1.377   0.778   4.705  0.4463 -0.3918  0.5946
  188DOPC  C21823194   1.339   0.583   4.772  0.4134 -0.9094  0.2648
  188DOPC  H18R23195   1.249   0.523   4.800 -2.8269  2.3242 -2.2594
  188DOPC  H18S23196   1.385   0.598   4.872 -0.3492 -2.0505  0.8190
  188DOPC  H18T23197   1.402   0.525   4.700 -1.2886 -0.2961 -1.8447
  188DOPC   C3323198   1.910   0.782   3.047 -0.5021  0.3420 -1.0394
  188DOPC   H3X23199   1.993   0.801   2.976  2.1545 -2.9410  0.8845
  188DOPC   H3Y23200   1.876   0.678   3.032  1.9455 -0.8109  0.8089
  188DOPC   C3423201   1.966   0.810   3.190  0.0175 -0.3509 -0.4342
  188DOPC   H4X23202   1.885   0.837   3.261  0.4561  0.5581 -0.2650
  188DOPC   H4Y23203   2.026   0.903   3.188 -0.7406  0.1434 -1.7916
  188DOPC   C3523204   2.053   0.696   3.233  0.2356  0.2130  0.0085
  188DOPC   H5X23205   2.131   0.685   3.155 -0.6211  0.9875 -0.9890
  188DOPC   H5Y23206   1.996   0.601   3.245  2.9496 -1.6234 -0.6453
  188DOPC   C3623207   2.120   0.727   3.367 -0.0506 -0.3733  0.0281
  188DOPC   H6X23208   2.167   0.633   3.402  1.5749 -0.4560 -2.1938
  188DOPC   H6Y23209   2.202   0.799   3.343  0.7098 -1.1130  0.3893
  188DOPC   C3723210   2.020   0.787   3.469  0.2513  0.0751  0.6140
  188DOPC   H7X23211   1.986   0.890   3.446 -2.3917 -0.5262  1.5667
  188DOPC   H7Y23212   1.933   0.719   3.470  0.1060  0.1825 -1.3975
  188DOPC   C3823213   2.069   0.802   3.610  0.5834 -0.3136  0.5459
  188DOPC   H8X23214   1.993   0.875   3.645  0.0560 -1.0170  0.8784
  188DOPC   H8Y23215   2.158   0.869   3.611  1.0018 -0.8766  1.2838
  188DOPC   C3923216   2.074   0.672   3.683  0.2910  0.2984 -0.0073
  188DOPC   H9X23217   2.126   0.599   3.619 -1.7172 -0.7629 -0.5296
  188DOPC  C31023218   2.023   0.635   3.798 -0.4920 -0.5241 -0.3573
  188DOPC  H10X23219   2.045   0.536   3.839 -0.3504 -1.2274 -2.0768
  188DOPC  C31123220   1.951   0.731   3.893 -0.7109  0.8235 -0.2389
  188DOPC  H11X23221   1.859   0.682   3.931 -1.3432  1.3984 -0.9899
  188DOPC  H11Y23222   1.905   0.819   3.842 -2.3901 -0.7374 -1.5921
  188DOPC  C31223223   2.026   0.762   4.022 -0.5057  0.0492  0.0321
  188DOPC  H12X23224   1.962   0.816   4.096  0.5350  0.0959  0.9185
  188DOPC  H12Y23225   2.117   0.823   4.002 -0.1685 -0.5072 -0.1535
  188DOPC  C31323226   2.084   0.637   4.086  0.3404 -0.2346 -0.0897
  188DOPC  H13X23227   1.992   0.576   4.098  1.8874 -2.5596  0.6234
  188DOPC  H13Y23228   2.160   0.591   4.019  1.0963  0.1800  0.4709
  188DOPC  C31423229   2.153   0.665   4.220  0.2665 -0.5883 -0.1707
  188DOPC  H14X23230   2.262   0.677   4.199  0.0131  0.5720 -0.9278
  188DOPC  H14Y23231   2.122   0.768   4.251  0.2321  0.5078 -3.4340
  188DOPC  C31523232   2.126   0.564   4.325  0.3165  0.5657 -0.3719
  188DOPC  H15X23233   2.165   0.463   4.297 -2.3495 -0.6777  0.0974
  188DOPC  H15Y23234   2.019   0.550   4.352  0.6226 -1.8720 -0.1435
  188DOPC  C31623235   2.195   0.595   4.459 -0.1937 -0.4050 -0.0147
  188DOPC  H16X23236   2.305   0.603   4.442 -0.3320  0.9269 -0.3575
  188DOPC  H16Y23237   2.163   0.697   4.488  0.0215  0.0768 -1.4044
  188DOPC  C31723238   2.167   0.486   4.565  1.1315  0.2681  0.4527
  188DOPC  H17X23239   2.060   0.455   4.559  1.4362 -0.6683 -0.5372
  188DOPC  H17Y23240   2.226   0.399   4.530 -1.3053 -1.9659  1.5590
  188DOPC  C31823241   2.211   0.535   4.703 -0.2212 -0.0016 -0.4987
  188DOPC  H18X23242   2.199   0.458   4.782  0.0651 -0.3714 -0.8129
  188DOPC  H18Y23243   2.315   0.572   4.708  0.2728 -1.3963  0.0670
  188DOPC  H18Z23244   2.145   0.616   4.739 -0.6492 -0.8229  0.6480
  189DOPC     N23245   2.589   6.647   2.697  0.3118 -0.2120  0.7650
  189DOPC   C1223246   2.600   6.565   2.818  0.3165  0.1110 -0.2173
  189DOPC  H12A23247   2.707   6.550   2.826  0.4390  0.0743 -1.6166
  189DOPC  H12B23248   2.557   6.468   2.799 -0.5429  0.4158  0.1227
  189DOPC   C1323249   2.658   6.575   2.582 -0.4974 -0.3441 -0.0543
  189DOPC  H13A23250   2.646   6.640   2.497 -0.7593 -1.0706 -0.5839
  189DOPC  H13B23251   2.764   6.560   2.599 -0.2320 -3.1697 -3.2688
  189DOPC  H13C23252   2.628   6.475   2.553 -1.7570  0.1165 -0.3703
  189DOPC   C1423253   2.659   6.784   2.723  0.0616 -0.1793  0.3128
  189DOPC  H14A23254   2.650   6.849   2.637  0.8223 -1.0513 -0.4489
  189DOPC  H14B23255   2.610   6.833   2.805  0.7388  1.1371 -0.0445
  189DOPC  H14C23256   2.759   6.766   2.760  0.2683  0.8408  0.2678
  189DOPC   C1523257   2.446   6.679   2.656 -0.4280 -0.7331  0.9729
  189DOPC  H15A23258   2.446   6.761   2.585 -0.0186 -1.9316 -0.4465
  189DOPC  H15B23259   2.383   6.701   2.742  0.3684  0.7957  1.2038
  189DOPC  H15C23260   2.400   6.592   2.612  0.4812 -0.4190 -0.6697
  189DOPC   C1123261   2.545   6.625   2.943  0.0455 -0.3158 -0.0830
  189DOPC  H11A23262   2.584   6.558   3.022  3.9727  0.5784 -1.0267
  189DOPC  H11B23263   2.588   6.724   2.970 -0.7430  0.4933 -1.6552
  189DOPC     P23264   2.300   6.515   2.949 -0.1276  0.0245 -0.1530
  189DOPC   O1323265   2.278   6.494   3.093 -0.5800 -0.4527  0.8160
  189DOPC   O1423266   2.344   6.398   2.873  0.4874 -0.2951  0.0124
  189DOPC   O1223267   2.404   6.630   2.935 -0.1408 -0.1157 -0.0286
  189DOPC   O1123268   2.169   6.578   2.893  0.3263  0.2341  0.0025
  189DOPC    C123269   2.150   6.709   2.846  0.4686 -0.1431  0.5142
  189DOPC    HA23270   2.048   6.709   2.802  1.0711 -3.1614 -1.1682
  189DOPC    HB23271   2.205   6.731   2.752 -0.9607 -2.4601 -0.9666
  189DOPC    C223272   2.157   6.820   2.953 -0.3742 -0.6391  0.7897
  189DOPC    HS23273   2.266   6.838   2.965 -0.4965  0.7849  0.0151
  189DOPC   O2123274   2.092   6.776   3.072  0.3077  0.2787 -0.1938
  189DOPC   C2123275   2.141   6.820   3.187  0.0657 -0.2468 -0.1489
  189DOPC   O2223276   2.233   6.901   3.196 -0.2305 -0.0273  0.1619
  189DOPC   C2223277   2.072   6.736   3.298 -0.6376  0.8671 -0.5728
  189DOPC   H2R23278   2.147   6.656   3.312 -0.0671  0.9269 -2.9190
  189DOPC   H2S23279   1.976   6.697   3.258 -1.1847  1.3744  0.1839
  189DOPC    C323280   2.097   6.953   2.891  0.1105 -0.3128 -0.0171
  189DOPC    HX23281   2.006   6.935   2.829 -0.4186  1.1603  0.2934
  189DOPC    HY23282   2.165   6.990   2.811  0.3849 -1.1844 -0.1889
  189DOPC   O3123283   2.069   7.054   2.990 -0.0600  0.0287 -0.0020
  189DOPC   C3123284   2.155   7.151   3.028  0.1866  0.6770 -0.0896
  189DOPC   O3223285   2.271   7.167   2.988  0.0843  0.3289  0.2506
  189DOPC   C3223286   2.094   7.241   3.129 -0.5393 -0.3429  0.4258
  189DOPC   H2X23287   2.156   7.230   3.221  0.8735  0.6588 -0.3667
  189DOPC   H2Y23288   2.105   7.347   3.097  0.2464 -0.0307  1.6780
  189DOPC   C2323289   2.034   6.804   3.432 -0.1970 -0.0269 -0.5284
  189DOPC   H3R23290   2.115   6.853   3.491 -1.6600 -0.8781  2.3820
  189DOPC   H3S23291   2.003   6.731   3.509 -0.3509  1.0740  0.4846
  189DOPC   C2423292   1.916   6.904   3.427 -0.0163  0.1482  0.0753
  189DOPC   H4R23293   1.836   6.846   3.377 -0.9374 -1.0581  2.7923
  189DOPC   H4S23294   1.934   6.983   3.351 -2.4190  0.3364 -0.3863
  189DOPC   C2523295   1.873   6.970   3.558 -0.1802  0.3295  0.2437
  189DOPC   H5R23296   1.953   7.042   3.580  0.5975 -0.0545 -1.1935
  189DOPC   H5S23297   1.868   6.896   3.642  1.2250  2.2050  2.0554
  189DOPC   C2623298   1.736   7.039   3.538  0.1549 -0.4163 -0.1633
  189DOPC   H6R23299   1.658   6.969   3.502 -0.3376  0.1556 -0.2316
  189DOPC   H6S23300   1.742   7.126   3.469  1.2712  2.0969  2.8687
  189DOPC   C2723301   1.684   7.085   3.675  0.2470 -0.2233  0.7554
  189DOPC   H7R23302   1.604   7.159   3.655  0.7791  0.0123 -0.6216
  189DOPC   H7S23303   1.768   7.136   3.728 -0.1936  1.6320 -0.2427
  189DOPC   C2823304   1.620   6.959   3.752  0.9941 -0.7764 -0.4758
  189DOPC   H8R23305   1.701   6.889   3.779  0.4747 -0.1372  3.2706
  189DOPC   H8S23306   1.566   6.897   3.677 -0.0031 -0.2232 -0.2394
  189DOPC   C2923307   1.529   6.990   3.866 -0.5785 -0.8990  0.0213
  189DOPC   H9R23308   1.435   7.037   3.834  0.5193  1.2478 -0.2022
  189DOPC  C21023309   1.565   6.996   3.992  0.0839 -0.1740 -0.2452
  189DOPC  H10R23310   1.495   7.032   4.068 -0.7519 -0.8354 -0.6783
  189DOPC  C21123311   1.705   6.973   4.036  0.0218 -0.4050 -0.1716
  189DOPC  H11R23312   1.770   6.918   3.965  0.4293 -1.0498  0.6803
  189DOPC  H11S23313   1.695   6.903   4.121 -0.7356  0.2169  0.2722
  189DOPC  C21223314   1.767   7.103   4.084  0.2708 -0.2711 -0.3786
  189DOPC  H12R23315   1.751   7.187   4.013 -0.5723 -1.7085 -1.9674
  189DOPC  H12S23316   1.877   7.104   4.094  0.1095  2.2391  2.4353
  189DOPC  C21323317   1.726   7.144   4.226 -0.5311  0.0174  0.3570
  189DOPC  H13R23318   1.616   7.148   4.242 -0.4721 -0.9675  1.0764
  189DOPC  H13S23319   1.769   7.247   4.230  1.0566 -0.6055 -0.0266
  189DOPC  C21423320   1.782   7.052   4.337 -0.8198 -0.1322 -0.9573
  189DOPC  H14R23321   1.887   7.022   4.314 -0.6960 -0.2016 -0.3196
  189DOPC  H14S23322   1.726   6.956   4.341  1.5883 -1.5935  0.5098
  189DOPC  C21523323   1.779   7.125   4.473  0.7876  0.5227 -0.8268
  189DOPC  H15R23324   1.831   7.221   4.452  2.4350 -0.1968 -0.1917
  189DOPC  H15S23325   1.828   7.068   4.555  0.4232  0.8748 -0.3654
  189DOPC  C21623326   1.635   7.158   4.522  0.5156  0.2802  0.5011
  189DOPC  H16R23327   1.581   7.063   4.508  0.6214 -0.2534  3.1824
  189DOPC  H16S23328   1.585   7.237   4.462 -0.1993 -0.4167  0.1609
  189DOPC  C21723329   1.622   7.196   4.669  0.5543 -0.2937  0.7814
  189DOPC  H17R23330   1.645   7.304   4.683  1.9825 -0.5046  0.1702
  189DOPC  H17S23331   1.687   7.137   4.736  1.5712  2.8170  2.7461
  189DOPC  C21823332   1.476   7.168   4.718  0.2424 -0.1351  0.0368
  189DOPC  H18R23333   1.450   7.224   4.811 -1.3031  0.8838 -0.9754
  189DOPC  H18S23334   1.458   7.061   4.743 -1.9673  0.5983  1.9842
  189DOPC  H18T23335   1.412   7.198   4.632  1.4841 -1.0901 -1.2573
  189DOPC   C3323336   1.943   7.208   3.164 -0.2042  0.4936  0.1552
  189DOPC   H3X23337   1.948   7.107   3.209  0.5654 -0.0161 -1.0166
  189DOPC   H3Y23338   1.881   7.215   3.072  1.0217  1.0001 -0.6735
  189DOPC   C3423339   1.868   7.311   3.249 -0.3484 -0.2705  0.8155
  189DOPC   H4X23340   1.767   7.269   3.267 -1.5969  1.9633 -0.5276
  189DOPC   H4Y23341   1.843   7.403   3.193  1.1351 -0.1595  0.2913
  189DOPC   C3523342   1.943   7.347   3.377  0.9709 -0.1728  0.1263
  189DOPC   H5X23343   2.040   7.393   3.352  0.3926  0.6017 -0.7698
  189DOPC   H5Y23344   1.963   7.256   3.439  4.9843  1.2353  1.1825
  189DOPC   C3623345   1.856   7.436   3.465  0.1945  0.6082 -0.2017
  189DOPC   H6X23346   1.758   7.389   3.489  0.6832  0.0686  0.8346
  189DOPC   H6Y23347   1.900   7.444   3.567  1.8060  1.1983 -0.9157
  189DOPC   C3723348   1.822   7.576   3.407 -0.3137  0.5332  0.7808
  189DOPC   H7X23349   1.789   7.574   3.301  0.4452 -0.0269  0.5373
  189DOPC   H7Y23350   1.734   7.608   3.466 -1.7664 -3.5527  1.1439
  189DOPC   C3823351   1.943   7.672   3.425  0.2107 -0.6781 -0.2503
  189DOPC   H8X23352   2.032   7.618   3.386 -1.9190 -3.3430 -1.7781
  189DOPC   H8Y23353   1.967   7.684   3.533 -0.0367  0.2003 -0.2838
  189DOPC   C3923354   1.919   7.807   3.357  0.5471  0.7287 -0.2313
  189DOPC   H9X23355   1.930   7.800   3.247 -1.5892  0.3948 -0.4739
  189DOPC  C31023356   1.873   7.918   3.412 -0.0457 -0.4307  0.6062
  189DOPC  H10X23357   1.847   7.999   3.342  1.1692 -1.3962 -1.0204
  189DOPC  C31123358   1.844   7.943   3.554  0.4196 -0.5523  0.4029
  189DOPC  H11X23359   1.850   8.049   3.585 -2.3514 -0.4736  0.9953
  189DOPC  H11Y23360   1.919   7.884   3.612  0.4351 -1.9659 -0.9764
  189DOPC  C31223361   1.701   7.905   3.602 -0.2349 -0.1141 -0.9018
  189DOPC  H12X23362   1.693   7.801   3.564  0.2430  0.2502 -2.0467
  189DOPC  H12Y23363   1.628   7.952   3.532 -1.2797  0.9736  0.8324
  189DOPC  C31323364   1.679   7.925   3.754  0.2489  0.1158  0.5672
  189DOPC  H13X23365   1.746   8.010   3.782  1.3882 -0.9906  1.3037
  189DOPC  H13Y23366   1.575   7.955   3.776  0.4268  2.5922 -1.4779
  189DOPC  C31423367   1.722   7.798   3.823  0.3440 -0.1491 -0.1327
  189DOPC  H14X23368   1.660   7.710   3.792  1.8920 -1.4685  0.4043
  189DOPC  H14Y23369   1.822   7.770   3.784  1.2549 -0.8148  2.5330
  189DOPC  C31523370   1.725   7.805   3.978  0.1095 -0.2838 -0.0659
  189DOPC  H15X23371   1.755   7.712   4.031  1.2006  0.9541  1.5939
  189DOPC  H15Y23372   1.618   7.830   3.995  0.2142 -0.4496  0.9282
  189DOPC  C31623373   1.818   7.918   4.032 -0.5726 -0.0568 -0.2721
  189DOPC  H16X23374   1.915   7.904   3.981 -0.9455  0.2985 -1.1035
  189DOPC  H16Y23375   1.783   8.016   3.993 -0.7366  0.5737  1.3905
  189DOPC  C31723376   1.816   7.934   4.186 -0.3219 -0.2235 -0.2366
  189DOPC  H17X23377   1.869   7.853   4.240 -0.2545  0.2411  0.4114
  189DOPC  H17Y23378   1.848   8.035   4.220 -2.4259 -0.4063  2.6962
  189DOPC  C31823379   1.674   7.938   4.249  0.4972 -0.2082  1.0318
  189DOPC  H18X23380   1.611   7.852   4.219  0.3016 -0.2531  1.5643
  189DOPC  H18Y23381   1.686   7.943   4.359  0.5837 -0.1109  1.0183
  189DOPC  H18Z23382   1.623   8.033   4.219  0.3775 -0.7721 -0.6664
  190DOPC     N23383   1.157   6.766   2.850  0.0635 -0.5345  0.1957
  190DOPC   C1223384   1.150   6.717   2.715  0.2137 -0.5412  0.0098
  190DOPC  H12A23385   1.098   6.792   2.657 -0.4217  0.6166  1.9779
  190DOPC  H12B23386   1.086   6.630   2.723 -0.5008 -0.0159  0.1226
  190DOPC   C1323387   1.257   6.874   2.858 -0.1613 -0.1236  0.1301
  190DOPC  H13A23388   1.346   6.840   2.807  0.7964  0.4992  1.3134
  190DOPC  H13B23389   1.228   6.960   2.801  2.4168 -2.0037 -4.5837
  190DOPC  H13C23390   1.283   6.903   2.959  1.7213  0.0865 -0.3859
  190DOPC   C1423391   1.185   6.656   2.945  0.2178  0.3690 -0.2827
  190DOPC  H14A23392   1.288   6.625   2.944 -0.4870 -2.3494 -2.9098
  190DOPC  H14B23393   1.156   6.688   3.045 -1.2736 -2.5424  0.3128
  190DOPC  H14C23394   1.128   6.566   2.931  1.4871 -0.0843 -3.2989
  190DOPC   C1523395   1.021   6.819   2.879 -0.0307 -0.2596  0.0047
  190DOPC  H15A23396   0.981   6.881   2.800  0.9425  0.5328  0.1106
  190DOPC  H15B23397   1.026   6.872   2.974 -1.1389  1.2797 -0.7519
  190DOPC  H15C23398   0.941   6.748   2.889 -0.8113  0.4390 -1.1128
  190DOPC   C1123399   1.281   6.678   2.648  0.0688 -0.5373 -0.0334
  190DOPC  H11A23400   1.249   6.659   2.544 -2.5848 -0.9381  0.7845
  190DOPC  H11B23401   1.361   6.754   2.664  0.1487 -1.0158  2.2626
  190DOPC     P23402   1.474   6.506   2.694 -0.2992 -0.1241  0.1352
  190DOPC   O1323403   1.519   6.537   2.557  0.9883 -0.4530  0.2896
  190DOPC   O1423404   1.481   6.366   2.737 -0.1363  0.5765  0.0272
  190DOPC   O1223405   1.329   6.556   2.711  0.6859  0.1052  0.0156
  190DOPC   O1123406   1.565   6.599   2.790  0.3083 -0.1298 -0.0863
  190DOPC    C123407   1.533   6.599   2.933  0.7037 -0.5358  0.2986
  190DOPC    HA23408   1.455   6.532   2.976 -1.4601  0.6171 -1.6112
  190DOPC    HB23409   1.516   6.706   2.956 -0.8424 -0.3902 -1.2480
  190DOPC    C223410   1.665   6.553   3.008 -0.0678 -0.0346  0.5004
  190DOPC    HS23411   1.703   6.457   2.969 -1.5962 -0.9652  1.1890
  190DOPC   O2123412   1.645   6.537   3.150 -0.3440  0.1752  0.4376
  190DOPC   C2123413   1.733   6.481   3.236 -0.2396  0.5273  0.2086
  190DOPC   O2223414   1.849   6.445   3.210  0.1601  0.5250  0.5899
  190DOPC   C2223415   1.679   6.492   3.375  0.0315  0.1948 -0.1956
  190DOPC   H2R23416   1.656   6.390   3.413  1.2021  0.9451  2.7457
  190DOPC   H2S23417   1.579   6.539   3.382  1.0369  2.9424 -2.4495
  190DOPC    C323418   1.781   6.664   2.988  0.3499 -0.0620  0.4656
  190DOPC    HX23419   1.795   6.683   2.879 -2.3768  1.1857  0.2465
  190DOPC    HY23420   1.879   6.637   3.031  0.6265  0.5425  0.2279
  190DOPC   O3123421   1.753   6.796   3.045  0.1625  0.3060 -0.7240
  190DOPC   C3123422   1.741   6.908   2.967 -0.3151 -0.1351 -0.9870
  190DOPC   O3223423   1.757   6.912   2.845 -0.0603  0.0368 -0.1405
  190DOPC   C3223424   1.693   7.015   3.059  0.7683  0.4879 -0.6443
  190DOPC   H2X23425   1.739   7.021   3.160  0.9809  1.0363 -0.7742
  190DOPC   H2Y23426   1.710   7.116   3.016  0.5830  1.5535  1.6119
  190DOPC   C2323427   1.772   6.552   3.483 -0.2973  0.2131  0.2337
  190DOPC   H3R23428   1.776   6.662   3.477  4.8853  0.2140 -0.3317
  190DOPC   H3S23429   1.875   6.519   3.456 -0.6608 -0.9329  0.1753
  190DOPC   C2423430   1.744   6.500   3.624  0.0768 -0.1213 -0.4365
  190DOPC   H4R23431   1.731   6.390   3.632 -0.8749 -0.0764 -1.2009
  190DOPC   H4S23432   1.645   6.544   3.645  0.0702  0.2740 -1.2702
  190DOPC   C2523433   1.837   6.545   3.745 -0.2911 -0.0112 -0.4707
  190DOPC   H5R23434   1.843   6.655   3.748  0.3075 -0.0477  1.0106
  190DOPC   H5S23435   1.940   6.508   3.728 -1.3170 -3.8894  0.5582
  190DOPC   C2623436   1.797   6.479   3.875  0.0191 -0.3916 -0.0760
  190DOPC   H6R23437   1.889   6.452   3.932  0.6086 -0.4519 -1.0326
  190DOPC   H6S23438   1.755   6.379   3.853 -1.3248  0.4546 -1.5007
  190DOPC   C2723439   1.695   6.564   3.955 -0.3035  0.0901 -0.0796
  190DOPC   H7R23440   1.607   6.577   3.889  0.5822 -2.4453 -1.9083
  190DOPC   H7S23441   1.735   6.663   3.985 -2.1747  1.7022 -2.5084
  190DOPC   C2823442   1.648   6.486   4.078 -0.2052 -0.2437  0.2867
  190DOPC   H8R23443   1.727   6.503   4.154  1.7583 -0.9232 -1.5081
  190DOPC   H8S23444   1.651   6.377   4.054 -0.8905 -0.1251 -0.3683
  190DOPC   C2923445   1.513   6.518   4.138  0.7453 -0.1424 -0.7897
  190DOPC   H9R23446   1.426   6.474   4.086 -0.4041  0.8191  0.2725
  190DOPC  C21023447   1.488   6.592   4.249  0.5550  0.1118  0.5628
  190DOPC  H10R23448   1.379   6.604   4.261  0.5990 -0.8692  2.4036
  190DOPC  C21123449   1.584   6.671   4.340 -0.0165 -0.3451  0.2178
  190DOPC  H11R23450   1.553   6.773   4.371  0.3962  0.0095 -0.5052
  190DOPC  H11S23451   1.682   6.688   4.291 -0.4543  0.8653 -0.2737
  190DOPC  C21223452   1.600   6.592   4.470  0.2855 -0.4232  0.1294
  190DOPC  H12R23453   1.686   6.641   4.520  0.0318  1.8798 -1.5702
  190DOPC  H12S23454   1.633   6.486   4.457  1.0164 -0.1999  0.1485
  190DOPC  C21323455   1.485   6.599   4.572 -0.3843 -0.4831 -0.0202
  190DOPC  H13R23456   1.480   6.498   4.619 -0.8546 -0.4290  0.0423
  190DOPC  H13S23457   1.397   6.622   4.509  0.2924 -2.4085 -1.8000
  190DOPC  C21423458   1.502   6.702   4.694 -0.0227 -1.1191  0.2139
  190DOPC  H14R23459   1.506   6.799   4.639  2.3976 -1.0863  0.3307
  190DOPC  H14S23460   1.595   6.673   4.748 -0.4075  0.2172  1.6514
  190DOPC  C21523461   1.390   6.707   4.795  0.1770  0.2753 -0.6296
  190DOPC  H15R23462   1.310   6.758   4.737 -1.0556  1.0112  1.6185
  190DOPC  H15S23463   1.410   6.781   4.875 -0.5146 -0.4735  0.2495
  190DOPC  C21623464   1.347   6.575   4.850  0.4636  0.5684 -0.4407
  190DOPC  H16R23465   1.433   6.514   4.886  0.9237  1.1786 -0.5005
  190DOPC  H16S23466   1.300   6.508   4.774 -0.3056 -0.2904  0.7489
  190DOPC  C21723467   1.229   6.584   4.937 -0.0423  0.4247 -0.0638
  190DOPC  H17R23468   1.148   6.628   4.875 -0.6440  0.8578  1.0030
  190DOPC  H17S23469   1.258   6.669   5.003  1.6841  2.0295 -2.6959
  190DOPC  C21823470   1.187   6.450   5.005  0.0147 -0.6589 -0.4287
  190DOPC  H18R23471   1.095   6.480   5.059 -0.3838  0.7815 -1.8315
  190DOPC  H18S23472   1.263   6.409   5.075 -0.8040  0.9628  1.5346
  190DOPC  H18T23473   1.173   6.365   4.935 -2.6009 -2.2988  1.8571
  190DOPC   C3323474   1.537   6.999   3.074  0.2446  0.2271  0.3895
  190DOPC   H3X23475   1.490   6.956   2.983  1.2372 -0.7271  0.2917
  190DOPC   H3Y23476   1.495   7.100   3.088 -1.1220 -0.0093 -1.6306
  190DOPC   C3423477   1.506   6.912   3.198  0.0968  0.0449  0.2203
  190DOPC   H4X23478   1.564   6.958   3.281 -2.1450  0.2181  1.7583
  190DOPC   H4Y23479   1.546   6.813   3.167  0.5471  0.7089 -1.4392
  190DOPC   C3523480   1.356   6.908   3.220 -0.2613  0.3596 -0.3329
  190DOPC   H5X23481   1.298   6.848   3.147 -1.5331  0.7990  0.2957
  190DOPC   H5Y23482   1.325   7.014   3.234  2.3037  1.0807  0.4433
  190DOPC   C3623483   1.335   6.855   3.364 -0.8239 -0.1385  1.0240
  190DOPC   H6X23484   1.396   6.764   3.385  0.0660 -0.2358 -1.5646
  190DOPC   H6Y23485   1.369   6.933   3.435 -1.7763  0.4009  0.9021
  190DOPC   C3723486   1.180   6.826   3.386 -0.3481  0.2142  0.0861
  190DOPC   H7X23487   1.152   6.732   3.334  0.2376 -0.4550  0.9502
  190DOPC   H7Y23488   1.179   6.794   3.493  2.1631 -1.6400 -0.3527
  190DOPC   C3823489   1.082   6.935   3.339  0.1144 -0.2618 -0.2018
  190DOPC   H8X23490   0.981   6.897   3.367  0.8615 -1.7730  0.5061
  190DOPC   H8Y23491   1.089   6.949   3.229  0.3040  0.9079 -0.0544
  190DOPC   C3923492   1.113   7.062   3.420  0.6743 -0.5386  0.9097
  190DOPC   H9X23493   1.207   7.108   3.386 -0.2119  1.0130  0.4324
  190DOPC  C31023494   1.040   7.120   3.527  0.5069  0.1747  0.0080
  190DOPC  H10X23495   1.083   7.211   3.571  1.2537  0.2634 -0.8785
  190DOPC  C31123496   0.915   7.070   3.591  0.3416 -0.0255  0.4070
  190DOPC  H11X23497   0.855   6.999   3.530  0.3087 -1.9899  2.5736
  190DOPC  H11Y23498   0.860   7.163   3.617  2.5225  0.7577  2.6038
  190DOPC  C31223499   0.944   7.011   3.727  0.0752  0.2350  0.4072
  190DOPC  H12X23500   1.006   7.073   3.795  1.8312  1.3197 -1.9901
  190DOPC  H12Y23501   0.987   6.910   3.706  1.6798  1.2332 -1.4349
  190DOPC  C31323502   0.802   6.994   3.788  0.1013 -0.4525  0.4450
  190DOPC  H13X23503   0.748   7.089   3.770  0.0418 -0.3639  1.0684
  190DOPC  H13Y23504   0.746   6.914   3.736 -0.3747 -0.4019  0.8715
  190DOPC  C31423505   0.809   6.973   3.938  0.5201  0.3852  0.3897
  190DOPC  H14X23506   0.850   6.871   3.954  1.5647  0.7913  0.3795
  190DOPC  H14Y23507   0.878   7.043   3.989  0.2025  1.5158 -0.6725
  190DOPC  C31523508   0.670   6.986   4.014 -0.3164 -0.0863 -0.0514
  190DOPC  H15X23509   0.587   6.932   3.963 -0.1122 -1.1034  0.6578
  190DOPC  H15Y23510   0.641   7.094   4.017 -0.9298 -0.2422 -0.1043
  190DOPC  C31623511   0.672   6.926   4.155 -0.1476  0.0474 -0.1927
  190DOPC  H16X23512   0.570   6.922   4.197  0.2651 -0.4829  0.7874
  190DOPC  H16Y23513   0.695   6.818   4.165 -0.2710  0.1822  1.9991
  190DOPC  C31723514   0.763   7.004   4.249  0.3205  1.0053  0.1241
  190DOPC  H17X23515   0.864   6.967   4.220 -0.1292 -0.2848  0.1338
  190DOPC  H17Y23516   0.764   7.114   4.234 -2.8212  1.0014 -0.8303
  190DOPC  C31823517   0.744   6.981   4.400  0.0212  0.2992  0.4453
  190DOPC  H18X23518   0.646   7.020   4.434  0.2829  1.9500 -0.6091
  190DOPC  H18Y23519   0.754   6.874   4.429  0.9992  0.8441  2.3168
  190DOPC  H18Z23520   0.828   7.021   4.461 -0.5464  0.4542  1.1327
  191DOPC     N23521   4.483   0.491   2.601  1.1969  0.5002  0.5347
  191DOPC   C1223522   4.487   0.431   2.738  0.5222  0.2714  0.6878
  191DOPC  H12A23523   4.588   0.444   2.776  0.7546  1.1785 -0.1762
  191DOPC  H12B23524   4.479   0.324   2.724 -0.0435  0.6107 -2.3739
  191DOPC   C1323525   4.347   0.496   2.541 -0.5288 -0.1840 -0.7790
  191DOPC  H13A23526   4.281   0.571   2.582 -0.3665 -0.8497  0.8120
  191DOPC  H13B23527   4.351   0.508   2.434  1.6194 -1.2911 -0.8778
  191DOPC  H13C23528   4.295   0.403   2.559  0.5565 -0.9739 -1.5514
  191DOPC   C1423529   4.571   0.406   2.513  0.3322  0.8156  0.1208
  191DOPC  H14A23530   4.674   0.430   2.535  0.5099 -0.5909  0.9720
  191DOPC  H14B23531   4.548   0.301   2.526  0.5355  0.3894 -2.3985
  191DOPC  H14C23532   4.550   0.429   2.410  1.7640 -1.3191 -0.7260
  191DOPC   C1523533   4.543   0.627   2.609 -0.3216 -0.0368  0.2828
  191DOPC  H15A23534   4.646   0.621   2.640 -0.0743  3.0896  0.4332
  191DOPC  H15B23535   4.497   0.683   2.689  0.4231 -1.7524  2.0074
  191DOPC  H15C23536   4.528   0.680   2.516  2.1908 -0.0741 -0.2180
  191DOPC   C1123537   4.390   0.482   2.841  0.3115 -0.4387  0.5386
  191DOPC  H11A23538   4.283   0.475   2.809  0.2918  1.4053  0.1185
  191DOPC  H11B23539   4.385   0.424   2.936 -0.9967 -0.3787  0.5372
  191DOPC     P23540   4.529   0.669   2.956 -0.0878 -0.0470 -0.1916
  191DOPC   O1323541   4.593   0.795   2.907 -0.6995  0.1368 -0.3539
  191DOPC   O1423542   4.617   0.557   2.996  0.4948 -0.4511  0.4262
  191DOPC   O1223543   4.411   0.623   2.873  0.3699 -0.0309 -0.5941
  191DOPC   O1123544   4.462   0.705   3.096  0.3838 -0.0545 -0.4478
  191DOPC    C123545   4.317   0.726   3.119 -1.2269  0.1985 -0.2535
  191DOPC    HA23546   4.266   0.627   3.129  0.2702 -0.5281  0.5457
  191DOPC    HB23547   4.268   0.787   3.040 -0.1089 -1.1457 -2.0483
  191DOPC    C223548   4.309   0.810   3.248  0.5773  0.4194 -0.6989
  191DOPC    HS23549   4.378   0.898   3.243 -0.6277  1.3509 -1.6520
  191DOPC   O2123550   4.327   0.728   3.366 -0.1914  0.4545  0.1980
  191DOPC   C2123551   4.440   0.753   3.440  0.1353 -0.2524  0.0727
  191DOPC   O2223552   4.527   0.838   3.424  0.7018  0.2184  0.5170
  191DOPC   C2223553   4.451   0.650   3.553 -0.0406  0.7971 -0.3157
  191DOPC   H2R23554   4.532   0.585   3.514 -1.8554 -0.9310 -1.4184
  191DOPC   H2S23555   4.364   0.580   3.553  0.5301  0.0631 -1.6426
  191DOPC    C323556   4.175   0.875   3.268  0.7231  1.3061 -0.0036
  191DOPC    HX23557   4.097   0.796   3.276 -1.1531  3.2395  2.2345
  191DOPC    HY23558   4.150   0.926   3.173  0.4670  1.1077 -0.0471
  191DOPC   O3123559   4.176   0.969   3.370  0.3843  0.1665  0.3508
  191DOPC   C3123560   4.074   0.991   3.443  0.0981 -0.0862 -0.8939
  191DOPC   O3223561   3.974   0.917   3.450 -0.1032  0.5588  0.1516
  191DOPC   C3223562   4.089   1.122   3.526  0.3677  0.2424 -0.3012
  191DOPC   H2X23563   4.174   1.107   3.596  0.2095 -1.1704 -0.3805
  191DOPC   H2Y23564   4.100   1.205   3.454 -1.8393  1.1910  0.3464
  191DOPC   C2323565   4.462   0.720   3.687 -0.4029 -1.0581 -0.0771
  191DOPC   H3R23566   4.561   0.768   3.703 -1.4829  0.5983  2.2378
  191DOPC   H3S23567   4.476   0.641   3.765  1.8113 -0.1548  0.5232
  191DOPC   C2423568   4.344   0.818   3.720 -1.2121  0.4299  0.3200
  191DOPC   H4R23569   4.251   0.765   3.693  0.1678 -3.1525  1.9209
  191DOPC   H4S23570   4.363   0.905   3.654 -0.7208 -0.2334 -0.4270
  191DOPC   C2523571   4.336   0.866   3.862 -0.1825 -0.0180  0.5517
  191DOPC   H5R23572   4.434   0.909   3.891  0.4907 -1.4564  0.4723
  191DOPC   H5S23573   4.318   0.789   3.940  1.1004  0.1757  1.0704
  191DOPC   C2623574   4.226   0.972   3.877 -0.4363  0.1862 -0.1540
  191DOPC   H6R23575   4.128   0.934   3.839 -1.0409  0.7457  0.8125
  191DOPC   H6S23576   4.254   1.066   3.825  2.0414 -0.9609 -1.0374
  191DOPC   C2723577   4.218   1.017   4.024  1.0125 -0.7126 -0.0124
  191DOPC   H7R23578   4.318   1.050   4.060 -0.1238  0.7309  2.0601
  191DOPC   H7S23579   4.184   0.931   4.084 -1.4654  0.4529  0.3827
  191DOPC   C2823580   4.117   1.128   4.050  0.1015  0.8871 -0.2923
  191DOPC   H8R23581   4.138   1.225   4.000 -0.2422  0.9299 -0.3618
  191DOPC   H8S23582   4.142   1.159   4.153 -0.9293 -1.7017  0.8358
  191DOPC   C2923583   3.966   1.093   4.044  0.1255 -0.3919  0.1992
  191DOPC   H9R23584   3.929   1.097   3.940 -2.6090  0.4434  1.1259
  191DOPC  C21023585   3.882   1.076   4.152  0.6991 -1.2534 -0.8827
  191DOPC  H10R23586   3.778   1.050   4.128 -0.1747 -0.8217  2.0805
  191DOPC  C21123587   3.909   1.075   4.303 -0.3037 -0.4889 -0.5976
  191DOPC  H11R23588   3.826   1.123   4.359 -1.4861 -1.3899 -1.5413
  191DOPC  H11S23589   4.003   1.133   4.319 -0.8291 -0.0246  0.9819
  191DOPC  C21223590   3.950   0.932   4.359 -0.0420  0.3724  0.1289
  191DOPC  H12R23591   4.007   0.954   4.452  0.0913 -0.8632  0.3622
  191DOPC  H12S23592   4.027   0.892   4.288 -1.2443  0.6441 -1.3766
  191DOPC  C21323593   3.835   0.838   4.375  0.1177 -0.1783 -0.0291
  191DOPC  H13R23594   3.876   0.738   4.403  0.3153 -0.6303 -1.8059
  191DOPC  H13S23595   3.773   0.830   4.283  0.3093  1.0257 -0.2722
  191DOPC  C21423596   3.751   0.877   4.501 -0.5222  0.5052  0.4486
  191DOPC  H14R23597   3.691   0.968   4.483  1.6854  1.7733 -1.0675
  191DOPC  H14S23598   3.829   0.900   4.577  1.0428  0.3940 -1.0492
  191DOPC  C21523599   3.662   0.759   4.554  0.2245  0.1622 -0.0006
  191DOPC  H15R23600   3.714   0.662   4.553  0.5470  0.3117  1.2086
  191DOPC  H15S23601   3.582   0.749   4.477 -1.6953  4.3876  1.0729
  191DOPC  C21623602   3.584   0.795   4.682  0.5549  0.0422 -0.1501
  191DOPC  H16R23603   3.502   0.868   4.663  0.2760 -0.3184 -0.3515
  191DOPC  H16S23604   3.657   0.848   4.747  0.1589  0.5487 -0.1110
  191DOPC  C21723605   3.518   0.667   4.744 -0.2025  0.1352  0.5986
  191DOPC  H17R23606   3.594   0.588   4.761 -0.8783 -0.5788  0.3749
  191DOPC  H17S23607   3.448   0.614   4.675 -0.4058 -0.3697  1.1786
  191DOPC  C21823608   3.441   0.692   4.874 -0.6239  0.2681  0.0492
  191DOPC  H18R23609   3.511   0.683   4.959  1.3840 -2.7532 -1.7176
  191DOPC  H18S23610   3.369   0.609   4.888  0.8808 -0.8498  1.5462
  191DOPC  H18T23611   3.392   0.792   4.870  2.1703  1.7232 -1.3073
  191DOPC   C3323612   3.972   1.146   3.620 -0.6150  0.4013  0.2398
  191DOPC   H3X23613   3.950   1.054   3.678 -1.6676  0.3824 -0.1746
  191DOPC   H3Y23614   3.882   1.176   3.562 -0.3946 -0.2286 -0.4524
  191DOPC   C3423615   4.011   1.260   3.721  0.1292 -0.4217 -0.6636
  191DOPC   H4X23616   4.089   1.214   3.786  1.6457  0.2621 -1.9198
  191DOPC   H4Y23617   3.923   1.289   3.781 -0.5614 -0.2157 -1.7541
  191DOPC   C3523618   4.080   1.385   3.670  0.2703 -0.5959  0.7173
  191DOPC   H5X23619   4.009   1.446   3.609  0.6243  1.3580  2.1531
  191DOPC   H5Y23620   4.161   1.357   3.599 -1.5741 -0.7923 -1.4459
  191DOPC   C3623621   4.135   1.481   3.777 -0.0112 -0.2119 -0.4882
  191DOPC   H6X23622   4.057   1.507   3.852  1.4651 -0.2189  1.1366
  191DOPC   H6Y23623   4.215   1.421   3.827  0.5003  0.2030 -0.8029
  191DOPC   C3723624   4.209   1.611   3.745 -0.5491  0.1708  0.1084
  191DOPC   H7X23625   4.147   1.654   3.664 -0.3320  0.9842  0.3645
  191DOPC   H7Y23626   4.210   1.685   3.828  0.6121  1.7737 -1.2740
  191DOPC   C3823627   4.347   1.582   3.676  0.1483  0.2089  0.3544
  191DOPC   H8X23628   4.323   1.537   3.577  0.2124 -0.2120  0.5273
  191DOPC   H8Y23629   4.400   1.503   3.734 -0.2012 -0.1903  0.1364
  191DOPC   C3923630   4.424   1.711   3.648  0.7350  0.0228  0.0411
  191DOPC   H9X23631   4.369   1.773   3.575  0.5139 -0.3737 -0.1358
  191DOPC  C31023632   4.549   1.734   3.693 -0.0120  0.0933  0.5383
  191DOPC  H10X23633   4.594   1.833   3.682  0.9489  0.0120  2.9901
  191DOPC  C31123634   4.637   1.637   3.770  0.3167  0.3008  0.1436
  191DOPC  H11X23635   4.706   1.603   3.690 -1.9768  0.6356 -2.0904
  191DOPC  H11Y23636   4.584   1.557   3.827  0.7283  2.1670  3.3860
  191DOPC  C31223637   4.705   1.713   3.886 -0.5738 -0.2121  0.1638
  191DOPC  H12X23638   4.623   1.741   3.956  0.1336  0.9349  0.5745
  191DOPC  H12Y23639   4.755   1.810   3.865  1.3393 -1.0993  0.4025
  191DOPC  C31323640   4.811   1.633   3.957  0.1133  0.7724  0.0306
  191DOPC  H13X23641   4.765   1.540   3.998  0.0318  0.7575 -0.0914
  191DOPC  H13Y23642   4.887   1.598   3.884 -0.6176  1.0052 -0.8700
  191DOPC  C31423643   4.877   1.718   4.062  0.3856  0.0649  0.0597
  191DOPC  H14X23644   4.979   1.680   4.082  0.5126 -0.1880 -1.0160
  191DOPC  H14Y23645   4.898   1.815   4.014  0.4586  1.3261  2.4640
  191DOPC  C31523646   4.806   1.729   4.200 -0.2118 -0.1716 -0.1829
  191DOPC  H15X23647   4.821   1.634   4.258  1.1127  0.4046  0.4751
  191DOPC  H15Y23648   4.698   1.750   4.183 -0.1522 -0.8061 -1.4649
  191DOPC  C31623649   4.866   1.850   4.279 -0.3997  0.7432 -0.7413
  191DOPC  H16X23650   4.971   1.826   4.304 -1.0387 -0.7142  0.7170
  191DOPC  H16Y23651   4.849   1.943   4.220 -1.9363  0.2147 -1.1770
  191DOPC  C31723652   4.803   1.855   4.418 -0.3002 -0.1355  0.5830
  191DOPC  H17X23653   4.692   1.865   4.416 -0.2794  0.3712 -2.0647
  191DOPC  H17Y23654   4.829   1.755   4.457  0.1773 -0.0172  0.5698
  191DOPC  C31823655   4.875   1.971   4.503  0.3663  0.7143  0.6895
  191DOPC  H18X23656   4.837   1.984   4.606  2.1230  1.0444  1.3347
  191DOPC  H18Y23657   4.985   1.953   4.501  0.2173 -0.1952 -0.4870
  191DOPC  H18Z23658   4.848   2.063   4.447  2.0616 -0.4508 -2.3119
  192DOPC     N23659   6.322   5.944   2.793  0.0182 -0.6648 -0.1317
  192DOPC   C1223660   6.399   5.885   2.903 -0.3195 -0.0547 -0.4926
  192DOPC  H12A23661   6.358   5.789   2.931 -0.2601  0.2763  0.8066
  192DOPC  H12B23662   6.394   5.948   2.991 -1.2141 -0.0867 -0.5132
  192DOPC   C1323663   6.319   5.854   2.677  0.1440  0.3205  1.6865
  192DOPC  H13A23664   6.308   5.753   2.713 -1.2096 -0.9386 -1.8904
  192DOPC  H13B23665   6.240   5.871   2.606  2.0737 -3.0715 -1.6189
  192DOPC  H13C23666   6.412   5.843   2.623 -1.4464 -1.8174 -0.8527
  192DOPC   C1423667   6.366   6.078   2.744 -0.1254  0.0398 -0.2380
  192DOPC  H14A23668   6.458   6.081   2.687  0.5511  0.0011  0.8292
  192DOPC  H14B23669   6.295   6.121   2.675 -0.6230  0.5961  0.6081
  192DOPC  H14C23670   6.375   6.152   2.822 -1.4024  0.0660 -0.0883
  192DOPC   C1523671   6.177   5.962   2.827  0.1063 -0.7004 -0.2186
  192DOPC  H15A23672   6.122   5.996   2.740 -0.5516  0.5823  0.6711
  192DOPC  H15B23673   6.170   6.038   2.903  0.9491 -0.5421 -0.2925
  192DOPC  H15C23674   6.125   5.870   2.849  0.7373 -1.7596 -2.7057
  192DOPC   C1123675   6.551   5.864   2.875  0.7990 -0.3478 -0.1271
  192DOPC  H11A23676   6.590   5.962   2.840 -2.3262  0.7579 -0.7678
  192DOPC  H11B23677   6.604   5.835   2.968  0.1686 -1.1329 -0.0052
  192DOPC     P23678   6.551   5.611   2.837  0.0847  0.0992  0.1401
  192DOPC   O1323679   6.652   5.586   2.940 -0.4129  0.1158  0.2424
  192DOPC   O1423680   6.544   5.509   2.730 -0.4116  0.1116 -0.1527
  192DOPC   O1223681   6.565   5.760   2.783 -0.2841  0.0947  0.5960
  192DOPC   O1123682   6.407   5.608   2.903 -0.0245  0.0194 -0.0227
  192DOPC    C123683   6.384   5.523   3.017 -0.0485 -0.1100 -0.0223
  192DOPC    HA23684   6.470   5.489   3.078  0.7137  0.8339 -0.5363
  192DOPC    HB23685   6.337   5.428   2.985 -2.1112 -0.0525  2.4902
  192DOPC    C223686   6.294   5.597   3.127  0.4271 -0.1408  0.0440
  192DOPC    HS23687   6.204   5.634   3.074  0.7577  1.6780  0.6750
  192DOPC   O2123688   6.368   5.719   3.169  0.4942  0.8451 -0.5481
  192DOPC   C2123689   6.283   5.812   3.232 -0.7821 -0.6578 -0.2536
  192DOPC   O2223690   6.162   5.813   3.224  0.0369 -0.4307 -0.0338
  192DOPC   C2223691   6.371   5.914   3.302 -0.4118  0.4023 -0.0176
  192DOPC   H2R23692   6.345   6.015   3.263 -0.5601  0.0919 -0.7375
  192DOPC   H2S23693   6.477   5.890   3.280 -0.4009 -0.7865  1.1736
  192DOPC    C323694   6.254   5.503   3.244 -0.5786  0.1266  0.9021
  192DOPC    HX23695   6.197   5.414   3.209  1.0727 -0.3376 -0.7310
  192DOPC    HY23696   6.183   5.556   3.311 -2.6915  1.6757 -2.3116
  192DOPC   O3123697   6.368   5.456   3.323  0.2855  0.1591 -0.1789
  192DOPC   C3123698   6.418   5.339   3.294  0.1920  0.0878  0.1921
  192DOPC   O3223699   6.381   5.264   3.203 -0.7398 -0.0742 -0.0309
  192DOPC   C3223700   6.533   5.310   3.391 -0.4292 -0.4317 -0.1521
  192DOPC   H2X23701   6.582   5.408   3.412 -2.9711  1.3830 -2.1532
  192DOPC   H2Y23702   6.492   5.280   3.490  1.3577 -0.0808  0.7465
  192DOPC   C2323703   6.347   5.897   3.448 -0.3461 -0.6601 -0.0672
  192DOPC   H3R23704   6.343   5.789   3.473 -1.0989 -0.4870  0.6048
  192DOPC   H3S23705   6.246   5.944   3.454  0.4475  1.5089 -1.9582
  192DOPC   C2423706   6.453   5.978   3.529 -0.0331 -0.0113 -0.3536
  192DOPC   H4R23707   6.452   6.076   3.477 -1.9512 -1.5350 -3.5177
  192DOPC   H4S23708   6.556   5.937   3.515  0.2747  0.0650  1.4077
  192DOPC   C2523709   6.418   5.981   3.682 -0.6419 -0.7527 -0.2844
  192DOPC   H5R23710   6.420   5.877   3.720  0.9709 -0.5566  0.2167
  192DOPC   H5S23711   6.310   6.011   3.680 -0.7136 -1.0046 -0.1696
  192DOPC   C2623712   6.501   6.084   3.761  0.5760 -0.3581 -0.3535
  192DOPC   H6R23713   6.448   6.103   3.857  1.8321 -1.4783  0.5981
  192DOPC   H6S23714   6.503   6.181   3.708 -1.1306  0.9394  1.7654
  192DOPC   C2723715   6.633   6.037   3.798 -0.3313 -0.4623  0.1092
  192DOPC   H7R23716   6.689   6.024   3.703  1.5001  1.5164  0.8634
  192DOPC   H7S23717   6.621   5.941   3.854 -3.2538 -0.0511  0.3473
  192DOPC   C2823718   6.712   6.139   3.882 -0.4417  0.1371 -0.5384
  192DOPC   H8R23719   6.794   6.074   3.922 -0.1743  0.4177 -0.6288
  192DOPC   H8S23720   6.643   6.172   3.962 -0.3975 -0.0029 -0.4429
  192DOPC   C2923721   6.757   6.259   3.809 -0.2778  0.7725 -0.0275
  192DOPC   H9R23722   6.684   6.295   3.735 -0.0894  2.7629  0.6902
  192DOPC  C21023723   6.881   6.309   3.806 -0.2236  0.0351  0.9470
  192DOPC  H10R23724   6.896   6.393   3.737 -0.5510  0.2661  1.1524
  192DOPC  C21123725   7.002   6.251   3.880  0.6767 -0.4924 -0.5292
  192DOPC  H11R23726   7.096   6.294   3.839  0.7884  0.3370  0.5444
  192DOPC  H11S23727   7.005   6.142   3.861  0.3801 -0.5389 -0.3130
  192DOPC  C21223728   7.004   6.278   4.035 -0.2764  0.2310 -0.3090
  192DOPC  H12R23729   6.905   6.261   4.082  0.8363 -2.1004  1.4283
  192DOPC  H12S23730   7.020   6.387   4.044  3.5615 -0.1862 -0.1889
  192DOPC  C21323731   7.115   6.198   4.114 -0.4887 -0.5197  0.1868
  192DOPC  H13R23732   7.143   6.241   4.212 -2.0529  0.0819  0.3971
  192DOPC  H13S23733   7.201   6.189   4.045 -0.8179  0.3852 -0.3623
  192DOPC  C21423734   7.063   6.048   4.152  0.0308  0.0286 -0.1129
  192DOPC  H14R23735   7.027   5.997   4.061 -0.7071 -0.8160  0.6299
  192DOPC  H14S23736   6.976   6.050   4.221 -0.1598 -0.1464 -0.3486
  192DOPC  C21523737   7.168   5.955   4.209 -0.4953  0.0682 -0.2690
  192DOPC  H15R23738   7.200   5.991   4.309  2.0993 -1.0371 -0.6246
  192DOPC  H15S23739   7.252   5.965   4.137 -1.1469  1.4240 -0.8854
  192DOPC  C21623740   7.117   5.812   4.207 -0.0857  0.0588  0.0749
  192DOPC  H16R23741   7.095   5.788   4.101  1.5896 -0.3618 -0.2086
  192DOPC  H16S23742   7.027   5.799   4.271  0.6201 -1.4562  0.8201
  192DOPC  C21723743   7.218   5.714   4.260 -0.4392 -0.5463  0.1202
  192DOPC  H17R23744   7.314   5.737   4.209 -1.0930 -1.1393 -1.4405
  192DOPC  H17S23745   7.189   5.613   4.224 -0.7339 -1.8555  3.6439
  192DOPC  C21823746   7.238   5.698   4.412  0.0583  0.6323  0.4347
  192DOPC  H18R23747   7.300   5.785   4.441  0.3741  0.6666 -0.3216
  192DOPC  H18S23748   7.291   5.602   4.430  0.8484  1.2392  1.4396
  192DOPC  H18T23749   7.145   5.700   4.473  0.3974  0.9213  0.9515
  192DOPC   C3323750   6.635   5.203   3.345 -0.2403 -0.4704 -0.5538
  192DOPC   H3X23751   6.709   5.246   3.275  0.7628  0.0696  0.7840
  192DOPC   H3Y23752   6.575   5.129   3.290 -0.8486 -0.5992  0.2589
  192DOPC   C3423753   6.710   5.139   3.464  0.2752  0.5487  0.1667
  192DOPC   H4X23754   6.787   5.066   3.432  0.6577  1.0771 -0.1279
  192DOPC   H4Y23755   6.638   5.085   3.530 -0.9952  0.8084 -0.9708
  192DOPC   C3523756   6.787   5.243   3.549 -0.0941  0.2314 -0.1478
  192DOPC   H5X23757   6.718   5.323   3.585 -0.1839  1.5925 -3.0564
  192DOPC   H5Y23758   6.854   5.293   3.476  1.7261 -2.3953 -0.4282
  192DOPC   C3623759   6.865   5.187   3.669  0.5440  0.5208 -0.2768
  192DOPC   H6X23760   6.924   5.103   3.625 -1.5186 -0.7369 -0.7728
  192DOPC   H6Y23761   6.934   5.257   3.721 -0.7548  0.4435  1.6683
  192DOPC   C3723762   6.777   5.111   3.775 -0.1770  0.2862  0.4530
  192DOPC   H7X23763   6.695   5.061   3.720 -0.0326  1.6025 -1.0447
  192DOPC   H7Y23764   6.844   5.036   3.823  0.8688  0.3512 -0.8477
  192DOPC   C3823765   6.719   5.201   3.874 -0.6007  0.3736 -0.3287
  192DOPC   H8X23766   6.784   5.290   3.890  0.8777 -1.1353  2.9660
  192DOPC   H8Y23767   6.726   5.142   3.968  0.7270  0.8273 -0.1268
  192DOPC   C3923768   6.568   5.238   3.850  0.1046  0.9497 -0.5150
  192DOPC   H9X23769   6.530   5.210   3.750 -3.3498  2.1281  0.3390
  192DOPC  C31023770   6.486   5.293   3.939  0.2867  0.3717 -0.0218
  192DOPC  H10X23771   6.383   5.320   3.909 -0.2199 -1.1924  0.2489
  192DOPC  C31123772   6.515   5.334   4.083 -0.2336 -0.8810  0.6665
  192DOPC  H11X23773   6.623   5.348   4.106 -0.3288  1.1800  0.0623
  192DOPC  H11Y23774   6.479   5.254   4.151 -0.3351 -1.2488  0.1863
  192DOPC  C31223775   6.436   5.463   4.115  0.1822 -0.0308  0.0055
  192DOPC  H12X23776   6.326   5.447   4.116  0.4308 -2.0148 -0.3265
  192DOPC  H12Y23777   6.455   5.534   4.031 -2.3212 -1.1568 -1.6235
  192DOPC  C31323778   6.471   5.524   4.255 -0.2101 -0.9028  0.3654
  192DOPC  H13X23779   6.581   5.532   4.268  0.0599  0.0222 -1.8689
  192DOPC  H13Y23780   6.431   5.626   4.241 -1.5185 -1.3661  0.5432
  192DOPC  C31423781   6.418   5.448   4.374  0.0463  0.5044  0.5637
  192DOPC  H14X23782   6.307   5.450   4.385 -0.1974  1.8138 -1.6259
  192DOPC  H14Y23783   6.446   5.341   4.368 -1.6381 -0.0642  1.8249
  192DOPC  C31523784   6.480   5.511   4.501  0.0621  0.5211 -0.6738
  192DOPC  H15X23785   6.445   5.616   4.516 -1.9392  0.1830 -2.4287
  192DOPC  H15Y23786   6.590   5.501   4.508 -0.1254 -1.9872 -0.4791
  192DOPC  C31623787   6.419   5.430   4.619 -0.1895 -0.2865  0.2820
  192DOPC  H16X23788   6.309   5.428   4.605  0.0447  2.0321 -3.0863
  192DOPC  H16Y23789   6.450   5.323   4.614  1.1038  0.0190  1.1786
  192DOPC  C31723790   6.470   5.478   4.756 -0.5273 -0.0814  0.2913
  192DOPC  H17X23791   6.486   5.587   4.764  0.1590 -0.1187 -0.4338
  192DOPC  H17Y23792   6.396   5.447   4.834  0.4262 -1.0576  0.8387
  192DOPC  C31823793   6.606   5.413   4.789 -0.7370  0.0168 -0.2232
  192DOPC  H18X23794   6.599   5.303   4.773  0.0597 -0.2141  0.8613
  192DOPC  H18Y23795   6.684   5.462   4.728 -1.2858  1.2264  0.0150
  192DOPC  H18Z23796   6.627   5.445   4.894  0.2795  1.4617 -0.8330
  193DOPC     N23797   7.362   1.608   2.684  0.1357  0.1960 -0.9689
  193DOPC   C1223798   7.466   1.715   2.719  0.4423  0.2522  0.1121
  193DOPC  H12A23799   7.484   1.709   2.825 -0.5894  3.4452  0.5865
  193DOPC  H12B23800   7.422   1.813   2.707  0.5904  0.2335 -0.6687
  193DOPC   C1323801   7.339   1.610   2.538 -0.1906 -0.2140 -0.6126
  193DOPC  H13A23802   7.419   1.566   2.481 -1.2830 -1.5100 -1.2069
  193DOPC  H13B23803   7.247   1.557   2.516 -1.0583  1.0831 -0.2530
  193DOPC  H13C23804   7.334   1.715   2.511  0.2066 -0.2763 -0.9386
  193DOPC   C1423805   7.232   1.619   2.759 -0.3973  0.2487  0.3147
  193DOPC  H14A23806   7.241   1.618   2.866 -2.7032 -0.5023  0.5531
  193DOPC  H14B23807   7.178   1.703   2.718 -0.3163 -0.0695 -0.4673
  193DOPC  H14C23808   7.172   1.535   2.725 -0.9522  0.6768  0.2145
  193DOPC   C1523809   7.407   1.464   2.716 -0.2027 -0.4455  0.2689
  193DOPC  H15A23810   7.411   1.449   2.822 -0.4495  1.3461  0.5568
  193DOPC  H15B23811   7.502   1.450   2.666  0.5558  0.8455  1.2877
  193DOPC  H15C23812   7.331   1.406   2.665  1.3971  0.2701 -3.2983
  193DOPC   C1123813   7.605   1.704   2.650  0.2492 -0.4272 -0.0148
  193DOPC  H11A23814   7.596   1.721   2.541  2.4974  0.2292 -0.1473
  193DOPC  H11B23815   7.653   1.798   2.684 -0.1775 -0.8136  1.7597
  193DOPC     P23816   7.771   1.592   2.799 -0.6093 -0.1539  0.0415
  193DOPC   O1323817   7.896   1.665   2.760 -0.2977 -0.3475 -0.4197
  193DOPC   O1423818   7.807   1.454   2.845 -0.1495 -0.4446 -0.4059
  193DOPC   O1223819   7.672   1.579   2.673 -0.3973 -0.1277  0.4847
  193DOPC   O1123820   7.698   1.677   2.912  0.2952  0.6990 -0.4115
  193DOPC    C123821   7.750   1.800   2.955  0.0561  0.5000 -0.4260
  193DOPC    HA23822   7.671   1.873   2.982  0.3590  1.1147 -1.1773
  193DOPC    HB23823   7.804   1.858   2.877  2.5859  1.3735  1.7897
  193DOPC    C223824   7.850   1.781   3.079 -0.0587  0.1101 -0.7002
  193DOPC    HS23825   7.947   1.748   3.035 -0.1605 -0.4977 -0.4696
  193DOPC   O2123826   7.802   1.684   3.174  0.2588 -0.6948 -0.5836
  193DOPC   C2123827   7.872   1.576   3.202 -0.1806  0.5726 -0.5778
  193DOPC   O2223828   7.977   1.543   3.147  0.2614 -0.1441  0.2895
  193DOPC   C2223829   7.813   1.487   3.310  0.4174  0.2474 -0.5544
  193DOPC   H2R23830   7.724   1.431   3.274 -0.4454  2.0650 -1.3767
  193DOPC   H2S23831   7.776   1.556   3.389  1.9214  2.0532 -1.3329
  193DOPC    C323832   7.871   1.919   3.162  0.0847 -0.0397  0.2855
  193DOPC    HX23833   7.773   1.969   3.178  0.2568  0.1672  0.7192
  193DOPC    HY23834   7.920   1.986   3.089 -0.4319 -1.7124 -1.6716
  193DOPC   O3123835   7.937   1.907   3.286 -0.0179  0.0625 -0.3131
  193DOPC   C3123836   7.859   1.890   3.389 -0.4397 -0.1048 -0.2960
  193DOPC   O3223837   7.736   1.899   3.387 -0.2789  0.2118  0.2085
  193DOPC   C3223838   7.936   1.865   3.522 -0.1544  0.0553  0.1961
  193DOPC   H2X23839   7.965   1.759   3.506  0.1377  0.2772 -0.8016
  193DOPC   H2Y23840   8.024   1.933   3.520 -0.6567  0.7369  0.4660
  193DOPC   C2323841   7.922   1.394   3.380  0.3164  0.0558  0.5748
  193DOPC   H3R23842   8.019   1.447   3.369 -0.8463  1.8304 -2.5519
  193DOPC   H3S23843   7.922   1.308   3.309  0.6460 -0.3063  1.0093
  193DOPC   C2423844   7.888   1.347   3.522  0.0542  0.1159  0.2047
  193DOPC   H4R23845   7.945   1.253   3.538  2.8486  1.9576  2.0404
  193DOPC   H4S23846   7.782   1.326   3.547  1.1024 -0.8385  4.7269
  193DOPC   C2523847   7.934   1.445   3.630  0.1495 -0.0140 -0.6292
  193DOPC   H5R23848   7.857   1.525   3.617  1.4074  1.4917  0.7480
  193DOPC   H5S23849   8.034   1.481   3.599 -0.7173  2.1160 -1.1549
  193DOPC   C2623850   7.938   1.374   3.773 -0.4256 -0.3619  0.0732
  193DOPC   H6R23851   8.007   1.289   3.756 -2.2768 -1.7535 -0.8724
  193DOPC   H6S23852   7.835   1.334   3.784 -0.6278 -0.2175 -1.0936
  193DOPC   C2723853   7.961   1.468   3.893 -0.3775 -0.1409 -0.0196
  193DOPC   H7R23854   7.887   1.551   3.896  1.3245  1.4584 -0.5186
  193DOPC   H7S23855   8.059   1.518   3.878 -0.7541  0.8826  0.7840
  193DOPC   C2823856   7.961   1.395   4.031  0.2284 -0.1417 -0.2817
  193DOPC   H8R23857   7.862   1.345   4.041  1.6672 -2.6827  2.9228
  193DOPC   H8S23858   7.957   1.475   4.108 -1.1844 -1.1754  0.7694
  193DOPC   C2923859   8.069   1.292   4.056  0.3916  0.3434  0.1554
  193DOPC   H9R23860   8.063   1.218   3.975  0.5444 -0.8278  1.1770
  193DOPC  C21023861   8.160   1.288   4.159  0.1206  0.1895  0.2460
  193DOPC  H10R23862   8.240   1.212   4.154  1.4854  1.6566 -2.1310
  193DOPC  C21123863   8.174   1.387   4.268  0.2447  0.1932 -0.6427
  193DOPC  H11R23864   8.081   1.445   4.286  2.0145  2.5880  1.8781
  193DOPC  H11S23865   8.247   1.460   4.228 -0.9258  1.2107 -0.9907
  193DOPC  C21223866   8.202   1.326   4.411 -0.2160 -0.5438 -0.0244
  193DOPC  H12R23867   8.200   1.406   4.488 -1.0746  2.2693 -2.7727
  193DOPC  H12S23868   8.306   1.286   4.422  0.7596  2.1997  2.0567
  193DOPC  C21323869   8.092   1.239   4.445  0.3701 -0.1651 -0.9627
  193DOPC  H13R23870   8.088   1.144   4.386  1.1306 -1.3195  0.7648
  193DOPC  H13S23871   7.999   1.296   4.428 -1.3922 -2.2492  1.0273
  193DOPC  C21423872   8.102   1.197   4.592  0.4989 -0.6272  0.3504
  193DOPC  H14R23873   8.122   1.287   4.654 -0.3456  0.7534 -1.3184
  193DOPC  H14S23874   8.192   1.131   4.599  0.6669 -0.3607  0.7483
  193DOPC  C21523875   7.978   1.140   4.657  0.7877  0.4109 -1.1859
  193DOPC  H15R23876   7.936   1.067   4.586  0.2863  2.4208 -3.0726
  193DOPC  H15S23877   7.902   1.220   4.670  0.1130 -0.2015 -1.2895
  193DOPC  C21623878   7.996   1.065   4.796  0.0474 -0.2395  0.2281
  193DOPC  H16R23879   8.072   0.984   4.785  1.8653  0.8981  3.0403
  193DOPC  H16S23880   7.898   1.022   4.823 -0.9004  2.1304  0.7713
  193DOPC  C21723881   8.040   1.156   4.912  0.1469  0.1964 -0.3745
  193DOPC  H17R23882   8.146   1.180   4.889  0.3501 -1.1004 -0.8768
  193DOPC  H17S23883   8.049   1.100   5.008 -0.1847 -0.4872 -0.7372
  193DOPC  C21823884   7.953   1.285   4.941  0.0168 -0.4681  0.0646
  193DOPC  H18R23885   7.846   1.258   4.952 -0.4191 -0.3812 -3.1093
  193DOPC  H18S23886   7.958   1.362   4.861 -0.8000  0.4224  0.8368
  193DOPC  H18T23887   7.994   1.329   5.035  0.3200  0.8782 -0.6804
  193DOPC   C3323888   7.848   1.889   3.645  0.0355 -0.3898 -0.3569
  193DOPC   H3X23889   7.766   1.814   3.638  0.6507 -1.2301  1.1659
  193DOPC   H3Y23890   7.808   1.992   3.655  2.0727  0.2084  4.5307
  193DOPC   C3423891   7.937   1.861   3.767 -0.2053  0.5083  0.0907
  193DOPC   H4X23892   8.033   1.913   3.745  0.4669 -0.8362 -0.2665
  193DOPC   H4Y23893   7.974   1.757   3.764 -2.5195 -0.3398 -1.4982
  193DOPC   C3523894   7.878   1.903   3.901 -0.3674  0.8353  0.2886
  193DOPC   H5X23895   7.775   1.861   3.909 -0.5419  1.3445  0.7538
  193DOPC   H5Y23896   7.863   2.013   3.899  1.5125  1.1208  0.0546
  193DOPC   C3623897   7.975   1.857   4.010 -0.7330 -0.1110  0.0737
  193DOPC   H6X23898   8.027   1.764   3.980 -0.9782 -0.7658  1.5746
  193DOPC   H6Y23899   8.060   1.928   4.021  1.0214 -2.1507  0.3824
  193DOPC   C3723900   7.924   1.849   4.151 -0.1103 -0.3861  1.1367
  193DOPC   H7X23901   7.879   1.944   4.188  1.7652  1.1533 -0.3593
  193DOPC   H7Y23902   7.844   1.773   4.163 -0.4925  0.1283  1.9615
  193DOPC   C3823903   8.042   1.811   4.249  0.2731  0.1769 -0.3739
  193DOPC   H8X23904   8.065   1.914   4.284 -1.0685  0.9272 -1.5843
  193DOPC   H8Y23905   8.133   1.769   4.201  1.8674  1.9328  0.9593
  193DOPC   C3923906   7.987   1.733   4.365 -0.8918 -0.2211  0.3565
  193DOPC   H9X23907   8.008   1.625   4.354  1.4827  0.0879  1.1356
  193DOPC  C31023908   7.914   1.776   4.469 -0.0010 -0.9476  0.2728
  193DOPC  H10X23909   7.880   1.702   4.544  2.8005 -2.1220  0.4838
  193DOPC  C31123910   7.863   1.920   4.494  0.2154  0.1033 -0.4563
  193DOPC  H11X23911   7.757   1.942   4.469  0.3057  1.6174  0.3593
  193DOPC  H11Y23912   7.924   1.997   4.441  1.3456 -1.3991 -1.4147
  193DOPC  C31223913   7.854   1.971   4.639 -0.1754 -0.1595 -0.4348
  193DOPC  H12X23914   7.844   2.081   4.633 -0.4008 -0.1276  0.4156
  193DOPC  H12Y23915   7.952   1.948   4.687 -0.4879 -2.6726 -0.8419
  193DOPC  C31323916   7.735   1.907   4.706 -0.1140 -0.2790  0.2315
  193DOPC  H13X23917   7.672   1.874   4.622  2.6879 -1.7409 -1.4529
  193DOPC  H13Y23918   7.760   1.810   4.755 -0.5800 -1.1749 -1.2654
  193DOPC  C31423919   7.657   2.008   4.793  0.4846  0.6200  0.1758
  193DOPC  H14X23920   7.710   2.022   4.889 -0.3871 -0.3410  0.8070
  193DOPC  H14Y23921   7.654   2.104   4.736 -0.8167  0.4349 -0.1036
  193DOPC  C31523922   7.516   1.968   4.819 -0.4621 -0.3512 -0.4877
  193DOPC  H15X23923   7.510   1.878   4.884 -2.8405  1.4172  2.0245
  193DOPC  H15Y23924   7.464   1.958   4.722 -0.4380  1.4096 -0.7133
  193DOPC  C31623925   7.436   2.068   4.909 -0.1498 -0.2625  0.2579
  193DOPC  H16X23926   7.505   2.103   4.988 -0.0786  0.1104  0.0281
  193DOPC  H16Y23927   7.418   2.157   4.845 -0.3784 -1.8988 -2.1065
  193DOPC  C31723928   7.301   2.018   4.961  0.2516 -0.2406 -0.3614
  193DOPC  H17X23929   7.323   1.937   5.033  0.6018  0.1254 -0.0540
  193DOPC  H17Y23930   7.252   2.105   5.010 -1.0593 -1.0167 -0.2299
  193DOPC  C31823931   7.205   1.967   4.859 -0.5969  0.8956 -0.0593
  193DOPC  H18X23932   7.231   1.866   4.821 -1.5087  0.9746 -0.9304
  193DOPC  H18Y23933   7.098   1.967   4.891 -0.5172 -0.6332  0.2916
  193DOPC  H18Z23934   7.200   2.020   4.762  0.6775 -1.4644 -1.4977
  194DOPC     N23935   0.379   0.123   2.615  0.0785  0.2352 -0.0914
  194DOPC   C1223936   0.480   0.044   2.693 -0.2818 -0.2283  0.2615
  194DOPC  H12A23937   0.573   0.094   2.716  0.8035 -1.7348 -0.6350
  194DOPC  H12B23938   0.508  -0.029   2.618  0.1884  0.5879 -0.3722
  194DOPC   C1323939   0.332   0.235   2.701  0.2000  0.6297 -0.2994
  194DOPC  H13A23940   0.412   0.297   2.737  0.1309  0.1431  0.7399
  194DOPC  H13B23941   0.266   0.305   2.652 -1.5031  0.0416  1.0304
  194DOPC  H13C23942   0.289   0.188   2.789 -1.4836 -0.1036 -1.4519
  194DOPC   C1423943   0.262   0.036   2.574 -0.2998  0.0641 -0.3494
  194DOPC  H14A23944   0.190   0.094   2.518  0.1734  1.7476  0.7261
  194DOPC  H14B23945   0.297  -0.040   2.505  0.0801  0.6049 -0.7628
  194DOPC  H14C23946   0.220  -0.011   2.661 -1.1356 -1.2663 -1.4417
  194DOPC   C1523947   0.439   0.185   2.488  0.0870 -0.3956  1.0676
  194DOPC  H15A23948   0.465   0.109   2.416  1.5835 -1.0089  2.2104
  194DOPC  H15B23949   0.515   0.258   2.510  0.7133 -0.4084 -0.8689
  194DOPC  H15C23950   0.356   0.244   2.450  0.8936  1.9972  2.7716
  194DOPC   C1123951   0.437  -0.031   2.813 -0.1845  0.3283 -0.1477
  194DOPC  H11A23952   0.533  -0.059   2.861 -0.6543 -1.6287 -0.2683
  194DOPC  H11B23953   0.391   0.032   2.891  0.0551  0.0167  0.2495
  194DOPC     P23954   0.443  -0.277   2.745 -0.0212  0.0449 -0.5036
  194DOPC   O1323955   0.517  -0.248   2.626 -0.5429  0.0787  0.1961
  194DOPC   O1423956   0.344  -0.388   2.729 -0.5915 -0.1267  0.3989
  194DOPC   O1223957   0.360  -0.145   2.776 -0.0591 -0.0351 -0.3957
  194DOPC   O1123958   0.539  -0.311   2.870  0.0639 -0.5923 -0.0661
  194DOPC    C123959   0.484  -0.379   2.985  0.2404 -0.4272 -0.6099
  194DOPC    HA23960   0.532  -0.478   3.003  1.3305 -0.0394 -1.3203
  194DOPC    HB23961   0.375  -0.400   2.977  0.2040 -1.5163  1.7522
  194DOPC    C223962   0.489  -0.289   3.105  0.1185 -0.5057  0.2589
  194DOPC    HS23963   0.427  -0.199   3.084 -0.8600 -1.3162 -0.4433
  194DOPC   O2123964   0.625  -0.245   3.125 -0.4627 -0.0521  0.3679
  194DOPC   C2123965   0.635  -0.135   3.202  0.2562  0.0649 -0.4027
  194DOPC   O2223966   0.544  -0.058   3.224  0.5381 -0.0028 -0.2190
  194DOPC   C2223967   0.786  -0.130   3.255  0.7540 -0.4322  0.4398
  194DOPC   H2R23968   0.822  -0.025   3.254 -1.7441  0.5125 -1.5870
  194DOPC   H2S23969   0.853  -0.182   3.183  2.4306 -0.1442  1.7131
  194DOPC    C323970   0.423  -0.349   3.233 -0.3204 -0.0246  0.2415
  194DOPC    HX23971   0.440  -0.286   3.323  1.4759 -0.6385  0.3735
  194DOPC    HY23972   0.483  -0.437   3.265 -0.3117 -0.2550 -0.3934
  194DOPC   O3123973   0.285  -0.392   3.230 -0.7062 -0.5715  0.3248
  194DOPC   C3123974   0.202  -0.286   3.242  0.4772 -0.2103 -0.1154
  194DOPC   O3223975   0.234  -0.173   3.247 -0.7624 -0.2105 -0.2444
  194DOPC   C3223976   0.056  -0.335   3.276  0.1145  0.3488 -0.1079
  194DOPC   H2X23977   0.011  -0.330   3.174  1.0377  1.5260 -0.4760
  194DOPC   H2Y23978   0.071  -0.430   3.331  0.4529  0.0699 -0.6705
  194DOPC   C2323979   0.804  -0.203   3.390  0.2054 -1.3651 -0.2984
  194DOPC   H3R23980   0.915  -0.196   3.395  0.2660  0.1835 -2.2620
  194DOPC   H3S23981   0.757  -0.303   3.399  1.1065 -1.7384  0.4409
  194DOPC   C2423982   0.756  -0.117   3.504 -0.5405 -0.2412  0.3320
  194DOPC   H4R23983   0.738  -0.011   3.478 -1.9844 -0.3321  0.8781
  194DOPC   H4S23984   0.826  -0.126   3.590  0.9502  2.0418 -0.5526
  194DOPC   C2523985   0.616  -0.169   3.565 -0.2807 -0.6931 -0.0238
  194DOPC   H5R23986   0.629  -0.260   3.627  2.8076 -2.1122 -2.4433
  194DOPC   H5S23987   0.544  -0.201   3.487 -0.5253 -1.0186  0.3356
  194DOPC   C2623988   0.543  -0.056   3.649 -0.0210  0.1960  0.3621
  194DOPC   H6R23989   0.592  -0.028   3.745 -2.0556 -1.2454  1.9158
  194DOPC   H6S23990   0.452  -0.111   3.682 -0.7920  0.1667 -1.6686
  194DOPC   C2723991   0.492   0.072   3.574  0.3302  0.2734 -0.2364
  194DOPC   H7R23992   0.570   0.114   3.506  0.3157  0.4662 -0.1358
  194DOPC   H7S23993   0.455   0.149   3.645 -1.0828 -3.1720  3.0913
  194DOPC   C2823994   0.366   0.057   3.485 -0.4248 -0.2941 -0.3789
  194DOPC   H8R23995   0.283   0.017   3.547 -0.3465  1.9461  1.3084
  194DOPC   H8S23996   0.381  -0.031   3.419 -4.4275 -1.2961 -0.2591
  194DOPC   C2923997   0.325   0.181   3.406  0.4766  0.2726  0.6027
  194DOPC   H9R23998   0.367   0.190   3.305 -1.0701 -0.5318 -0.1634
  194DOPC  C21023999   0.245   0.276   3.455 -0.6086  0.0025 -0.0976
  194DOPC  H10R24000   0.220   0.364   3.393 -1.7255 -1.4948 -1.8939
  194DOPC  C21124001   0.189   0.283   3.594  0.0689  0.0793  1.1003
  194DOPC  H11R24002   0.201   0.183   3.639 -0.1290 -0.4524  0.0016
  194DOPC  H11S24003   0.086   0.326   3.596  0.9268  2.2989  0.7505
  194DOPC  C21224004   0.267   0.382   3.675 -0.0532 -0.0060 -0.5076
  194DOPC  H12R24005   0.266   0.482   3.626  3.3446  1.5940  2.1658
  194DOPC  H12S24006   0.372   0.345   3.685  0.4471  1.7052  1.5320
  194DOPC  C21324007   0.214   0.407   3.821  0.0746 -0.3595  0.3928
  194DOPC  H13R24008   0.235   0.320   3.887 -1.6609 -1.9873 -1.0846
  194DOPC  H13S24009   0.103   0.413   3.814 -0.1079 -2.3724  0.9095
  194DOPC  C21424010   0.293   0.523   3.882  0.5554 -0.0094 -0.5441
  194DOPC  H14R24011   0.265   0.621   3.839  0.0461  0.2562  0.3498
  194DOPC  H14S24012   0.396   0.488   3.860 -0.2647 -3.3695  0.4085
  194DOPC  C21524013   0.285   0.535   4.034  0.1521  0.2370 -0.4645
  194DOPC  H15R24014   0.316   0.441   4.085  1.8266  0.5447 -0.8928
  194DOPC  H15S24015   0.179   0.548   4.066 -0.2654 -2.7847 -0.2394
  194DOPC  C21624016   0.389   0.641   4.090 -0.5296 -0.0723  0.5509
  194DOPC  H16R24017   0.487   0.597   4.061 -1.2129  0.2453 -2.6256
  194DOPC  H16S24018   0.383   0.633   4.200 -2.4074 -1.0055  0.4244
  194DOPC  C21724019   0.366   0.781   4.033  0.6085  0.1162  0.3550
  194DOPC  H17R24020   0.261   0.811   4.054  0.0524 -0.8911 -0.8959
  194DOPC  H17S24021   0.373   0.769   3.923  2.2661  1.9962  0.1985
  194DOPC  C21824022   0.457   0.886   4.079  0.3797  0.0994 -0.1691
  194DOPC  H18R24023   0.432   0.911   4.184  0.5610  1.8585 -0.5161
  194DOPC  H18S24024   0.436   0.986   4.034  1.0726 -0.3823 -1.6062
  194DOPC  H18T24025   0.564   0.865   4.057  0.1679 -0.4326 -0.7306
  194DOPC   C3324026  -0.026  -0.242   3.368  0.5905 -0.9072 -0.4558
  194DOPC   H3X24027  -0.131  -0.276   3.358  0.9485 -1.7611 -1.7047
  194DOPC   H3Y24028  -0.020  -0.136   3.335  2.7102 -0.5134  0.9722
  194DOPC   C3424029   0.019  -0.255   3.518  0.4617 -0.4167  0.2838
  194DOPC   H4X24030   0.124  -0.218   3.526 -0.4090  2.0426  1.4679
  194DOPC   H4Y24031   0.022  -0.363   3.543  0.5314 -0.9313 -1.7946
  194DOPC   C3524032  -0.078  -0.191   3.624  0.1783  0.5402 -0.6944
  194DOPC   H5X24033  -0.174  -0.247   3.611  0.5652 -0.1798 -0.4978
  194DOPC   H5Y24034  -0.107  -0.086   3.599 -2.6613  0.3314  1.2454
  194DOPC   C3624035  -0.025  -0.197   3.768  0.0442 -0.0846  0.1254
  194DOPC   H6X24036  -0.115  -0.190   3.833 -0.3985  1.5545 -0.6218
  194DOPC   H6Y24037   0.007  -0.298   3.801 -1.1142  0.0610  1.8507
  194DOPC   C3724038   0.079  -0.089   3.806  0.2865  0.1934 -0.2409
  194DOPC   H7X24039   0.157  -0.094   3.727 -0.6646  0.6439 -1.2324
  194DOPC   H7Y24040   0.042   0.015   3.802 -1.1177 -0.2975 -0.5870
  194DOPC   C3824041   0.146  -0.097   3.943  0.1137 -0.2925 -0.1181
  194DOPC   H8X24042   0.160  -0.206   3.962 -2.7721 -0.4217  1.8130
  194DOPC   H8Y24043   0.073  -0.076   4.023  2.6686 -0.7277  2.4776
  194DOPC   C3924044   0.268  -0.004   3.953 -0.3727  0.2608 -0.5728
  194DOPC   H9X24045   0.258   0.094   3.904  1.2060  0.9575  0.4315
  194DOPC  C31024046   0.391  -0.028   4.002 -0.6653  0.0479  0.6254
  194DOPC  H10X24047   0.456   0.060   4.017 -1.2269  0.7519 -0.9193
  194DOPC  C31124048   0.433  -0.162   4.058 -0.3375  0.0692 -0.0925
  194DOPC  H11X24049   0.541  -0.174   4.035 -0.5850 -0.6358 -0.9390
  194DOPC  H11Y24050   0.376  -0.246   4.013  0.3668 -1.3603  1.5759
  194DOPC  C31224051   0.422  -0.167   4.210  0.6693 -0.0311 -0.1403
  194DOPC  H12X24052   0.314  -0.160   4.237  0.8362 -0.0471  0.5559
  194DOPC  H12Y24053   0.470  -0.071   4.241 -2.1490  1.4972 -0.1986
  194DOPC  C31324054   0.486  -0.290   4.280  0.3858  0.9058  0.0604
  194DOPC  H13X24055   0.414  -0.374   4.271  0.3040  0.8934  0.7312
  194DOPC  H13Y24056   0.578  -0.319   4.226 -1.2523 -1.6762 -1.5595
  194DOPC  C31424057   0.505  -0.289   4.430 -0.4647 -0.3149  1.1409
  194DOPC  H14X24058   0.538  -0.384   4.476 -1.2638  0.2702  3.0554
  194DOPC  H14Y24059   0.591  -0.219   4.444  0.2815 -1.0370  0.2623
  194DOPC  C31524060   0.398  -0.211   4.505 -0.6794  0.4141 -0.1823
  194DOPC  H15X24061   0.317  -0.287   4.494 -1.0266  0.0812  3.3398
  194DOPC  H15Y24062   0.361  -0.117   4.460  1.2167  1.2080 -0.1793
  194DOPC  C31624063   0.446  -0.188   4.647  0.6868 -0.6994  1.2267
  194DOPC  H16X24064   0.499  -0.283   4.670  1.8821 -0.5899 -0.8967
  194DOPC  H16Y24065   0.520  -0.105   4.650 -1.4609  1.2957  3.6405
  194DOPC  C31724066   0.323  -0.150   4.740  0.0148  0.2212  0.2530
  194DOPC  H17X24067   0.255  -0.232   4.709 -1.5964  2.1729 -1.6826
  194DOPC  H17Y24068   0.359  -0.154   4.845  0.3946 -1.9552  0.0925
  194DOPC  C31824069   0.247  -0.018   4.704 -0.6419  0.1024 -0.2717
  194DOPC  H18X24070   0.220  -0.028   4.596 -0.9069 -0.1869 -0.1811
  194DOPC  H18Y24071   0.156  -0.012   4.768 -0.4956 -0.5319  0.0009
  194DOPC  H18Z24072   0.309   0.072   4.725 -2.1648  1.7839 -2.4899
  195DOPC     N24073   3.476   7.530   2.722 -0.6827 -1.1598  0.0008
  195DOPC   C1224074   3.614   7.491   2.679  0.2739 -0.1365 -0.1808
  195DOPC  H12A24075   3.610   7.466   2.574  0.1802  0.3735 -0.3007
  195DOPC  H12B24076   3.638   7.404   2.739 -2.7726 -0.6107  0.5323
  195DOPC   C1324077   3.435   7.654   2.650  0.1117  0.0405  0.1058
  195DOPC  H13A24078   3.415   7.634   2.545 -2.8923  0.4507  0.4961
  195DOPC  H13B24079   3.332   7.672   2.680 -1.3266 -4.4751 -1.2430
  195DOPC  H13C24080   3.502   7.737   2.666 -1.4985  2.1907 -3.1055
  195DOPC   C1424081   3.481   7.559   2.869  0.2959  0.2699  0.6677
  195DOPC  H14A24082   3.558   7.629   2.900  1.5131 -0.4089 -0.7023
  195DOPC  H14B24083   3.378   7.580   2.895  0.4969 -1.2491  2.9914
  195DOPC  H14C24084   3.518   7.468   2.914  1.3279  0.0739 -0.5298
  195DOPC   C1524085   3.384   7.415   2.705 -0.0113 -0.1990  0.5064
  195DOPC  H15A24086   3.406   7.334   2.773  1.2356 -2.1477 -2.0647
  195DOPC  H15B24087   3.383   7.377   2.604  0.2409 -1.2578  0.8869
  195DOPC  H15C24088   3.279   7.431   2.727 -0.1180  0.5670 -0.5148
  195DOPC   C1124089   3.736   7.583   2.704 -0.2710 -0.6992 -0.1409
  195DOPC  H11A24090   3.822   7.543   2.646 -0.7473  0.0194 -1.3727
  195DOPC  H11B24091   3.711   7.684   2.664 -1.8630  0.2341  2.9403
  195DOPC     P24092   3.829   7.483   2.939  0.1866  0.1388  0.1094
  195DOPC   O1324093   3.954   7.535   2.995 -0.1527  0.1285  0.4972
  195DOPC   O1424094   3.829   7.353   2.874 -0.4455  0.4925  0.2118
  195DOPC   O1224095   3.773   7.594   2.841  0.0640  0.6781 -0.5427
  195DOPC   O1124096   3.718   7.480   3.042 -0.2271 -0.2634 -0.1030
  195DOPC    C124097   3.686   7.595   3.123  0.1235 -0.2461  0.9084
  195DOPC    HA24098   3.579   7.591   3.151 -0.2163  0.1421 -0.2562
  195DOPC    HB24099   3.696   7.693   3.070 -1.8491 -0.8105 -0.6287
  195DOPC    C224100   3.772   7.596   3.257  0.2307 -0.6438  0.3037
  195DOPC    HS24101   3.877   7.621   3.231  0.3356 -2.7142 -1.5839
  195DOPC   O2124102   3.774   7.461   3.312  0.3498 -0.0330 -0.0401
  195DOPC   C2124103   3.887   7.430   3.371 -0.0795  0.4397  0.1547
  195DOPC   O2224104   3.994   7.494   3.364  0.8253 -0.2152  0.1134
  195DOPC   C2224105   3.879   7.296   3.441  0.1944 -1.0332 -0.0027
  195DOPC   H2R24106   3.981   7.276   3.481  0.9633 -0.1795 -1.4418
  195DOPC   H2S24107   3.858   7.215   3.368 -1.3315 -0.3768 -0.3306
  195DOPC    C324108   3.706   7.687   3.367  0.3719 -0.8901  0.0243
  195DOPC    HX24109   3.603   7.646   3.381  0.5901 -1.8233 -0.9673
  195DOPC    HY24110   3.694   7.780   3.308  1.4323 -1.6167 -1.3768
  195DOPC   O3124111   3.788   7.703   3.487  0.0686  0.4040 -0.5974
  195DOPC   C3124112   3.875   7.792   3.478 -0.4177  0.3584  0.2945
  195DOPC   O3224113   3.901   7.859   3.381  0.1083 -0.1481  1.0911
  195DOPC   C3224114   3.933   7.820   3.621 -0.6680 -0.2930 -0.3427
  195DOPC   H2X24115   3.886   7.916   3.650 -3.5660 -0.7873 -2.8653
  195DOPC   H2Y24116   3.912   7.741   3.696  1.7430 -0.4937  0.2047
  195DOPC   C2324117   3.768   7.296   3.548 -0.1618 -0.1859 -0.5692
  195DOPC   H3R24118   3.769   7.196   3.598  1.3257  0.1961  0.2043
  195DOPC   H3S24119   3.668   7.319   3.505 -0.6243  0.6321  0.8586
  195DOPC   C2424120   3.785   7.408   3.655 -0.4363 -0.1934  0.2086
  195DOPC   H4R24121   3.804   7.502   3.598 -1.4719 -1.2488 -2.0080
  195DOPC   H4S24122   3.883   7.397   3.706 -0.3851  2.6069  0.8864
  195DOPC   C2524123   3.686   7.431   3.767  1.0192 -0.2549  0.8138
  195DOPC   H5R24124   3.675   7.341   3.832 -1.6224 -0.9150 -0.3770
  195DOPC   H5S24125   3.588   7.453   3.718  2.0349 -0.3133 -1.3655
  195DOPC   C2624126   3.717   7.551   3.854 -0.6438  0.0220  0.6829
  195DOPC   H6R24127   3.633   7.582   3.919  1.4603  2.1927  2.6034
  195DOPC   H6S24128   3.733   7.638   3.786 -1.6635 -0.6679 -0.4822
  195DOPC   C2724129   3.829   7.520   3.952  0.6096 -0.3197 -0.4118
  195DOPC   H7R24130   3.910   7.460   3.906  0.3145  1.3093 -3.3049
  195DOPC   H7S24131   3.781   7.455   4.028 -0.7154  2.2106  1.0584
  195DOPC   C2824132   3.888   7.653   4.013 -0.1721 -0.1340 -0.0419
  195DOPC   H8R24133   3.806   7.715   4.055 -0.0553 -1.1141  1.7687
  195DOPC   H8S24134   3.934   7.697   3.922 -1.0371  2.0867  0.5397
  195DOPC   C2924135   3.990   7.613   4.120  0.1644 -0.5541 -0.6633
  195DOPC   H9R24136   4.076   7.551   4.090  1.2233  0.7838 -0.4576
  195DOPC  C21024137   3.970   7.632   4.254 -0.0255  0.7089 -0.6933
  195DOPC  H10R24138   4.056   7.612   4.318 -1.5538 -4.3534  0.1908
  195DOPC  C21124139   3.857   7.699   4.333 -0.5236  0.5690 -0.6817
  195DOPC  H11R24140   3.786   7.743   4.260  0.0522 -0.8998 -2.1837
  195DOPC  H11S24141   3.881   7.777   4.409 -2.5734  0.0592  0.5772
  195DOPC  C21224142   3.783   7.594   4.417  0.6383  0.1666  0.0249
  195DOPC  H12R24143   3.716   7.656   4.481  1.7695  2.5542 -0.9979
  195DOPC  H12S24144   3.860   7.545   4.480  2.7727 -0.4858 -2.8796
  195DOPC  C21324145   3.698   7.496   4.336 -0.2729 -0.7623  0.7502
  195DOPC  H13R24146   3.770   7.434   4.279  0.3716  1.6266 -1.2146
  195DOPC  H13S24147   3.663   7.553   4.247  0.8445 -0.3523  0.5591
  195DOPC  C21424148   3.590   7.418   4.407  0.3292 -0.1863 -0.1677
  195DOPC  H14R24149   3.533   7.354   4.336 -0.8240 -1.4362  1.7842
  195DOPC  H14S24150   3.519   7.486   4.458 -1.5175 -2.1226  0.0243
  195DOPC  C21524151   3.652   7.323   4.510 -0.5814 -0.0565  0.5226
  195DOPC  H15R24152   3.744   7.370   4.552  0.2294 -2.4258  1.6443
  195DOPC  H15S24153   3.685   7.231   4.456 -0.6519 -0.2323  0.7771
  195DOPC  C21624154   3.569   7.281   4.625  0.3902  0.2592 -0.1401
  195DOPC  H16R24155   3.503   7.367   4.648  1.0191  1.3717 -2.2115
  195DOPC  H16S24156   3.641   7.254   4.705  0.3519 -1.1369 -0.5468
  195DOPC  C21724157   3.500   7.153   4.593 -0.3414  0.1666  0.0734
  195DOPC  H17R24158   3.573   7.076   4.560  0.2884 -0.3919  2.5074
  195DOPC  H17S24159   3.428   7.179   4.513 -0.9736 -0.3642  0.4593
  195DOPC  C21824160   3.423   7.086   4.707 -0.4450 -0.3690  0.2203
  195DOPC  H18R24161   3.355   7.164   4.748  0.6376  0.1695  1.0158
  195DOPC  H18S24162   3.499   7.059   4.783  1.0399 -0.0364 -1.1036
  195DOPC  H18T24163   3.354   7.002   4.681  0.3189 -1.4537  1.5807
  195DOPC   C3324164   4.087   7.844   3.621 -0.1921 -0.3474 -0.7282
  195DOPC   H3X24165   4.121   7.902   3.710  0.6294  0.2551 -1.4204
  195DOPC   H3Y24166   4.110   7.910   3.535 -0.6863 -0.5302 -1.0062
  195DOPC   C3424167   4.164   7.710   3.623 -0.2256  1.1732 -0.6552
  195DOPC   H4X24168   4.269   7.744   3.614 -0.4067  1.8150 -0.4090
  195DOPC   H4Y24169   4.135   7.645   3.537 -0.0678 -0.7671  0.6845
  195DOPC   C3524170   4.153   7.611   3.743 -0.3121 -0.3656 -0.4525
  195DOPC   H5X24171   4.045   7.588   3.755 -0.6142  0.4827 -1.3948
  195DOPC   H5Y24172   4.187   7.667   3.833 -3.7736  3.5936 -1.3135
  195DOPC   C3624173   4.224   7.476   3.720 -0.1132 -0.0902  0.0408
  195DOPC   H6X24174   4.198   7.438   3.619 -0.7047 -2.2848  0.9635
  195DOPC   H6Y24175   4.334   7.491   3.731 -0.1335 -0.6301  1.0911
  195DOPC   C3724176   4.181   7.359   3.810  0.6726 -0.0336 -0.4583
  195DOPC   H7X24177   4.217   7.371   3.915 -1.0149 -2.6978  0.5378
  195DOPC   H7Y24178   4.070   7.363   3.815  0.7242  0.3819  0.5657
  195DOPC   C3824179   4.217   7.217   3.765 -0.2204  0.5560 -0.2328
  195DOPC   H8X24180   4.161   7.200   3.671  0.2731  1.4392 -0.7022
  195DOPC   H8Y24181   4.171   7.151   3.841 -3.6611  0.9305 -1.8402
  195DOPC   C3924182   4.368   7.202   3.749  0.2725  0.4973  0.0399
  195DOPC   H9X24183   4.414   7.241   3.657  0.5511  0.9752  0.3752
  195DOPC  C31024184   4.443   7.114   3.819  0.4276 -0.7989  0.6772
  195DOPC  H10X24185   4.550   7.108   3.795  0.1518 -3.5043 -0.2090
  195DOPC  C31124186   4.395   7.014   3.919 -0.3375  0.7535  0.1884
  195DOPC  H11X24187   4.447   6.916   3.908 -0.7728  0.7881 -3.6024
  195DOPC  H11Y24188   4.286   6.993   3.919 -0.1137 -0.4896  0.6191
  195DOPC  C31224189   4.424   7.072   4.064 -0.3419 -0.9530 -0.3579
  195DOPC  H12X24190   4.377   7.172   4.066 -0.8863 -1.1969 -0.6816
  195DOPC  H12Y24191   4.533   7.087   4.083 -0.3060  0.3797 -1.4773
  195DOPC  C31324192   4.372   6.987   4.179 -0.4835 -0.2370 -0.5427
  195DOPC  H13X24193   4.261   6.990   4.177 -0.4665  1.4145 -0.1720
  195DOPC  H13Y24194   4.413   6.887   4.154  0.1478  0.0199 -0.5599
  195DOPC  C31424195   4.423   7.041   4.324 -0.6223  0.7455  0.4598
  195DOPC  H14X24196   4.523   7.085   4.302  0.2215  0.3678  3.1313
  195DOPC  H14Y24197   4.361   7.120   4.372 -1.4007 -0.1196  0.9076
  195DOPC  C31524198   4.459   6.919   4.421 -0.1997 -0.4029  0.5515
  195DOPC  H15X24199   4.503   6.846   4.351 -2.8112 -0.7229 -0.8981
  195DOPC  H15Y24200   4.366   6.876   4.466  0.5485 -0.1621  2.4187
  195DOPC  C31624201   4.544   6.958   4.541  0.4437  0.3371 -0.0328
  195DOPC  H16X24202   4.574   6.860   4.585 -2.1987 -1.0254 -1.0919
  195DOPC  H16Y24203   4.628   7.016   4.498  2.5643 -1.9573  0.7517
  195DOPC  C31724204   4.488   7.056   4.651  0.2344  0.3102 -0.8492
  195DOPC  H17X24205   4.438   7.138   4.595 -1.8054 -0.4832 -0.2940
  195DOPC  H17Y24206   4.405   7.007   4.706  2.3192 -0.5987  1.6760
  195DOPC  C31824207   4.593   7.102   4.751 -0.0558 -0.7225 -0.1319
  195DOPC  H18X24208   4.678   7.134   4.687 -0.0065  0.9587  0.7392
  195DOPC  H18Y24209   4.562   7.179   4.824  0.7287 -1.6965  1.2696
  195DOPC  H18Z24210   4.626   7.010   4.803  0.2218 -0.3198  0.4104
  196DOPC     N24211   6.410   0.279   2.720  0.8008 -0.6176  0.0312
  196DOPC   C1224212   6.545   0.340   2.754  0.0320 -0.3428  0.4010
  196DOPC  H12A24213   6.557   0.414   2.676 -0.0380  0.0043  0.7175
  196DOPC  H12B24214   6.627   0.274   2.731 -0.5540 -0.9315 -0.0294
  196DOPC   C1324215   6.295   0.377   2.735  0.4514  0.2767 -0.2493
  196DOPC  H13A24216   6.289   0.404   2.839  1.3229 -0.7262  0.0726
  196DOPC  H13B24217   6.297   0.468   2.677 -0.7617  0.2384 -0.3777
  196DOPC  H13C24218   6.197   0.337   2.710  0.4322  0.0057  0.2610
  196DOPC   C1424219   6.372   0.180   2.829 -0.9610  0.5704 -0.1299
  196DOPC  H14A24220   6.430   0.090   2.823 -0.6860  0.7681 -0.4601
  196DOPC  H14B24221   6.392   0.226   2.925  1.2596  0.3526 -0.4336
  196DOPC  H14C24222   6.270   0.146   2.822 -0.8415 -0.1423  1.1754
  196DOPC   C1524223   6.402   0.214   2.589  0.2969 -0.6672 -0.1341
  196DOPC  H15A24224   6.303   0.177   2.565 -0.2699 -0.1675  1.3434
  196DOPC  H15B24225   6.471   0.132   2.597  1.1222  0.0291  0.1145
  196DOPC  H15C24226   6.422   0.286   2.511  1.2349 -0.0659  0.6401
  196DOPC   C1124227   6.572   0.390   2.897 -0.1846 -0.3251  0.1762
  196DOPC  H11A24228   6.659   0.460   2.893 -0.2909 -0.0105  2.2708
  196DOPC  H11B24229   6.482   0.450   2.924  0.3698  0.8779 -0.5633
  196DOPC     P24230   6.725   0.193   2.994  0.5462 -0.3389  0.3019
  196DOPC   O1324231   6.856   0.255   2.981 -0.4429 -0.6584  0.3437
  196DOPC   O1424232   6.702   0.085   2.900  0.3096  0.0888  0.7032
  196DOPC   O1224233   6.601   0.289   2.989 -0.0708  0.1444  0.0104
  196DOPC   O1124234   6.705   0.135   3.142 -0.4289 -0.0512 -0.3588
  196DOPC    C124235   6.709   0.223   3.254  0.1666  0.5644 -0.1717
  196DOPC    HA24236   6.654   0.318   3.238 -0.0821  0.8695  2.1760
  196DOPC    HB24237   6.809   0.254   3.292 -0.2603  3.8307 -1.3764
  196DOPC    C224238   6.630   0.160   3.375 -0.1065 -0.1899 -0.3219
  196DOPC    HS24239   6.679   0.066   3.409  0.4441  0.9067  2.0724
  196DOPC   O2124240   6.500   0.132   3.322 -0.2316 -0.7364 -0.1615
  196DOPC   C2124241   6.428   0.030   3.359 -0.2779 -0.0605  0.0856
  196DOPC   O2224242   6.459  -0.051   3.447 -0.0409 -0.3289 -0.2260
  196DOPC   C2224243   6.297   0.033   3.283 -0.3274 -0.8057 -0.4297
  196DOPC   H2R24244   6.330   0.005   3.180  2.0320 -0.2241  0.1049
  196DOPC   H2S24245   6.261   0.138   3.280  0.4012 -0.5445 -0.2882
  196DOPC    C324246   6.625   0.262   3.494  0.2451 -0.0455 -0.4757
  196DOPC    HX24247   6.550   0.342   3.477 -0.0643  0.0911  1.3746
  196DOPC    HY24248   6.724   0.312   3.497 -0.2334  0.9312 -0.6064
  196DOPC   O3124249   6.594   0.192   3.616  0.5248 -0.1507 -0.0628
  196DOPC   C3124250   6.688   0.123   3.675 -0.6198  1.1369  0.7883
  196DOPC   O3224251   6.800   0.105   3.626 -0.6582 -0.5693 -0.8980
  196DOPC   C3224252   6.635   0.054   3.797 -0.7726 -0.4357  0.5060
  196DOPC   H2X24253   6.544   0.111   3.826 -1.3100 -1.3847  0.7059
  196DOPC   H2Y24254   6.599  -0.046   3.765  1.0386 -1.7625  2.3610
  196DOPC   C2324255   6.189  -0.062   3.337 -0.3621 -0.2611 -0.4874
  196DOPC   H3R24256   6.224  -0.167   3.344  0.7181  0.0946 -0.3764
  196DOPC   H3S24257   6.093  -0.058   3.281 -0.4525 -2.1492 -0.5069
  196DOPC   C2424258   6.134  -0.010   3.473  0.6113 -0.2323 -0.6229
  196DOPC   H4R24259   6.090   0.091   3.455  0.4257  0.0005  1.0162
  196DOPC   H4S24260   6.214   0.003   3.548 -2.4871 -0.0959  2.9786
  196DOPC   C2524261   6.023  -0.097   3.534 -0.1861 -0.2374  0.1658
  196DOPC   H5R24262   5.934  -0.106   3.467 -0.4961 -1.5227  0.7297
  196DOPC   H5S24263   5.985  -0.044   3.624 -1.0523  1.1874 -0.9892
  196DOPC   C2624264   6.072  -0.241   3.554  0.1870  0.1608  0.2504
  196DOPC   H6R24265   6.097  -0.296   3.461  1.7204  0.0421  0.7043
  196DOPC   H6S24266   5.984  -0.294   3.597 -0.8038  1.4704 -0.1100
  196DOPC   C2724267   6.194  -0.259   3.647 -0.0197 -0.0611 -0.7129
  196DOPC   H7R24268   6.286  -0.225   3.595 -0.3068 -1.1427 -1.9798
  196DOPC   H7S24269   6.216  -0.365   3.672  0.0794  0.3356  1.0601
  196DOPC   C2824270   6.174  -0.191   3.783 -0.5761  0.0359 -1.2490
  196DOPC   H8R24271   6.067  -0.208   3.807 -0.3248  0.3598  0.1529
  196DOPC   H8S24272   6.211  -0.087   3.766 -0.4629 -0.0213 -1.3558
  196DOPC   C2924273   6.255  -0.247   3.902 -0.4524 -0.6965  0.3174
  196DOPC   H9R24274   6.361  -0.245   3.875  0.1694 -1.1113  2.5523
  196DOPC  C21024275   6.209  -0.310   4.016 -0.1412 -1.0233 -0.1174
  196DOPC  H10R24276   6.282  -0.360   4.081 -0.8163  0.0209  1.4960
  196DOPC  C21124277   6.069  -0.338   4.060 -0.1478  0.3152  0.1527
  196DOPC  H11R24278   6.047  -0.445   4.044 -0.8479  0.7219 -1.8690
  196DOPC  H11S24279   6.006  -0.277   3.992  0.3924  0.7375  0.0233
  196DOPC  C21224280   6.034  -0.305   4.199  0.0809  0.3049  0.0217
  196DOPC  H12R24281   5.928  -0.326   4.224  0.8372 -0.6997  2.7687
  196DOPC  H12S24282   6.057  -0.197   4.213 -0.6904  0.4115  0.5151
  196DOPC  C21324283   6.112  -0.390   4.307  0.3351  0.2122  0.6241
  196DOPC  H13R24284   6.219  -0.362   4.304  0.2112  0.7693 -3.3433
  196DOPC  H13S24285   6.093  -0.496   4.279  1.4296  0.0929  0.2787
  196DOPC  C21424286   6.076  -0.355   4.448 -0.8981 -0.0157 -0.6121
  196DOPC  H14R24287   5.966  -0.338   4.455 -0.8343  1.0153 -1.8972
  196DOPC  H14S24288   6.123  -0.259   4.477  1.2771 -0.9489 -0.8763
  196DOPC  C21524289   6.087  -0.464   4.558 -0.6050  0.1517  0.1408
  196DOPC  H15R24290   6.196  -0.473   4.577 -0.8185 -0.8998  0.9904
  196DOPC  H15S24291   6.044  -0.559   4.521 -0.0088 -0.4052  0.8353
  196DOPC  C21624292   6.010  -0.434   4.683 -0.0406 -0.7411  0.2145
  196DOPC  H16R24293   5.906  -0.428   4.644 -0.1968  0.7716  0.8167
  196DOPC  H16S24294   6.036  -0.337   4.729  0.7533  0.4618 -2.5350
  196DOPC  C21724295   6.013  -0.547   4.783 -0.0690 -0.3405  0.3073
  196DOPC  H17R24296   6.006  -0.520   4.891  3.1244  1.1470  0.2820
  196DOPC  H17S24297   6.120  -0.580   4.785 -0.1937 -0.8320 -0.7547
  196DOPC  C21824298   5.922  -0.671   4.760 -0.3320 -0.2635  0.1583
  196DOPC  H18R24299   5.970  -0.723   4.674  1.0438  0.7204  0.2846
  196DOPC  H18S24300   5.818  -0.643   4.735 -0.4082  2.0936  2.6252
  196DOPC  H18T24301   5.928  -0.747   4.841  0.6264  0.1114  0.4618
  196DOPC   C3324302   6.740   0.051   3.910  0.1277  0.1407 -0.5039
  196DOPC   H3X24303   6.787   0.151   3.916  1.4256 -0.3813 -1.4266
  196DOPC   H3Y24304   6.813  -0.024   3.873 -0.1540 -0.7362  0.6586
  196DOPC   C3424305   6.684   0.016   4.049  0.2219  0.0741  0.0332
  196DOPC   H4X24306   6.621  -0.074   4.033 -1.5839  1.4974 -1.4730
  196DOPC   H4Y24307   6.612   0.093   4.085  1.1660  0.0299  2.1428
  196DOPC   C3524308   6.795  -0.004   4.145  0.0178 -0.1242 -0.6271
  196DOPC   H5X24309   6.848   0.093   4.149 -0.5704  0.4587 -4.1575
  196DOPC   H5Y24310   6.868  -0.075   4.101  0.2853 -0.4598  0.3251
  196DOPC   C3624311   6.757  -0.058   4.281 -0.0099 -0.4222  0.0329
  196DOPC   H6X24312   6.687   0.016   4.324 -1.3020 -1.0889 -0.8577
  196DOPC   H6Y24313   6.692  -0.148   4.268 -0.2429 -0.1896 -0.4269
  196DOPC   C3724314   6.882  -0.084   4.364 -0.5687 -0.2725  0.3066
  196DOPC   H7X24315   6.946  -0.167   4.328  0.6399  0.9301 -0.4064
  196DOPC   H7Y24316   6.957  -0.003   4.358  0.3798 -1.2325 -2.8389
  196DOPC   C3824317   6.854  -0.096   4.515 -0.5460  0.2384 -0.4811
  196DOPC   H8X24318   6.783  -0.022   4.558  1.3452  2.2506 -0.6004
  196DOPC   H8Y24319   6.957  -0.085   4.557  0.1494  1.0678 -2.2639
  196DOPC   C3924320   6.799  -0.232   4.540  0.0673  0.3381  0.1715
  196DOPC   H9X24321   6.691  -0.251   4.528  0.2434  0.5607 -2.1987
  196DOPC  C31024322   6.867  -0.341   4.567 -0.6067 -0.3345  0.2604
  196DOPC  H10X24323   6.820  -0.440   4.574 -0.1731 -0.7563 -2.1067
  196DOPC  C31124324   7.021  -0.339   4.578 -0.0063 -0.3757 -0.0048
  196DOPC  H11X24325   7.053  -0.265   4.654 -0.0160  0.6388 -0.9645
  196DOPC  H11Y24326   7.061  -0.295   4.484 -1.0960 -0.6393 -0.6042
  196DOPC  C31224327   7.090  -0.471   4.615  0.3271 -0.3700  0.4129
  196DOPC  H12X24328   7.035  -0.505   4.706 -1.5348  1.5623  0.0699
  196DOPC  H12Y24329   7.199  -0.452   4.632  0.0693  1.3372  0.3156
  196DOPC  C31324330   7.085  -0.575   4.498  0.2211 -0.5304 -0.6169
  196DOPC  H13X24331   6.979  -0.579   4.465 -0.4670 -0.3943  1.4118
  196DOPC  H13Y24332   7.150  -0.557   4.411  0.3757 -3.3010 -1.1608
  196DOPC  C31424333   7.111  -0.719   4.550  0.1019 -0.5283 -0.2888
  196DOPC  H14X24334   7.091  -0.784   4.462  0.3418 -0.7692 -0.1695
  196DOPC  H14Y24335   7.221  -0.715   4.564  0.2989  1.9047 -1.9567
  196DOPC  C31524336   7.040  -0.760   4.676  0.0099 -0.3591 -0.3354
  196DOPC  H15X24337   6.934  -0.725   4.676 -1.6149 -4.5460 -3.1939
  196DOPC  H15Y24338   7.089  -0.734   4.773 -4.5230  0.4066  2.0390
  196DOPC  C31624339   7.034  -0.915   4.677 -0.3445 -0.8868 -0.8331
  196DOPC  H16X24340   6.972  -0.955   4.594 -0.2003 -1.0475 -0.8634
  196DOPC  H16Y24341   7.140  -0.951   4.674  0.0716  0.2615 -0.4901
  196DOPC  C31724342   6.961  -0.959   4.807  0.1125  0.0368  0.4479
  196DOPC  H17X24343   6.866  -0.902   4.812 -0.2361 -0.4914 -0.0725
  196DOPC  H17Y24344   6.942  -1.068   4.801  1.0431 -0.1094 -0.0273
  196DOPC  C31824345   7.035  -0.947   4.939  0.6314  0.0316 -0.3138
  196DOPC  H18X24346   6.981  -1.001   5.019  1.4198 -0.8830 -0.3673
  196DOPC  H18Y24347   7.129  -1.005   4.926  0.4098  0.0094 -2.0645
  196DOPC  H18Z24348   7.035  -0.839   4.962 -2.0983  0.5257 -2.2181
  197DOPC     N24349   2.487   6.087   3.053  0.4520  0.1850 -0.3886
  197DOPC   C1224350   2.525   5.983   3.163  0.3332  0.4727  0.2427
  197DOPC  H12A24351   2.618   6.012   3.210  0.0969  3.3809 -0.9058
  197DOPC  H12B24352   2.540   5.890   3.111  0.4222 -0.3781  1.7130
  197DOPC   C1324353   2.609   6.100   2.953 -0.3054 -0.4991 -0.3862
  197DOPC  H13A24354   2.593   6.192   2.899  0.6905 -0.4265 -0.5722
  197DOPC  H13B24355   2.698   6.110   3.013 -0.1382  2.5035 -0.9740
  197DOPC  H13C24356   2.610   6.018   2.882 -1.3099 -0.1872 -0.7922
  197DOPC   C1424357   2.471   6.223   3.116  0.4395 -0.7101 -0.0132
  197DOPC  H14A24358   2.467   6.304   3.044  3.2151 -1.9055 -1.7000
  197DOPC  H14B24359   2.387   6.222   3.183  0.0992 -2.7215 -0.3875
  197DOPC  H14C24360   2.553   6.254   3.178 -0.4296 -1.6022  1.6295
  197DOPC   C1524361   2.368   6.053   2.976 -0.1514  0.4393 -0.1748
  197DOPC  H15A24362   2.290   6.037   3.049 -0.8090  2.2583 -0.4336
  197DOPC  H15B24363   2.389   5.969   2.912  0.0864  0.6910 -0.4276
  197DOPC  H15C24364   2.342   6.135   2.911  0.0202  0.6790  0.0567
  197DOPC   C1124365   2.417   5.971   3.273  0.2441 -0.3615  0.4801
  197DOPC  H11A24366   2.442   5.903   3.357 -2.8290 -1.9153  0.3043
  197DOPC  H11B24367   2.397   6.073   3.311 -0.2857 -0.1091 -0.4433
  197DOPC     P24368   2.156   5.959   3.268 -0.2357 -0.4276  0.0788
  197DOPC   O1324369   2.068   5.873   3.188  0.4016 -0.1893  0.1935
  197DOPC   O1424370   2.145   6.104   3.243  0.5574 -0.4236 -0.2338
  197DOPC   O1224371   2.303   5.906   3.223  0.3930  0.1565 -0.0422
  197DOPC   O1124372   2.144   5.928   3.423 -0.4076 -0.4710 -0.2023
  197DOPC    C124373   2.180   5.802   3.475 -0.2407  0.3492  0.5676
  197DOPC    HA24374   2.277   5.811   3.528 -1.9622 -1.1544  4.3361
  197DOPC    HB24375   2.182   5.728   3.392 -0.5056 -0.9318  1.6700
  197DOPC    C224376   2.072   5.748   3.576  0.5073 -0.0376 -1.0351
  197DOPC    HS24377   2.045   5.832   3.643 -1.8093 -0.7532 -0.9804
  197DOPC   O2124378   2.132   5.645   3.651 -0.3702  0.1584 -0.2571
  197DOPC   C2124379   2.070   5.623   3.772 -0.2179 -0.5628 -0.3999
  197DOPC   O2224380   1.966   5.676   3.809  0.1739  0.4075  0.1019
  197DOPC   C2224381   2.152   5.526   3.850 -0.3911  0.1858  0.0613
  197DOPC   H2R24382   2.243   5.496   3.794  0.3923 -1.1005  1.8978
  197DOPC   H2S24383   2.089   5.436   3.859 -0.9482  0.7151  1.9417
  197DOPC    C324384   1.953   5.689   3.498 -0.1448  0.2185  0.2109
  197DOPC    HX24385   1.973   5.583   3.473 -0.6480  0.6757 -2.5364
  197DOPC    HY24386   1.954   5.740   3.399 -2.1944 -0.0335  0.0231
  197DOPC   O3124387   1.823   5.711   3.559 -0.0629 -0.2074  0.1508
  197DOPC   C3124388   1.726   5.633   3.505 -0.2301 -0.3031 -0.4049
  197DOPC   O3224389   1.741   5.583   3.394  0.7913  0.3382 -0.2004
  197DOPC   C3224390   1.606   5.637   3.604 -0.1863  0.5016  0.3073
  197DOPC   H2X24391   1.647   5.598   3.699  0.4128 -2.9052 -1.1852
  197DOPC   H2Y24392   1.574   5.743   3.611 -1.4866  0.2320 -0.9001
  197DOPC   C2324393   2.197   5.569   3.987  0.1549  0.2089  0.1721
  197DOPC   H3R24394   2.235   5.674   3.980  0.8035  0.0894  1.4800
  197DOPC   H3S24395   2.272   5.509   4.043 -2.4958 -0.5732  3.2392
  197DOPC   C2424396   2.079   5.589   4.092 -0.7082  0.4847  0.2441
  197DOPC   H4R24397   1.988   5.533   4.061 -0.6957 -0.5107  1.9142
  197DOPC   H4S24398   2.049   5.696   4.082  2.5780  1.4889 -0.0543
  197DOPC   C2524399   2.138   5.565   4.232 -0.8919 -0.7972 -0.6219
  197DOPC   H5R24400   2.243   5.598   4.244 -0.8970 -1.5898  2.2561
  197DOPC   H5S24401   2.141   5.454   4.245  1.7868 -0.7694 -0.5247
  197DOPC   C2624402   2.039   5.610   4.342  0.0827 -0.3596 -0.1104
  197DOPC   H6R24403   1.936   5.570   4.328 -0.6320  0.7607  1.6325
  197DOPC   H6S24404   2.022   5.718   4.325  3.6496  0.7689  2.4510
  197DOPC   C2724405   2.086   5.589   4.485  0.2913  0.1237  0.4161
  197DOPC   H7R24406   2.192   5.622   4.500  0.0701  0.8281  0.4718
  197DOPC   H7S24407   2.080   5.481   4.510 -1.1290  0.6927  2.8492
  197DOPC   C2824408   1.992   5.670   4.576  0.0893 -0.2298 -0.3982
  197DOPC   H8R24409   1.996   5.775   4.540  1.5726 -0.2618 -0.3944
  197DOPC   H8S24410   2.033   5.672   4.679  0.6508 -1.8112 -0.5561
  197DOPC   C2924411   1.853   5.607   4.584 -0.0318 -0.6881  0.3410
  197DOPC   H9R24412   1.847   5.511   4.638 -0.8702  0.0203  1.5398
  197DOPC  C21024413   1.736   5.661   4.550  0.7044 -0.6748  0.3975
  197DOPC  H10R24414   1.642   5.607   4.569  0.6830 -1.0100 -0.6163
  197DOPC  C21124415   1.723   5.802   4.491  0.0088 -0.3550 -0.6053
  197DOPC  H11R24416   1.634   5.813   4.426 -0.4554  2.5629  0.3848
  197DOPC  H11S24417   1.802   5.822   4.415  1.2977 -0.3698  0.6883
  197DOPC  C21224418   1.725   5.915   4.599 -0.3983 -0.7592 -0.0032
  197DOPC  H12R24419   1.815   5.905   4.664  0.3903 -2.0353 -1.2386
  197DOPC  H12S24420   1.635   5.884   4.657  0.9099 -1.2852  1.8476
  197DOPC  C21324421   1.716   6.058   4.550  0.6025  0.5112 -0.5597
  197DOPC  H13R24422   1.812   6.082   4.500 -0.5136 -0.2071 -3.2478
  197DOPC  H13S24423   1.701   6.118   4.642  0.2022 -0.8018  0.2549
  197DOPC  C21424424   1.603   6.092   4.449  0.1888  0.6861 -0.5562
  197DOPC  H14R24425   1.590   6.017   4.368  0.8818 -0.8407  0.6849
  197DOPC  H14S24426   1.636   6.179   4.389 -2.5565  1.5862 -0.8992
  197DOPC  C21524427   1.471   6.140   4.519  0.8702  0.6817  0.0670
  197DOPC  H15R24428   1.490   6.213   4.601  2.1448 -1.4150  1.7586
  197DOPC  H15S24429   1.423   6.054   4.571 -0.0494  1.6374  0.8534
  197DOPC  C21624430   1.358   6.189   4.424  0.4243 -1.1561  0.1953
  197DOPC  H16R24431   1.358   6.133   4.328  0.0569 -0.5180 -0.1803
  197DOPC  H16S24432   1.396   6.286   4.385  3.8584 -2.6414 -0.5607
  197DOPC  C21724433   1.215   6.204   4.496  0.3965  0.4622  0.0920
  197DOPC  H17R24434   1.179   6.103   4.525 -1.7449  0.9872 -0.4945
  197DOPC  H17S24435   1.150   6.237   4.412  0.7251 -1.6226 -1.0780
  197DOPC  C21824436   1.203   6.295   4.616  0.3164  0.3485 -1.2343
  197DOPC  H18R24437   1.271   6.266   4.700  0.5667  4.0392  0.0287
  197DOPC  H18S24438   1.100   6.287   4.658  1.2881 -0.3461  1.2467
  197DOPC  H18T24439   1.214   6.402   4.589 -0.0635  0.6278 -0.3400
  197DOPC   C3324440   1.488   5.548   3.564  0.8243 -0.0902  0.0187
  197DOPC   H3X24441   1.512   5.440   3.552 -0.2258 -0.4496  0.8989
  197DOPC   H3Y24442   1.456   5.595   3.469  0.5683  1.4059  0.8047
  197DOPC   C3424443   1.363   5.560   3.657 -0.3879 -0.6479 -0.5780
  197DOPC   H4X24444   1.274   5.517   3.607 -0.2584 -1.2003 -0.3374
  197DOPC   H4Y24445   1.339   5.667   3.675 -0.8713 -1.3036  3.9327
  197DOPC   C3524446   1.374   5.493   3.793 -0.9410  0.4594  0.0552
  197DOPC   H5X24447   1.453   5.536   3.858 -0.9593 -0.6219  0.8218
  197DOPC   H5Y24448   1.410   5.389   3.774  0.3523  1.0500 -0.9111
  197DOPC   C3624449   1.245   5.500   3.867 -0.2778  0.4751  0.1053
  197DOPC   H6X24450   1.230   5.609   3.881  1.2092  0.7743 -0.4383
  197DOPC   H6Y24451   1.163   5.448   3.812  0.1855  1.1846 -1.3242
  197DOPC   C3724452   1.249   5.435   4.004  0.2537  0.2042  0.4865
  197DOPC   H7X24453   1.309   5.341   4.002  0.3997  0.2864  0.8241
  197DOPC   H7Y24454   1.312   5.507   4.061  0.2490  0.4213  0.2155
  197DOPC   C3824455   1.115   5.398   4.061 -0.2593 -0.5483  0.0684
  197DOPC   H8X24456   1.068   5.313   4.007  1.1697 -0.6850 -1.0255
  197DOPC   H8Y24457   1.053   5.490   4.048  1.7242  1.3333  2.7339
  197DOPC   C3924458   1.139   5.355   4.204 -0.6852 -0.2466 -0.0925
  197DOPC   H9X24459   1.180   5.253   4.218 -1.7530 -0.6900 -0.0663
  197DOPC  C31024460   1.114   5.431   4.313 -0.1114 -0.2479  0.6932
  197DOPC  H10X24461   1.152   5.404   4.412  1.9769  0.5960  0.1590
  197DOPC  C31124462   1.058   5.568   4.305 -0.0213 -0.1617 -0.0951
  197DOPC  H11X24463   0.953   5.574   4.342 -0.9158 -1.5044 -2.2102
  197DOPC  H11Y24464   1.042   5.603   4.201 -3.8679 -0.3949  0.2603
  197DOPC  C31224465   1.140   5.676   4.376 -0.9462 -0.3695 -0.0800
  197DOPC  H12X24466   1.095   5.775   4.355 -1.2729 -0.6620 -0.8044
  197DOPC  H12Y24467   1.240   5.672   4.327 -0.4460 -3.2984  0.9562
  197DOPC  C31324468   1.157   5.655   4.526 -0.1998 -0.0481  0.2394
  197DOPC  H13X24469   1.064   5.638   4.584 -1.0695  3.1541 -0.0274
  197DOPC  H13Y24470   1.217   5.562   4.530 -0.6083 -0.3807 -0.8449
  197DOPC  C31424471   1.247   5.760   4.593  0.2528 -0.2452 -0.4252
  197DOPC  H14X24472   1.339   5.759   4.531  0.6319  1.4666  0.0495
  197DOPC  H14Y24473   1.203   5.862   4.585 -1.4896 -0.9823 -0.8200
  197DOPC  C31524474   1.278   5.725   4.749  0.1923  0.3626  0.0155
  197DOPC  H15X24475   1.182   5.708   4.803 -1.1020 -0.4595 -2.3836
  197DOPC  H15Y24476   1.312   5.819   4.797 -0.2335  0.4485  0.1537
  197DOPC  C31624477   1.376   5.606   4.775  0.6905 -0.1480 -0.3151
  197DOPC  H16X24478   1.315   5.526   4.823 -1.4368  1.8317  0.4588
  197DOPC  H16Y24479   1.415   5.564   4.680  0.4040 -2.3563  0.4882
  197DOPC  C31724480   1.492   5.649   4.868  0.2793  0.5972 -0.0156
  197DOPC  H17X24481   1.571   5.701   4.809  0.1622  1.0195  0.1929
  197DOPC  H17Y24482   1.445   5.723   4.936 -2.1174 -0.0527 -0.8944
  197DOPC  C31824483   1.548   5.538   4.951 -0.2626  0.8979  0.0561
  197DOPC  H18X24484   1.635   5.574   5.011  0.1904 -2.1220  1.4255
  197DOPC  H18Y24485   1.477   5.488   5.020  0.4134  1.0420  0.8664
  197DOPC  H18Z24486   1.597   5.460   4.888 -1.3948 -1.1963  1.6149
  198DOPC     N24487   5.870   0.125   2.404  0.2205 -0.3852 -0.7539
  198DOPC   C1224488   5.749   0.035   2.435 -0.8853 -0.2648  0.5180
  198DOPC  H12A24489   5.798  -0.061   2.444 -0.1128  0.0177 -0.3961
  198DOPC  H12B24490   5.678   0.030   2.353 -2.1735  0.5322  1.5573
  198DOPC   C1324491   5.918   0.083   2.272  0.1417  0.1471 -0.0829
  198DOPC  H13A24492   5.971  -0.009   2.291  0.1796  0.3007  0.6157
  198DOPC  H13B24493   5.842   0.073   2.197 -0.4786  1.3340  0.3485
  198DOPC  H13C24494   5.992   0.154   2.237  0.2724 -0.1983 -0.5099
  198DOPC   C1424495   5.978   0.111   2.514  0.6718 -0.4949  0.2063
  198DOPC  H14A24496   6.038   0.201   2.511 -0.0909  0.0298  0.3978
  198DOPC  H14B24497   5.938   0.096   2.613  1.2595 -2.0432  0.2343
  198DOPC  H14C24498   6.033   0.019   2.503  1.4226  0.0368 -0.7320
  198DOPC   C1524499   5.841   0.274   2.411 -0.3396 -0.0699  0.3283
  198DOPC  H15A24500   5.826   0.313   2.510  0.7060  4.3485 -1.0241
  198DOPC  H15B24501   5.756   0.302   2.350  1.0439  1.2330 -1.1068
  198DOPC  H15C24502   5.918   0.335   2.366  0.3663 -1.0865  0.1170
  198DOPC   C1124503   5.669   0.058   2.559  0.2366 -0.1053  0.3351
  198DOPC  H11A24504   5.671   0.165   2.586  2.1538 -0.1489  0.4591
  198DOPC  H11B24505   5.566   0.026   2.530  0.4930  0.0208 -0.7494
  198DOPC     P24506   5.681  -0.153   2.717  0.0292 -0.3599  0.0731
  198DOPC   O1324507   5.795  -0.224   2.774 -0.4143  0.6959 -0.0696
  198DOPC   O1424508   5.607  -0.218   2.607 -0.8347  0.1552 -0.3717
  198DOPC   O1224509   5.730  -0.016   2.666  0.4332  0.4180 -0.4315
  198DOPC   O1124510   5.581  -0.115   2.836 -0.5053  1.0628 -0.7221
  198DOPC    C124511   5.565   0.012   2.895  0.7575  0.4419 -0.3441
  198DOPC    HA24512   5.458   0.035   2.918  1.2964  0.3114  2.7795
  198DOPC    HB24513   5.604   0.099   2.839 -0.4804  1.3948  0.2191
  198DOPC    C224514   5.641   0.012   3.029  0.3555 -0.0451  0.1426
  198DOPC    HS24515   5.750   0.013   3.008  0.4221  1.0791  0.4728
  198DOPC   O2124516   5.597  -0.105   3.106 -0.3114  0.8462 -0.3320
  198DOPC   C2124517   5.682  -0.145   3.201  0.1217  0.1097 -0.0445
  198DOPC   O2224518   5.797  -0.107   3.215  0.3048  0.7964 -0.5107
  198DOPC   C2224519   5.617  -0.259   3.284 -0.0828 -0.2031 -0.3245
  198DOPC   H2R24520   5.673  -0.351   3.259 -0.0057 -0.7048  1.5576
  198DOPC   H2S24521   5.509  -0.261   3.260 -0.2938  1.3552  0.3638
  198DOPC    C324522   5.608   0.147   3.109 -0.9679 -0.0716 -0.0805
  198DOPC    HX24523   5.497   0.145   3.118 -0.8914 -0.4071  0.9115
  198DOPC    HY24524   5.633   0.226   3.035 -0.4844 -0.0644  0.0861
  198DOPC   O3124525   5.675   0.165   3.237  0.2477  0.3165  0.0937
  198DOPC   C3124526   5.791   0.217   3.234  0.3486  0.3271 -0.4644
  198DOPC   O3224527   5.867   0.227   3.141  0.1541 -0.2090  0.3438
  198DOPC   C3224528   5.817   0.264   3.374 -0.1257 -0.8852  0.5306
  198DOPC   H2X24529   5.927   0.280   3.384 -0.3138  0.0887  1.1569
  198DOPC   H2Y24530   5.768   0.364   3.377 -0.1728 -0.8379 -0.9679
  198DOPC   C2324531   5.632  -0.224   3.434  0.5953 -0.0399 -0.7616
  198DOPC   H3R24532   5.564  -0.138   3.456  0.2770 -0.4563 -0.0834
  198DOPC   H3S24533   5.734  -0.182   3.449  0.6270  0.7667 -2.8401
  198DOPC   C2424534   5.601  -0.329   3.535  0.4247  0.1157  0.4729
  198DOPC   H4R24535   5.651  -0.426   3.512 -0.2722 -0.2817  0.5922
  198DOPC   H4S24536   5.493  -0.358   3.533  0.6087 -0.5654 -0.2518
  198DOPC   C2524537   5.649  -0.297   3.679  0.5477  0.3798  0.4312
  198DOPC   H5R24538   5.607  -0.205   3.726  0.9493  0.4945  0.5708
  198DOPC   H5S24539   5.758  -0.273   3.678  0.0948  3.3263  3.2540
  198DOPC   C2624540   5.616  -0.408   3.776 -0.3376 -0.2204  0.0681
  198DOPC   H6R24541   5.653  -0.510   3.755  0.1245 -0.8211  3.3085
  198DOPC   H6S24542   5.508  -0.429   3.791 -1.1436  1.4262 -2.6068
  198DOPC   C2724543   5.675  -0.376   3.912 -0.5022  0.1127 -0.2052
  198DOPC   H7R24544   5.658  -0.273   3.950  0.8086 -0.6356  2.7098
  198DOPC   H7S24545   5.783  -0.401   3.915 -0.4518  0.3649  0.1632
  198DOPC   C2824546   5.601  -0.460   4.013  0.6424  0.0752  0.0339
  198DOPC   H8R24547   5.629  -0.560   3.974  0.8508  0.7508 -1.6461
  198DOPC   H8S24548   5.490  -0.454   4.014  0.5575 -0.8145 -1.4132
  198DOPC   C2924549   5.666  -0.438   4.152  0.1022  0.0986 -0.1340
  198DOPC   H9R24550   5.686  -0.333   4.176  1.2197 -0.5306  1.9303
  198DOPC  C21024551   5.691  -0.535   4.247 -0.0858 -0.2468  0.9079
  198DOPC  H10R24552   5.737  -0.505   4.342  1.6560 -2.2398  0.7630
  198DOPC  C21124553   5.664  -0.680   4.231 -0.1528  0.1187 -0.6440
  198DOPC  H11R24554   5.758  -0.736   4.250  0.7877  2.0392  0.8217
  198DOPC  H11S24555   5.632  -0.704   4.128  1.6725 -0.3547 -1.1398
  198DOPC  C21224556   5.554  -0.742   4.323 -0.1114  0.1721  0.1021
  198DOPC  H12R24557   5.533  -0.845   4.285  0.3540 -0.1055  0.5910
  198DOPC  H12S24558   5.462  -0.685   4.299 -0.8533 -1.7197 -1.9158
  198DOPC  C21324559   5.592  -0.729   4.470  0.4787  0.4473  0.4986
  198DOPC  H13R24560   5.600  -0.620   4.492 -0.3973  0.7987 -0.8515
  198DOPC  H13S24561   5.690  -0.772   4.500 -0.8654 -1.5885  2.2623
  198DOPC  C21424562   5.495  -0.785   4.575  0.2608 -0.0133 -0.3923
  198DOPC  H14R24563   5.518  -0.890   4.602 -2.6561 -0.6291  0.0616
  198DOPC  H14S24564   5.398  -0.793   4.521 -1.9534  2.1639  2.9403
  198DOPC  C21524565   5.473  -0.698   4.699 -0.6238  0.0233  0.4523
  198DOPC  H15R24566   5.433  -0.603   4.657  0.1336  0.2397  0.1874
  198DOPC  H15S24567   5.566  -0.667   4.752  0.7445 -0.1318 -1.7333
  198DOPC  C21624568   5.363  -0.759   4.785  0.0338  0.9200  0.1273
  198DOPC  H16R24569   5.292  -0.822   4.727  0.8621  0.9037 -0.8780
  198DOPC  H16S24570   5.297  -0.688   4.841 -0.6243 -0.4711  1.1791
  198DOPC  C21724571   5.426  -0.849   4.893  0.5011 -0.5705 -0.4660
  198DOPC  H17R24572   5.466  -0.777   4.967  1.5256  0.5090 -1.9967
  198DOPC  H17S24573   5.518  -0.896   4.850  1.0316 -0.7087  0.7769
  198DOPC  C21824574   5.331  -0.954   4.941 -0.0243 -0.2999 -0.0202
  198DOPC  H18R24575   5.243  -0.897   4.979 -1.1637 -1.6279 -0.6262
  198DOPC  H18S24576   5.381  -1.008   5.024  1.2860  1.0080  0.0813
  198DOPC  H18T24577   5.298  -1.028   4.865  0.9757 -0.9284  0.1376
  198DOPC   C3324578   5.769   0.158   3.484  0.2289  0.0954 -0.3071
  198DOPC   H3X24579   5.810   0.058   3.460 -0.8712 -0.0406 -1.7960
  198DOPC   H3Y24580   5.659   0.147   3.473  0.2008  1.9605 -3.1570
  198DOPC   C3424581   5.805   0.199   3.629 -0.0201  1.0328 -0.2653
  198DOPC   H4X24582   5.780   0.306   3.643  0.0072  1.0800 -0.5844
  198DOPC   H4Y24583   5.915   0.189   3.643  0.1833  0.7373 -1.9022
  198DOPC   C3524584   5.724   0.123   3.734  0.2611  0.2579  0.4110
  198DOPC   H5X24585   5.692   0.028   3.686  1.6417  0.3857 -0.8159
  198DOPC   H5Y24586   5.636   0.185   3.761  0.3078  1.1985 -1.4352
  198DOPC   C3624587   5.809   0.078   3.859  0.0556  0.3949 -0.4004
  198DOPC   H6X24588   5.877  -0.001   3.824  0.3601  1.0770 -1.3850
  198DOPC   H6Y24589   5.870   0.165   3.891  0.7353  0.4751 -1.8592
  198DOPC   C3724590   5.729   0.037   3.983 -0.2496 -0.4428 -0.1060
  198DOPC   H7X24591   5.643   0.103   4.012 -0.7444 -1.0503 -0.1722
  198DOPC   H7Y24592   5.686  -0.063   3.960  1.6437 -1.4611  0.5977
  198DOPC   C3824593   5.811   0.016   4.110  0.2715 -0.0521 -0.6878
  198DOPC   H8X24594   5.904  -0.045   4.097  0.4169  0.2288 -0.9755
  198DOPC   H8Y24595   5.738  -0.041   4.171  1.6504 -0.8081  0.3309
  198DOPC   C3924596   5.847   0.152   4.174  1.1794 -0.0109 -0.0453
  198DOPC   H9X24597   5.897   0.221   4.105 -0.7275  1.4108 -0.0806
  198DOPC  C31024598   5.826   0.190   4.303 -0.5567  0.1493  0.3040
  198DOPC  H10X24599   5.857   0.289   4.339  1.0187 -0.5818  1.0825
  198DOPC  C31124600   5.771   0.112   4.414  0.2713 -0.0237  0.4602
  198DOPC  H11X24601   5.810   0.140   4.515  0.5931  1.8149 -0.1281
  198DOPC  H11Y24602   5.801   0.005   4.405  0.9604  0.2143 -0.1950
  198DOPC  C31224603   5.621   0.123   4.425  0.3461  0.0101 -0.3245
  198DOPC  H12X24604   5.576   0.079   4.333 -0.0528  0.8294 -0.5339
  198DOPC  H12Y24605   5.592   0.231   4.427  2.1211  0.5129  1.7637
  198DOPC  C31324606   5.569   0.061   4.553 -0.0652  0.2640  0.6111
  198DOPC  H13X24607   5.629   0.109   4.633  0.5138 -1.9158  1.5530
  198DOPC  H13Y24608   5.460   0.073   4.570  0.1181  0.8045  1.4536
  198DOPC  C31424609   5.601  -0.094   4.570  0.3594 -1.2599 -0.2960
  198DOPC  H14X24610   5.710  -0.107   4.585  0.5406  0.5215  0.1610
  198DOPC  H14Y24611   5.542  -0.131   4.657  1.8035 -0.5795  1.0172
  198DOPC  C31524612   5.568  -0.177   4.451 -0.0819  0.3976 -0.2649
  198DOPC  H15X24613   5.588  -0.284   4.473  0.4832  0.5183 -0.1788
  198DOPC  H15Y24614   5.646  -0.158   4.374 -0.2380 -0.8761 -0.7670
  198DOPC  C31624615   5.427  -0.153   4.387 -0.4337 -0.2160 -0.6590
  198DOPC  H16X24616   5.353  -0.167   4.469  2.0984 -0.3818  1.7314
  198DOPC  H16Y24617   5.429  -0.052   4.341 -0.5831 -0.0634 -0.3297
  198DOPC  C31724618   5.375  -0.248   4.286 -0.0814  0.2186  0.2491
  198DOPC  H17X24619   5.281  -0.208   4.244 -0.2774  0.4682  0.9145
  198DOPC  H17Y24620   5.434  -0.247   4.192 -0.7253  1.7343 -0.1721
  198DOPC  C31824621   5.349  -0.391   4.333  0.5283  0.6336 -0.7892
  198DOPC  H18X24622   5.307  -0.458   4.255  0.8895  0.3017 -0.7025
  198DOPC  H18Y24623   5.445  -0.445   4.341  1.2445  1.8846 -0.7489
  198DOPC  H18Z24624   5.287  -0.389   4.426  1.3695  0.1484 -0.2078
  199DOPC     N24625   4.768   1.004   3.191 -0.7454 -0.8526  0.1192
  199DOPC   C1224626   4.814   0.893   3.279 -0.0916 -0.3497 -0.0659
  199DOPC  H12A24627   4.778   0.796   3.248  0.0797 -0.6387  0.6060
  199DOPC  H12B24628   4.772   0.911   3.377  1.1525 -0.2788  0.4761
  199DOPC   C1324629   4.621   1.006   3.187  0.1253 -0.2798 -0.4699
  199DOPC  H13A24630   4.578   1.084   3.126 -0.5761  1.0091  1.5584
  199DOPC  H13B24631   4.588   0.907   3.160  1.2268 -0.4764 -1.1773
  199DOPC  H13C24632   4.573   1.030   3.281 -0.1388  0.8183 -0.8738
  199DOPC   C1424633   4.819   0.972   3.050  0.0423 -0.4638  0.0506
  199DOPC  H14A24634   4.755   0.894   3.012 -1.4423  0.1551  1.1728
  199DOPC  H14B24635   4.809   1.057   2.983  2.5249 -0.0521  0.0939
  199DOPC  H14C24636   4.926   0.957   3.056  0.0393 -0.8887 -0.7575
  199DOPC   C1524637   4.834   1.138   3.227  1.0671 -0.2349  0.2806
  199DOPC  H15A24638   4.941   1.141   3.239  1.2093  1.4114 -1.0003
  199DOPC  H15B24639   4.790   1.166   3.321  2.1487 -2.7397  1.6234
  199DOPC  H15C24640   4.795   1.211   3.157 -2.7554 -1.6105  0.7437
  199DOPC   C1124641   4.969   0.873   3.299 -0.0954  0.3724  0.0607
  199DOPC  H11A24642   5.026   0.965   3.326 -0.2322  0.6220 -0.4890
  199DOPC  H11B24643   4.966   0.808   3.389  1.0548 -2.0097 -1.5310
  199DOPC     P24644   5.041   0.657   3.161  0.0419 -0.0222 -0.2143
  199DOPC   O1324645   5.060   0.635   3.015 -0.6605 -0.0855  0.1678
  199DOPC   O1424646   4.921   0.602   3.228 -0.2166 -0.3657 -0.1562
  199DOPC   O1224647   5.037   0.816   3.186  0.1864  0.2513 -0.6901
  199DOPC   O1124648   5.166   0.619   3.249  0.0253  0.4962 -0.0435
  199DOPC    C124649   5.159   0.492   3.327 -0.5231  0.8744  0.4572
  199DOPC    HA24650   5.262   0.452   3.328 -0.7922  0.1162 -0.5807
  199DOPC    HB24651   5.090   0.415   3.287  0.2166 -0.4870  1.7383
  199DOPC    C224652   5.131   0.515   3.477 -0.2193 -0.5299  0.3618
  199DOPC    HS24653   5.034   0.568   3.486 -0.2857  0.1724 -3.0818
  199DOPC   O2124654   5.249   0.578   3.535 -0.3223  0.1123  0.3982
  199DOPC   C2124655   5.224   0.684   3.602  0.1735  0.3354  0.7882
  199DOPC   O2224656   5.118   0.728   3.632  0.0951  0.3324 -0.7094
  199DOPC   C2224657   5.357   0.750   3.641 -0.2442  0.3199  0.4721
  199DOPC   H2R24658   5.415   0.744   3.547 -1.2112 -1.4071 -0.0546
  199DOPC   H2S24659   5.420   0.688   3.708  1.3944 -0.3193 -1.5622
  199DOPC    C324660   5.104   0.378   3.554  0.2977  0.6435  0.3280
  199DOPC    HX24661   5.190   0.310   3.538 -1.3642 -1.0007 -2.6531
  199DOPC    HY24662   5.016   0.331   3.505 -1.2542  2.1020  1.6078
  199DOPC   O3124663   5.085   0.396   3.696  0.2300 -0.0863 -0.0871
  199DOPC   C3124664   4.960   0.437   3.732  0.9071 -0.5740  0.1136
  199DOPC   O3224665   4.867   0.450   3.651  0.3981  0.6478  0.6992
  199DOPC   C3224666   4.949   0.486   3.873 -0.3396  0.0188  0.8420
  199DOPC   H2X24667   4.968   0.402   3.944  1.3527  1.3074  2.0160
  199DOPC   H2Y24668   5.025   0.567   3.884 -1.0131  0.9756 -1.0918
  199DOPC   C2324669   5.350   0.904   3.672  0.1559 -0.5811  0.6803
  199DOPC   H3R24670   5.289   0.922   3.763 -1.0219  0.6804 -0.3002
  199DOPC   H3S24671   5.294   0.950   3.587  1.3313  0.6796  0.5572
  199DOPC   C2424672   5.482   0.971   3.684  0.1566 -0.2021 -0.4293
  199DOPC   H4R24673   5.465   1.081   3.695  1.5887  0.0326 -0.4427
  199DOPC   H4S24674   5.543   0.958   3.592 -0.8279  1.1142 -1.3032
  199DOPC   C2524675   5.553   0.925   3.805 -0.9378  0.0852 -0.5754
  199DOPC   H5R24676   5.596   0.824   3.786  1.2560  1.2002 -1.9916
  199DOPC   H5S24677   5.482   0.923   3.890 -1.4889  0.6395 -1.0116
  199DOPC   C2624678   5.654   1.024   3.869  0.3788 -0.2591  0.3959
  199DOPC   H6R24679   5.601   1.118   3.897 -0.2623 -0.0951 -1.2437
  199DOPC   H6S24680   5.721   1.048   3.784 -1.4238  1.1532 -0.7113
  199DOPC   C2724681   5.729   0.972   3.987  0.5148  0.5512  0.2038
  199DOPC   H7R24682   5.801   1.048   4.024 -0.7880  1.6982  0.4556
  199DOPC   H7S24683   5.786   0.883   3.952  1.5542  0.8441  1.0849
  199DOPC   C2824684   5.630   0.941   4.100  0.5100 -0.0761  0.0453
  199DOPC   H8R24685   5.589   0.841   4.074 -0.2107  0.0690  0.5681
  199DOPC   H8S24686   5.553   1.021   4.106 -0.0964 -0.6272 -0.3326
  199DOPC   C2924687   5.691   0.950   4.238  0.3427  0.3916 -0.1823
  199DOPC   H9R24688   5.676   1.044   4.293 -1.3713  1.1032 -1.7486
  199DOPC  C21024689   5.779   0.859   4.283 -0.2449  1.0524  0.4304
  199DOPC  H10R24690   5.811   0.859   4.388  0.2674 -2.7314  0.3986
  199DOPC  C21124691   5.833   0.730   4.219  0.5354  0.4753  0.0925
  199DOPC  H11R24692   5.808   0.733   4.111  1.3120 -1.3588 -0.1761
  199DOPC  H11S24693   5.775   0.646   4.264  1.0191  0.6132  1.0014
  199DOPC  C21224694   5.982   0.700   4.236 -0.3168 -0.1200  0.5333
  199DOPC  H12R24695   6.018   0.605   4.193  1.0144  1.2148 -1.4909
  199DOPC  H12S24696   6.006   0.717   4.344 -1.8141  2.9109  0.5001
  199DOPC  C21324697   6.072   0.813   4.168  0.8594 -0.1638 -0.1632
  199DOPC  H13R24698   6.038   0.910   4.211 -0.8269 -0.3213 -1.0613
  199DOPC  H13S24699   6.044   0.820   4.061 -1.2514  1.5884  0.4381
  199DOPC  C21424700   6.228   0.797   4.189  0.5837  0.0102 -0.1641
  199DOPC  H14R24701   6.273   0.885   4.138  0.2962  1.7224  2.3194
  199DOPC  H14S24702   6.265   0.706   4.138  0.5025 -1.5384  2.3857
  199DOPC  C21524703   6.274   0.798   4.338 -0.3144  0.4516 -0.3735
  199DOPC  H15R24704   6.385   0.798   4.339 -0.2608 -1.7203 -1.0082
  199DOPC  H15S24705   6.236   0.705   4.385 -1.8746  1.3761  0.2708
  199DOPC  C21624706   6.243   0.931   4.408 -0.5460 -0.2503 -0.2454
  199DOPC  H16R24707   6.230   0.906   4.516  0.4236 -2.8312 -0.6424
  199DOPC  H16S24708   6.145   0.975   4.379 -0.6436  0.3288  0.9114
  199DOPC  C21724709   6.341   1.039   4.383 -0.0095  0.0264 -0.0616
  199DOPC  H17R24710   6.331   1.070   4.276 -3.1849  1.4929  0.5365
  199DOPC  H17S24711   6.442   0.998   4.401 -0.9288 -2.0929  0.5277
  199DOPC  C21824712   6.316   1.166   4.467  0.2622  0.1895 -0.1073
  199DOPC  H18R24713   6.398   1.239   4.454  1.3183 -0.9670 -0.1640
  199DOPC  H18S24714   6.309   1.140   4.575  0.4952  0.2674 -0.0740
  199DOPC  H18T24715   6.218   1.214   4.444 -0.5707 -1.9647 -1.4406
  199DOPC   C3324716   4.814   0.555   3.906  0.5595 -0.6815  0.1180
  199DOPC   H3X24717   4.738   0.475   3.925 -1.1433  1.0945  1.1900
  199DOPC   H3Y24718   4.778   0.625   3.827 -1.1058  0.1922  1.5714
  199DOPC   C3424719   4.823   0.640   4.034  0.1688 -0.7055 -0.0284
  199DOPC   H4X24720   4.908   0.710   4.021 -1.0669  1.1612  1.3977
  199DOPC   H4Y24721   4.837   0.572   4.120 -0.7771  0.1430  0.8242
  199DOPC   C3524722   4.689   0.719   4.042 -0.1989 -0.5936  0.0097
  199DOPC   H5X24723   4.607   0.644   4.032 -1.1378  0.6386 -2.2854
  199DOPC   H5Y24724   4.694   0.795   3.962  3.5070  0.0041  0.6439
  199DOPC   C3624725   4.670   0.784   4.180  0.1073  0.8619 -0.0835
  199DOPC   H6X24726   4.678   0.697   4.249 -0.3331 -0.0813 -1.2005
  199DOPC   H6Y24727   4.752   0.852   4.213  0.9632 -0.2451  0.1364
  199DOPC   C3724728   4.524   0.847   4.193  0.1598  0.0102  0.4442
  199DOPC   H7X24729   4.515   0.924   4.113  1.4665  0.8955  1.1147
  199DOPC   H7Y24730   4.466   0.755   4.172  1.2834 -0.6931  0.3240
  199DOPC   C3824731   4.503   0.897   4.334  0.0961 -0.0530 -0.3665
  199DOPC   H8X24732   4.533   1.003   4.348 -0.6703 -0.0373  1.3768
  199DOPC   H8Y24733   4.569   0.839   4.401 -1.7387  1.0673  2.6379
  199DOPC   C3924734   4.363   0.870   4.401 -1.0261 -0.4281  0.5612
  199DOPC   H9X24735   4.287   0.823   4.337 -1.1650  0.8502 -0.2628
  199DOPC  C31024736   4.336   0.880   4.531  0.7668 -0.0043 -0.4358
  199DOPC  H10X24737   4.239   0.837   4.561  0.5156  0.2907 -0.8007
  199DOPC  C31124738   4.414   0.917   4.658 -0.0927  0.8703  0.9260
  199DOPC  H11X24739   4.425   0.816   4.703  0.6608 -0.9609 -2.8946
  199DOPC  H11Y24740   4.337   0.975   4.712 -0.6996 -0.4285  1.5084
  199DOPC  C31224741   4.555   0.983   4.651  0.7955  0.1126  0.2217
  199DOPC  H12X24742   4.528   1.074   4.594  2.0470  0.3819  0.0449
  199DOPC  H12Y24743   4.624   0.918   4.594  0.7661  1.9675 -2.0847
  199DOPC  C31324744   4.614   1.035   4.786 -0.2372 -0.1563  0.2223
  199DOPC  H13X24745   4.599   0.974   4.877 -1.6955 -1.7328 -1.0026
  199DOPC  H13Y24746   4.724   1.047   4.772  0.0060  0.7676  2.4836
  199DOPC  C31424747   4.578   1.179   4.820 -0.1966  0.6292 -0.3456
  199DOPC  H14X24748   4.623   1.251   4.748  0.3353  0.3318 -0.3119
  199DOPC  H14Y24749   4.469   1.200   4.815 -0.2168  0.5341 -0.3018
  199DOPC  C31524750   4.623   1.226   4.954 -0.0029  0.1306 -0.1060
  199DOPC  H15X24751   4.730   1.200   4.965  0.2628  1.4433  0.6542
  199DOPC  H15Y24752   4.584   1.170   5.041 -0.0082  1.1368  0.5635
  199DOPC  C31624753   4.599   1.379   4.970  0.0017  0.0329 -0.3823
  199DOPC  H16X24754   4.603   1.424   4.869 -1.8899  2.8422  0.6883
  199DOPC  H16Y24755   4.497   1.389   5.014 -0.2869 -0.4872 -0.9222
  199DOPC  C31724756   4.699   1.447   5.068 -0.0823  0.2633  0.1918
  199DOPC  H17X24757   4.690   1.415   5.174  0.1542  1.1132  0.4750
  199DOPC  H17Y24758   4.802   1.413   5.046 -0.5900 -0.1304 -1.7850
  199DOPC  C31824759   4.704   1.593   5.058 -0.4384 -0.6553 -0.3869
  199DOPC  H18X24760   4.764   1.632   4.974 -0.6975 -2.1851 -1.3143
  199DOPC  H18Y24761   4.601   1.636   5.054 -0.6896 -1.2367 -0.2484
  199DOPC  H18Z24762   4.739   1.638   5.154 -0.1306  1.7244 -1.5402
  200DOPC     N24763   1.131   6.283   2.490  0.2615 -0.5122  0.2172
  200DOPC   C1224764   0.992   6.222   2.468  0.4211 -0.6574 -0.0131
  200DOPC  H12A24765   0.999   6.116   2.486 -0.7939 -0.3678  2.5906
  200DOPC  H12B24766   0.968   6.227   2.363  0.0015  0.8682  0.1423
  200DOPC   C1324767   1.230   6.214   2.396  0.2186  0.1840  0.5011
  200DOPC  H13A24768   1.328   6.259   2.393  0.1298  0.3495 -1.8665
  200DOPC  H13B24769   1.248   6.114   2.432  0.6212  0.2839  0.5787
  200DOPC  H13C24770   1.192   6.204   2.296 -0.8336 -2.7331  1.1019
  200DOPC   C1424771   1.181   6.269   2.628 -0.5819  0.1344 -0.3056
  200DOPC  H14A24772   1.104   6.307   2.693 -0.5187 -0.8533  0.3662
  200DOPC  H14B24773   1.204   6.165   2.644  1.4888  0.4094 -1.1839
  200DOPC  H14C24774   1.273   6.324   2.631  0.4253 -1.4932 -0.4608
  200DOPC   C1524775   1.129   6.432   2.445  0.3388  0.6836  0.3504
  200DOPC  H15A24776   1.092   6.440   2.344  3.4687  0.2853 -0.9436
  200DOPC  H15B24777   1.222   6.482   2.463 -0.5587  2.5121  0.1143
  200DOPC  H15C24778   1.062   6.482   2.514  2.2780 -0.3470  3.1786
  200DOPC   C1124779   0.870   6.288   2.544 -0.3723 -0.0677  0.1701
  200DOPC  H11A24780   0.843   6.368   2.472 -1.4281 -0.7124 -0.1649
  200DOPC  H11B24781   0.781   6.222   2.540 -0.5180  0.1184  0.3221
  200DOPC     P24782   0.882   6.471   2.724 -0.3161 -0.1960 -0.0465
  200DOPC   O1324783   0.894   6.562   2.607 -0.6790  0.4111  0.0439
  200DOPC   O1424784   0.969   6.482   2.839  0.0524  0.5938 -0.2312
  200DOPC   O1224785   0.909   6.326   2.675  0.6938  0.9781  0.6501
  200DOPC   O1124786   0.736   6.479   2.769  0.1685  0.4307  0.3815
  200DOPC    C124787   0.673   6.364   2.834  0.2274  0.2652  0.1149
  200DOPC    HA24788   0.722   6.267   2.813 -0.5126 -0.1053  0.0773
  200DOPC    HB24789   0.572   6.344   2.793 -0.9407  1.5405  2.2204
  200DOPC    C224790   0.644   6.382   2.984 -0.1362 -0.1872  0.4361
  200DOPC    HS24791   0.577   6.470   2.999 -0.5049 -0.2303 -0.8819
  200DOPC   O2124792   0.767   6.404   3.054  0.6830  0.0989  0.9562
  200DOPC   C2124793   0.751   6.481   3.159  0.7466  0.7138 -0.4042
  200DOPC   O2224794   0.653   6.545   3.181 -0.7927  0.1928 -0.1318
  200DOPC   C2224795   0.884   6.480   3.236 -1.0575 -0.2346 -0.2744
  200DOPC   H2R24796   0.962   6.518   3.166 -2.0366 -0.0437 -1.2795
  200DOPC   H2S24797   0.930   6.379   3.251  1.0108  0.5474 -0.9303
  200DOPC    C324798   0.574   6.260   3.043  0.1333  0.1074 -0.2722
  200DOPC    HX24799   0.631   6.168   3.018  3.4705  2.4558 -2.2248
  200DOPC    HY24800   0.473   6.265   2.996  0.2594 -0.0728 -0.5682
  200DOPC   O3124801   0.559   6.274   3.183 -0.6864 -0.2122  0.2230
  200DOPC   C3124802   0.437   6.285   3.231 -0.2081  0.3503  0.3544
  200DOPC   O3224803   0.334   6.296   3.166  0.1311  0.1385 -0.3419
  200DOPC   C3224804   0.445   6.308   3.380  0.5246 -0.2719  1.0081
  200DOPC   H2X24805   0.548   6.280   3.408  0.8888  0.5585  0.5310
  200DOPC   H2Y24806   0.421   6.414   3.406  1.6390  0.7589 -1.7480
  200DOPC   C2324807   0.890   6.557   3.372 -0.4930  0.2597 -0.1732
  200DOPC   H3R24808   0.852   6.659   3.350 -2.2503 -0.2193  0.4830
  200DOPC   H3S24809   0.995   6.577   3.403 -0.3752 -0.4473 -0.1064
  200DOPC   C2424810   0.802   6.494   3.487 -0.6742 -0.7119  0.1538
  200DOPC   H4R24811   0.867   6.432   3.552 -0.0168  2.0519  2.3542
  200DOPC   H4S24812   0.712   6.437   3.455 -1.2604  0.5204 -0.4858
  200DOPC   C2524813   0.759   6.612   3.572  0.7455  0.2292  0.0199
  200DOPC   H5R24814   0.697   6.682   3.513  1.3085  1.4800  0.8662
  200DOPC   H5S24815   0.849   6.662   3.614 -0.4547  0.7015  2.1766
  200DOPC   C2624816   0.667   6.560   3.690  0.1192  0.0111 -0.2395
  200DOPC   H6R24817   0.581   6.504   3.648 -0.1447 -0.2134  0.5785
  200DOPC   H6S24818   0.634   6.645   3.752 -0.6856 -0.4674  0.0054
  200DOPC   C2724819   0.740   6.480   3.800  0.1843  0.0306  0.4577
  200DOPC   H7R24820   0.830   6.533   3.838 -1.3837  1.1493  2.8472
  200DOPC   H7S24821   0.767   6.386   3.746 -1.7421  0.3996 -1.2990
  200DOPC   C2824822   0.648   6.446   3.921 -0.2116 -0.5411 -0.1110
  200DOPC   H8R24823   0.695   6.362   3.979 -0.1462 -0.6060 -0.2575
  200DOPC   H8S24824   0.556   6.398   3.884  0.4213 -1.2108 -0.8553
  200DOPC   C2924825   0.627   6.578   3.990  0.2373 -0.2987 -0.9334
  200DOPC   H9R24826   0.721   6.634   3.995 -0.0451  0.1559 -0.6051
  200DOPC  C21024827   0.511   6.631   4.039  0.5409 -0.2032 -0.1896
  200DOPC  H10R24828   0.508   6.725   4.095  0.4280 -1.2618  1.6533
  200DOPC  C21124829   0.378   6.555   4.037  0.0537 -0.4183  0.0857
  200DOPC  H11R24830   0.360   6.523   3.932 -1.2057  1.2211 -0.2525
  200DOPC  H11S24831   0.293   6.622   4.061  0.8301  0.2481  1.0008
  200DOPC  C21224832   0.354   6.431   4.127 -0.2527 -0.3693  0.7496
  200DOPC  H12R24833   0.420   6.349   4.092 -0.6035 -0.7856  1.0525
  200DOPC  H12S24834   0.251   6.392   4.116 -0.2960  0.5400 -3.5983
  200DOPC  C21324835   0.369   6.450   4.280  0.7410 -0.5403 -0.4943
  200DOPC  H13R24836   0.288   6.514   4.321  0.8645 -0.2698 -0.6722
  200DOPC  H13S24837   0.467   6.500   4.293  0.7405 -0.7036  0.1838
  200DOPC  C21424838   0.357   6.316   4.350  0.0209  0.8359 -0.8020
  200DOPC  H14R24839   0.422   6.243   4.297  0.4389  1.0503 -0.5881
  200DOPC  H14S24840   0.255   6.273   4.349  1.0542 -1.8170 -0.5770
  200DOPC  C21524841   0.402   6.327   4.504  0.5755 -0.2430 -0.3463
  200DOPC  H15R24842   0.358   6.421   4.544  0.5406 -0.7007  0.7110
  200DOPC  H15S24843   0.513   6.336   4.502  0.9373 -3.6606 -1.2468
  200DOPC  C21624844   0.354   6.212   4.587  0.0792  0.8732  0.0627
  200DOPC  H16R24845   0.436   6.138   4.600 -0.7979 -0.4356 -1.5234
  200DOPC  H16S24846   0.275   6.159   4.531  0.5218  0.3103 -0.0324
  200DOPC  C21724847   0.303   6.260   4.714  0.0840 -0.2416  0.3520
  200DOPC  H17R24848   0.209   6.317   4.700 -0.2879 -0.9645 -0.1849
  200DOPC  H17S24849   0.379   6.312   4.776 -0.3694  0.8947 -0.0247
  200DOPC  C21824850   0.256   6.135   4.799 -0.5754  0.1272 -0.3850
  200DOPC  H18R24851   0.219   6.160   4.900 -0.8340 -2.1707  0.1544
  200DOPC  H18S24852   0.344   6.071   4.823 -1.7144 -0.2500  3.2927
  200DOPC  H18T24853   0.185   6.070   4.744  0.2476  0.9944 -2.6104
  200DOPC   C3324854   0.347   6.223   3.456 -0.2903 -0.3014  0.5103
  200DOPC   H3X24855   0.380   6.118   3.449 -4.4446 -1.8056  0.4754
  200DOPC   H3Y24856   0.243   6.229   3.417 -0.3312 -1.3651  0.4353
  200DOPC   C3424857   0.341   6.260   3.603  0.0155  0.5927 -1.1584
  200DOPC   H4X24858   0.270   6.343   3.625 -0.0330 -0.0042  1.1967
  200DOPC   H4Y24859   0.440   6.300   3.632 -0.8146  0.3490  2.5366
  200DOPC   C3524860   0.290   6.138   3.685  0.5427  0.7520 -0.0773
  200DOPC   H5X24861   0.337   6.045   3.645  2.8693  1.9383 -0.2294
  200DOPC   H5Y24862   0.180   6.123   3.681  0.4277 -0.2160  3.3193
  200DOPC   C3624863   0.317   6.151   3.830  0.6561  0.5168  0.0723
  200DOPC   H6X24864   0.426   6.169   3.838  0.5883  1.1453 -0.3092
  200DOPC   H6Y24865   0.248   6.231   3.863 -1.3408 -0.9916 -0.2418
  200DOPC   C3724866   0.285   6.023   3.893  0.3755 -0.6701 -0.4851
  200DOPC   H7X24867   0.176   6.001   3.888  0.3944 -1.2442  1.0802
  200DOPC   H7Y24868   0.329   5.928   3.858  1.1049 -0.2905 -0.6166
  200DOPC   C3824869   0.323   6.016   4.044 -0.4078 -0.5319 -0.2784
  200DOPC   H8X24870   0.317   6.114   4.096 -1.0036 -1.9086  2.3751
  200DOPC   H8Y24871   0.432   5.997   4.034  0.1757  2.7188 -1.2496
  200DOPC   C3924872   0.270   5.897   4.128  0.6292 -0.1722 -0.3065
  200DOPC   H9X24873   0.344   5.817   4.138 -0.5381 -1.6257 -2.4119
  200DOPC  C31024874   0.149   5.884   4.190 -0.0235 -0.0105 -0.7367
  200DOPC  H10X24875   0.127   5.787   4.236 -2.8187  0.8475 -0.0544
  200DOPC  C31124876   0.039   5.978   4.190 -0.1033  0.0894 -0.0005
  200DOPC  H11X24877  -0.058   5.924   4.181  0.7800 -1.3099 -1.8736
  200DOPC  H11Y24878   0.044   6.050   4.106  0.7423  0.5615  0.4456
  200DOPC  C31224879   0.045   6.059   4.322 -0.6033 -0.2368  0.4445
  200DOPC  H12X24880  -0.032   6.139   4.307  0.2561  0.4715 -0.2729
  200DOPC  H12Y24881   0.142   6.108   4.343 -1.1915  0.9077  0.6095
  200DOPC  C31324882   0.025   5.973   4.446 -0.4952 -0.3439  0.5384
  200DOPC  H13X24883  -0.035   5.882   4.425 -0.9743 -0.0495  0.6230
  200DOPC  H13Y24884   0.123   5.939   4.486 -0.0247  0.5588  0.1629
  200DOPC  C31424885  -0.054   6.043   4.556  0.4609  0.0982  0.7224
  200DOPC  H14X24886  -0.066   5.967   4.637  1.9135 -1.2391 -0.2496
  200DOPC  H14Y24887   0.007   6.123   4.603  0.5025  2.0520 -2.3759
  200DOPC  C31524888  -0.194   6.089   4.519 -0.3168 -0.3066  0.0795
  200DOPC  H15X24889  -0.260   6.007   4.482 -1.7462  0.5181  0.7026
  200DOPC  H15Y24890  -0.191   6.160   4.433  1.2473 -0.5330 -0.0863
  200DOPC  C31624891  -0.275   6.147   4.638 -0.4361 -0.1520  0.8587
  200DOPC  H16X24892  -0.272   6.076   4.724 -1.1104 -0.5080  0.6029
  200DOPC  H16Y24893  -0.236   6.248   4.662 -2.8943  1.2042 -0.3862
  200DOPC  C31724894  -0.430   6.165   4.606  0.0135 -0.5012 -0.6678
  200DOPC  H17X24895  -0.438   6.236   4.521  0.3459  2.4803  1.6145
  200DOPC  H17Y24896  -0.468   6.064   4.579 -0.1759 -0.4552 -0.5780
  200DOPC  C31824897  -0.502   6.225   4.730 -0.0791 -0.4205 -0.0267
  200DOPC  H18X24898  -0.612   6.219   4.716 -0.0789  2.1200 -1.8415
  200DOPC  H18Y24899  -0.467   6.165   4.817 -1.6079 -4.0429 -1.7049
  200DOPC  H18Z24900  -0.482   6.333   4.745  0.1819 -0.3968 -0.5278
  201SOD    SOD24901   3.443   6.176   8.602 -0.0551  0.3019 -0.0229
  202SOD    SOD24902   7.093   2.639   1.564  0.1881  0.3389 -0.3074
  203SOD    SOD24903   3.902   0.760   7.876  0.5811  0.0071  0.1250
  204SOD    SOD24904   2.286   2.187   1.174  0.4786  0.4108  0.1257
  205SOD    SOD24905   2.614   5.578   7.880  0.2021  0.1911  0.6082
  206SOD    SOD24906   2.301   6.755   0.873  0.1095  0.4782  0.6328
  207SOD    SOD24907   3.122   1.951   2.089 -0.0950 -0.0548 -0.3221
  208SOD    SOD24908   6.921   3.068   7.735 -0.0003 -0.3763  0.1595
  209SOD    SOD24909   4.869   3.353   1.697 -0.2195  0.2071 -0.5305
  210SOD    SOD24910   5.295   0.683   6.707  0.0595  0.0271  0.4900
  211SOD    SOD24911   2.738   2.950   7.811  0.4680  0.2268  0.0674
  212SOD    SOD24912   5.156   1.247   8.003  0.7022 -0.1426 -0.4724
  213SOD    SOD24913   0.098   2.783   1.771 -0.0122 -0.1472  0.1310
  214SOD    SOD24914   1.211   2.489   6.541 -0.4830 -0.0122  0.2749
  215SOD    SOD24915   6.778   2.492   7.847 -0.5462  0.5842  0.3156
  216SOD    SOD24916   3.029   0.043   7.626 -0.2327 -0.0477 -0.0284
  217SOD    SOD24917   4.935   7.155   0.746  0.1888 -0.1469 -0.1077
  218SOD    SOD24918   7.199   7.564   7.563  0.1189  0.0847 -0.0466
  219SOD    SOD24919   0.026   5.756   8.016  0.0111 -0.1188 -0.6055
  220SOD    SOD24920   3.758   2.483   1.681  0.1245 -0.4769  0.2177
  221SOD    SOD24921   5.949   6.680   1.474 -0.0911  0.2317 -0.1305
  222SOD    SOD24922   4.478   3.253   7.613 -0.5626  0.2041  0.2229
  223SOD    SOD24923   1.972   5.233   1.395  0.1475 -0.4292 -0.1377
  224SOD    SOD24924   7.302   3.100   0.885  0.3594 -0.3123 -0.3443
  225SOD    SOD24925   6.734   6.110   2.525 -0.1323  0.2336  0.2776
  226SOD    SOD24926   4.310   1.687   7.000  0.2453 -0.1004 -0.3164
  227CLA    CLA24927   4.819   1.998   1.579 -0.0152  0.3101 -0.0628
  228CLA    CLA24928   6.569   1.122   2.478 -0.3524  0.0074 -0.1023
  229CLA    CLA24929   5.128   2.776   1.928  0.0597  0.1816  0.2911
  230CLA    CLA24930   6.418   1.868   7.777 -0.2353  0.0487 -0.1824
  231CLA    CLA24931   2.115   5.802   8.683 -0.1562  0.0655 -0.2722
  232CLA    CLA24932   0.763   0.003   9.295  0.0001  0.2728 -0.0722
  233CLA    CLA24933   3.343   6.948   9.033  0.2630 -0.0448  0.3147
  234CLA    CLA24934   2.779   2.517   8.145 -0.5568 -0.0698 -0.0190
  235CLA    CLA24935   3.655   3.681   1.814 -0.1540 -0.0801 -0.0102
  236CLA    CLA24936   2.322   0.198   8.115 -0.1145 -0.0510  0.1148
  237CLA    CLA24937   4.746   6.370   6.737 -0.0333  0.1811  0.1349
  238CLA    CLA24938   6.153   5.060   0.942  0.0651 -0.5221  0.1403
  239CLA    CLA24939   5.708   2.492   0.952 -0.0591 -0.1294  0.0963
  240CLA    CLA24940   3.450   6.950   7.803  0.0956 -0.3942 -0.2693
  241CLA    CLA24941   1.217   0.629   1.904 -0.0722 -0.2470 -0.0797
  242CLA    CLA24942   5.299   3.182   9.188  0.0929 -0.3616 -0.6304
  243CLA    CLA24943   2.559   5.127   2.689  0.0508 -0.0349 -0.5752
  244CLA    CLA24944   6.207   7.393   2.590  0.2719  0.3417 -0.2461
  245CLA    CLA24945   7.167   0.866   2.001  0.2227 -0.0346 -0.3083
  246CLA    CLA24946   4.783   0.528   8.321 -0.2799  0.3080  0.2374
  247CLA    CLA24947   3.351   1.898   1.596 -0.1292 -0.0747  0.0065
  248CLA    CLA24948   4.842   2.903   0.923 -0.6000  0.0522 -0.6287
  249CLA    CLA24949   3.626   4.893   1.971  0.3816 -0.1953  0.3350
  250CLA    CLA24950   3.506   1.182   7.663  0.2756 -0.2185 -0.0053
  251CLA    CLA24951   5.632   1.540   8.510  0.2752  0.0842 -0.2367
  252CLA    CLA24952   1.406   2.935   1.798  0.2119 -0.3647  0.2333
  253TIP3   OH224953   1.727   4.386   9.484  0.2153 -0.0652  0.0816
  253TIP3    H124954   1.707   4.298   9.451  1.4295 -0.8508  1.3227
  253TIP3    H224955   1.728   4.376   9.579  0.3990  1.3089  0.2495
  254TIP3   OH224956   6.131   3.743   8.751 -0.4072  0.1382 -0.4803
  254TIP3    H124957   6.088   3.686   8.816  1.7962 -1.3770 -0.2625
  254TIP3    H224958   6.151   3.685   8.678  0.7637  0.9321 -0.8095
  255TIP3   OH224959   2.129   1.661   7.666 -0.0176  0.0165 -0.0548
  255TIP3    H124960   2.180   1.591   7.708 -1.6087  0.2290  2.4627
  255TIP3    H224961   2.156   1.741   7.712 -2.6236  0.1016  1.5329
  256TIP3   OH224962   1.541   4.179   8.827  0.1235  0.4269  0.0672
  256TIP3    H124963   1.526   4.174   8.921 -0.8790  0.7874 -0.0671
  256TIP3    H224964   1.455   4.165   8.788  0.3505  1.2535 -0.7694
  257TIP3   OH224965   1.272   3.272   7.147 -0.1415  0.2822  0.5297
  257TIP3    H124966   1.333   3.237   7.212 -0.1737  0.5988  0.7294
  257TIP3    H224967   1.299   3.231   7.065 -0.9840 -1.2383  0.9719
  258TIP3   OH224968   6.383   0.157   7.820  0.3512  0.2165  0.5004
  258TIP3    H124969   6.424   0.124   7.740 -3.2637 -0.7501 -1.1654
  258TIP3    H224970   6.410   0.094   7.888  1.4111 -0.4548 -0.4969
  259TIP3   OH224971   4.735   6.510   7.381 -0.3028  0.1784 -0.3873
  259TIP3    H124972   4.811   6.561   7.354 -1.1038  1.1983 -0.7806
  259TIP3    H224973   4.719   6.450   7.307 -0.2405  0.3774 -0.5641
  260TIP3   OH224974   5.396   3.617   6.798 -0.4163  0.3355  0.3773
  260TIP3    H124975   5.406   3.698   6.850 -2.0320  1.2450 -0.6531
  260TIP3    H224976   5.325   3.570   6.841  0.5548 -0.6223  1.0059
  261TIP3   OH224977   5.220   7.059   7.526 -0.2575  0.5726  0.0695
  261TIP3    H124978   5.308   7.097   7.525  1.1522 -2.3388  1.6029
  261TIP3    H224979   5.173   7.110   7.593  1.4612 -0.0644  1.8588
  262TIP3   OH224980   1.729   1.449   8.704  0.3772 -0.2429 -0.4145
  262TIP3    H124981   1.666   1.405   8.761 -1.8713  1.4617 -1.4059
  262TIP3    H224982   1.729   1.540   8.734  0.4824  0.3072 -1.9722
  263TIP3   OH224983   3.567   6.242   7.683 -0.2192 -1.2667  0.1135
  263TIP3    H124984   3.659   6.227   7.707 -0.2646 -0.3277  0.9325
  263TIP3    H224985   3.517   6.212   7.759 -0.4479  0.4767  0.6833
  264TIP3   OH224986   1.644   4.142   9.382 -0.3965 -0.0241  0.0142
  264TIP3    H124987   1.718   4.087   9.357 -0.6862 -0.1711 -0.5274
  264TIP3    H224988   1.599   4.093   9.451 -1.9231 -1.5443 -1.9296
  265TIP3   OH224989   0.467   2.977   9.125  0.4378 -0.2317 -0.0120
  265TIP3    H124990   0.413   2.905   9.092 -0.3665 -0.1669  1.1048
  265TIP3    H224991   0.508   2.943   9.204  0.2129  0.4463  0.4114
  266TIP3   OH224992   4.258   4.921   6.525 -0.0392 -0.2363 -0.6157
  266TIP3    H124993   4.166   4.903   6.505  0.2639 -1.4333 -1.0624
  266TIP3    H224994   4.269   4.892   6.616 -0.5106  1.6406  0.0925
  267TIP3   OH224995   7.396   1.601   8.333  0.0705  0.5931  0.9180
  267TIP3    H124996   7.483   1.566   8.314  0.3325  1.6680  0.0275
  267TIP3    H224997   7.396   1.688   8.294 -1.6809  0.3243  0.2129
  268TIP3   OH224998   2.374   4.704   8.971  0.1113 -0.4818  0.3709
  268TIP3    H124999   2.322   4.655   9.034 -0.4547 -0.0086  0.2804
  268TIP3    H225000   2.319   4.779   8.947  0.7928 -0.0231  0.2019
  269TIP3   OH225001   6.725   1.838   7.772  0.8173 -0.2087 -0.3149
  269TIP3    H125002   6.725   1.845   7.677  0.1675 -0.4882 -0.3411
  269TIP3    H225003   6.638   1.867   7.799 -0.1907 -3.0996 -0.0683
  270TIP3   OH225004   7.157   0.404   7.427  0.8346 -0.6095 -0.2497
  270TIP3    H125005   7.143   0.390   7.334  1.6214 -1.1974 -0.2957
  270TIP3    H225006   7.185   0.318   7.460  1.7017 -0.1353  0.3010
  271TIP3   OH225007   4.404   5.637   9.113  0.3709 -0.6810 -0.5340
  271TIP3    H125008   4.435   5.603   9.198  1.2810 -1.0547 -0.9981
  271TIP3    H225009   4.332   5.696   9.136  0.0706 -1.3913  0.4436
  272TIP3   OH225010   3.764   6.128   9.284  0.3098 -0.0971 -0.3398
  272TIP3    H125011   3.747   6.035   9.269  1.9338 -0.4488 -0.1728
  272TIP3    H225012   3.815   6.155   9.207  2.7318 -0.2175  1.1030
  273TIP3   OH225013   1.563   5.854   7.437 -0.2838 -0.2915 -0.1732
  273TIP3    H125014   1.628   5.827   7.371 -0.3123 -1.1546  0.1427
  273TIP3    H225015   1.607   5.924   7.485 -0.1211  0.0991 -0.8710
  274TIP3   OH225016   6.298   3.020   8.711  0.3705 -0.5155 -0.0872
  274TIP3    H125017   6.370   2.966   8.742 -0.7577 -2.2695 -0.3566
  274TIP3    H225018   6.220   2.968   8.729 -0.8231  1.2529  0.0395
  275TIP3   OH225019   3.309   1.676   9.092  0.2894 -0.6874  0.1464
  275TIP3    H125020   3.347   1.594   9.124  0.0658 -0.8447  0.0103
  275TIP3    H225021   3.340   1.683   9.001  2.3894  0.6427  0.8911
  276TIP3   OH225022   1.568   6.845   8.581 -0.0866  0.2377  0.1809
  276TIP3    H125023   1.561   6.856   8.676  1.1932  3.0032  0.0548
  276TIP3    H225024   1.630   6.773   8.571  0.1558  0.2350  1.4441
  277TIP3   OH225025   1.064   7.439   8.336 -0.4898 -0.4001  0.8941
  277TIP3    H125026   0.979   7.394   8.333  0.3594 -2.0462  0.4390
  277TIP3    H225027   1.072   7.481   8.251 -1.0207  0.1377  1.0991
  278TIP3   OH225028   5.831   7.079   8.929 -0.0191  0.0759 -0.4578
  278TIP3    H125029   5.787   7.026   8.862 -0.7174 -1.5549  1.2262
  278TIP3    H225030   5.923   7.055   8.921 -0.1870 -0.6097 -0.4287
  279TIP3   OH225031   0.056   6.341   7.898 -0.3102 -0.6016 -0.2042
  279TIP3    H125032   0.136   6.382   7.866 -0.1919 -1.6180 -1.2525
  279TIP3    H225033  -0.010   6.357   7.830 -0.2644 -2.0800 -0.6449
  280TIP3   OH225034   6.174   2.599   9.382  0.0817 -0.3473 -0.0502
  280TIP3    H125035   6.174   2.503   9.385 -0.0056 -0.3415  0.2084
  280TIP3    H225036   6.081   2.623   9.381  0.0665 -0.2364  1.2880
  281TIP3   OH225037   0.506   5.229   8.131  0.1587 -0.0960  0.0865
  281TIP3    H125038   0.586   5.193   8.169  0.0818  0.3401  0.6814
  281TIP3    H225039   0.527   5.321   8.112  0.5463 -0.5604 -1.9673
  282TIP3   OH225040   0.840   3.903   7.039  0.2652  0.1768 -0.3441
  282TIP3    H125041   0.861   3.963   7.111 -0.7058  1.8994 -1.4081
  282TIP3    H225042   0.824   3.961   6.964 -0.8288 -1.4338 -1.4170
  283TIP3   OH225043   0.651   5.862   7.553  0.1892  0.0772 -0.3110
  283TIP3    H125044   0.694   5.875   7.469  1.9153 -3.2450 -0.1483
  283TIP3    H225045   0.723   5.857   7.616 -0.7183 -1.4018  0.6833
  284TIP3   OH225046   6.782   4.249   1.192  0.2149  0.2965 -0.1345
  284TIP3    H125047   6.863   4.287   1.228  0.0192 -0.3694  1.0838
  284TIP3    H225048   6.728   4.324   1.169  0.0237  0.8158  1.7847
  285TIP3   OH225049   3.829   0.944   0.621 -0.2780 -0.1739 -0.3814
  285TIP3    H125050   3.878   1.026   0.611 -0.9993  0.0496 -2.7085
  285TIP3    H225051   3.862   0.906   0.703  3.6613 -0.0000 -1.6871
  286TIP3   OH225052   3.003   4.429   2.342 -0.1003  0.2902  0.8444
  286TIP3    H125053   3.013   4.336   2.324 -1.7187  0.1534  0.4348
  286TIP3    H225054   3.029   4.472   2.260 -2.9323 -0.0743 -0.3858
  287TIP3   OH225055   0.975   5.965   2.082  0.0358 -0.1961 -0.3225
  287TIP3    H125056   0.966   6.047   2.131 -3.9253 -0.3870 -0.4361
  287TIP3    H225057   0.954   5.896   2.146 -1.5915 -0.6986 -1.3484
  288TIP3   OH225058   0.797   2.641   1.151  0.0053  0.2931  0.3656
  288TIP3    H125059   0.780   2.708   1.085 -0.6049  1.7934  1.9501
  288TIP3    H225060   0.883   2.664   1.187  0.0264 -0.0730  0.5487
  289TIP3   OH225061   3.380   4.321   3.015 -0.0383  0.0297  0.0260
  289TIP3    H125062   3.295   4.285   3.040  0.1538  0.5638  1.5617
  289TIP3    H225063   3.373   4.415   3.033  0.9145  0.0579  0.3021
  290TIP3   OH225064   2.217   5.284   2.673 -0.4240  0.3248  0.4944
  290TIP3    H125065   2.243   5.197   2.641 -1.0224  0.4499 -0.3737
  290TIP3    H225066   2.284   5.343   2.638 -0.2777  0.2724  0.6869
  291TIP3   OH225067   3.596   2.916   2.179 -0.2117 -0.8036  0.0997
  291TIP3    H125068   3.620   3.008   2.174  0.9636 -1.1445 -2.8649
  291TIP3    H225069   3.653   2.879   2.246  1.1834  0.1704 -0.5061
  292TIP3   OH225070   6.230   5.106   0.507 -0.2687 -0.1118  0.5138
  292TIP3    H125071   6.307   5.142   0.463  1.6990  0.3175  3.9367
  292TIP3    H225072   6.184   5.182   0.542 -0.5888 -0.5359  1.0310
  293TIP3   OH225073   2.915   2.782   1.073 -0.0817  0.1259 -0.5002
  293TIP3    H125074   2.948   2.762   1.161 -2.7367  0.6538  0.7191
  293TIP3    H225075   2.972   2.852   1.042  2.1274 -1.3662 -0.0742
  294TIP3   OH225076   6.714   4.684   1.920  0.3264 -0.0205  0.0566
  294TIP3    H125077   6.661   4.624   1.869 -0.4059  0.2397  0.4949
  294TIP3    H225078   6.672   4.769   1.909  1.8967  0.6446 -1.3506
  295TIP3   OH225079   5.670   5.686   1.958 -0.5666 -0.3982  0.2413
  295TIP3    H125080   5.636   5.747   2.023 -2.2720 -0.6085 -0.4038
  295TIP3    H225081   5.717   5.740   1.895  0.4444 -0.1104  1.2276
  296TIP3   OH225082   0.268   4.545   3.273  0.0957 -0.0076  0.7577
  296TIP3    H125083   0.224   4.629   3.275  0.4155  0.3494 -2.2282
  296TIP3    H225084   0.361   4.566   3.282  0.0706 -0.2188  1.5777
  297TIP3   OH225085   5.478   4.276   2.103 -0.7218 -0.2604  0.3596
  297TIP3    H125086   5.488   4.341   2.033 -0.9719  1.1998  1.6127
  297TIP3    H225087   5.498   4.325   2.183 -0.0365 -1.9874  1.2836
  298TIP3   OH225088   6.515   6.103   2.472 -0.0664  0.7043 -0.0199
  298TIP3    H125089   6.495   6.031   2.413  0.2862  0.9087 -0.3963
  298TIP3    H225090   6.442   6.163   2.463 -0.2779  0.4770  0.1669
  299TIP3   OH225091   1.727   5.093   2.833  0.3087  0.1648  0.1024
  299TIP3    H125092   1.763   5.040   2.762 -1.1838  3.7408 -3.6541
  299TIP3    H225093   1.644   5.050   2.855  0.2635 -0.3986 -1.1007
  300TIP3   OH225094   5.817   0.409   1.422  0.1411 -0.1593 -0.2905
  300TIP3    H125095   5.742   0.351   1.436 -0.2321  0.4776  0.4165
  300TIP3    H225096   5.889   0.368   1.470 -0.1587  0.0302  0.3268
  301TIP3   OH225097   3.651   3.796   1.093  0.8783  0.3170  0.3148
  301TIP3    H125098   3.602   3.768   1.016 -0.6521 -2.0781  1.9850
  301TIP3    H225099   3.652   3.891   1.088 -0.2929  0.2712 -1.9799
  302TIP3   OH225100   4.967   3.715   1.965  0.5435 -0.3029  0.4643
  302TIP3    H125101   5.057   3.704   1.994 -0.3679 -2.6942  2.8129
  302TIP3    H225102   4.935   3.791   2.014  1.5053  1.2202 -1.1762
  303TIP3   OH225103   7.198   1.369   0.724  0.0166  0.4570  0.0632
  303TIP3    H125104   7.240   1.436   0.671 -0.5301  0.1919 -0.7099
  303TIP3    H225105   7.209   1.400   0.814 -0.2802  1.6152 -0.2859
  304TIP3   OH225106   4.702   1.208   2.907  0.1775  0.0507 -0.1433
  304TIP3    H125107   4.609   1.209   2.931  0.2740 -1.3747  0.4351
  304TIP3    H225108   4.739   1.282   2.954 -0.4792 -0.0245  0.5244
  305TIP3   OH225109   6.666   1.867   0.732 -0.3586  0.2878  0.3996
  305TIP3    H125110   6.731   1.799   0.716 -0.8909 -0.0174 -0.5371
  305TIP3    H225111   6.717   1.944   0.756  0.3786  0.1491 -0.6499
  306TIP3   OH225112   3.987   2.761   1.151  0.5748  0.2166  0.2417
  306TIP3    H125113   4.005   2.671   1.123 -2.9767 -0.7029  0.3461
  306TIP3    H225114   3.983   2.811   1.070  0.4041 -0.2043 -0.0144
  307TIP3   OH225115   3.186   2.419   0.490 -0.3984 -0.3422  0.2921
  307TIP3    H125116   3.220   2.460   0.411 -0.5627 -0.2796  0.2540
  307TIP3    H225117   3.209   2.326   0.481 -3.8657 -1.1820 -1.7507
  308TIP3   OH225118   4.537   5.464   1.120  0.5534 -0.4507  0.1245
  308TIP3    H125119   4.600   5.535   1.130 -0.1001  0.1221  0.2854
  308TIP3    H225120   4.483   5.469   1.199 -1.3276  0.7389 -1.1619
  309TIP3   OH225121   4.455   6.058   1.352  0.3822 -0.0443 -0.2184
  309TIP3    H125122   4.520   6.065   1.282 -0.7876 -1.2162 -1.4774
  309TIP3    H225123   4.429   6.148   1.370 -1.0767  0.1975 -3.0752
  310TIP3   OH225124   5.808   1.173   0.552  0.0656 -0.3966 -0.3136
  310TIP3    H125125   5.746   1.153   0.622 -0.0265  0.6702 -0.0715
  310TIP3    H225126   5.776   1.122   0.477 -0.7079 -0.3831 -0.0061
  311TIP3   OH225127   0.562   6.812   3.205 -0.1741  0.1613  0.1783
  311TIP3    H125128   0.518   6.779   3.127 -0.8750  0.5358  0.4071
  311TIP3    H225129   0.594   6.733   3.250  1.4964 -0.0031 -1.1842
  312TIP3   OH225130   2.898   4.703   2.131 -0.0166  0.1407  0.3816
  312TIP3    H125131   2.839   4.658   2.191 -1.6699 -2.1012 -2.6183
  312TIP3    H225132   2.972   4.643   2.121 -0.1537  0.0859 -0.3914
  313TIP3   OH225133   3.797   3.182   2.747 -0.5948  0.3781  0.4953
  313TIP3    H125134   3.756   3.249   2.692  2.9261  2.2517 -0.1341
  313TIP3    H225135   3.837   3.121   2.685 -0.9427 -0.4536  1.0692
  314TIP3   OH225136   1.713   4.113   0.686 -0.0989 -0.4760  0.2398
  314TIP3    H125137   1.753   4.129   0.771 -0.9247  1.7635  0.2831
  314TIP3    H225138   1.785   4.121   0.623  0.0291  0.9552  0.5232
  315TIP3   OH225139   6.949   0.349   1.225 -0.1048  0.1265  0.8255
  315TIP3    H125140   6.913   0.352   1.313 -2.2090 -0.2032  0.0187
  315TIP3    H225141   7.010   0.423   1.222  1.9353 -1.3005  3.2818
  316TIP3   OH225142   5.937   0.595   0.799  0.3612 -0.2880  0.1760
  316TIP3    H125143   5.865   0.605   0.862  0.3967 -0.3430  0.2252
  316TIP3    H225144   6.005   0.653   0.833  0.1134  0.2329 -0.2033
  317TIP3   OH225145   3.294   1.602   2.343 -0.0423 -0.2335  0.1185
  317TIP3    H125146   3.370   1.545   2.329 -1.2053 -2.4492  2.0611
  317TIP3    H225147   3.310   1.644   2.427 -0.2194  0.6419 -0.2683
  318TIP3   OH225148   0.513   7.125   1.727 -0.3339  0.1116 -0.4460
  318TIP3    H125149   0.480   7.173   1.651 -0.8255  1.0513  0.3319
  318TIP3    H225150   0.581   7.182   1.764  0.6483 -0.8140 -0.7728
  319TIP3   OH225151   1.958   6.480   2.254 -0.3131  0.8493  0.1648
  319TIP3    H125152   2.036   6.526   2.285  0.3101 -0.1281  0.1254
  319TIP3    H225153   1.900   6.478   2.330  0.2364  0.4998  0.5890
  320TIP3   OH225154   5.158   7.209   0.791 -0.6577  0.3144 -0.1759
  320TIP3    H125155   5.197   7.122   0.792  3.2971  1.8334 -1.6843
  320TIP3    H225156   5.167   7.241   0.881  1.2261  0.3753 -0.3441
  321TIP3   OH225157   0.753   5.920   0.635 -0.4175 -0.0695 -0.1462
  321TIP3    H125158   0.729   5.975   0.561  0.2045 -0.2860 -0.5136
  321TIP3    H225159   0.835   5.879   0.609  0.6762  1.1075  1.3041
  322TIP3   OH225160   2.383   2.433   1.658 -0.1349  0.1165  0.0398
  322TIP3    H125161   2.371   2.505   1.596  1.7972  1.1087  0.7350
  322TIP3    H225162   2.399   2.477   1.742  2.0176 -1.0410  0.3150
  323TIP3   OH225163   1.439   0.038   6.864 -0.0775 -0.1796  0.1956
  323TIP3    H125164   1.524  -0.008   6.866  0.4712  0.7660 -0.5163
  323TIP3    H225165   1.391  -0.006   6.794  0.6296  0.5947 -0.8138
  324TIP3   OH225166   3.873   0.055   6.722 -0.4121  0.0917 -0.2334
  324TIP3    H125167   3.946   0.024   6.667 -0.3856  1.0474 -0.7471
  324TIP3    H225168   3.799   0.000   6.696  0.0680 -0.7955  0.1927
  325TIP3   OH225169   6.973   0.324   7.048 -0.1305  0.1616 -0.0959
  325TIP3    H125170   7.024   0.389   7.000 -0.5121 -0.7967 -1.9142
  325TIP3    H225171   6.885   0.332   7.011 -0.3936 -0.7351  0.3221
  326TIP3   OH225172   4.267   1.920   7.369  0.2460  0.2480 -0.2860
  326TIP3    H125173   4.240   1.843   7.318  2.3412 -0.3698 -0.5513
  326TIP3    H225174   4.319   1.972   7.307  0.5832  0.8434  0.4855
  327TIP3   OH225175   0.163   6.089   6.940  0.1141  0.1834 -0.2300
  327TIP3    H125176   0.246   6.137   6.935 -0.4742  1.2250 -0.3554
  327TIP3    H225177   0.184   6.010   6.989  0.8580  1.1336  1.0391
  328TIP3   OH225178   6.484   6.218   9.517 -0.0066 -0.5739 -0.2770
  328TIP3    H125179   6.481   6.124   9.533  0.2003 -0.6905 -0.9159
  328TIP3    H225180   6.535   6.253   9.591 -1.2500 -0.7805  0.7224
  329TIP3   OH225181   3.389   3.570   9.311  0.1425 -0.2223  0.4433
  329TIP3    H125182   3.329   3.542   9.242 -0.1461 -0.0615  0.6268
  329TIP3    H225183   3.369   3.512   9.385 -0.5387  0.5197  0.8648
  330TIP3   OH225184   0.202   0.552   8.132 -0.1170 -0.3233 -0.3962
  330TIP3    H125185   0.148   0.596   8.067  1.8445  2.2923 -0.4305
  330TIP3    H225186   0.157   0.567   8.215  0.1020  1.0863 -0.5215
  331TIP3   OH225187   6.596   5.916   8.494 -0.3529  0.1631 -0.1795
  331TIP3    H125188   6.516   5.915   8.443 -1.0983  2.4266  0.7926
  331TIP3    H225189   6.568   5.899   8.584  0.5361 -0.8632 -0.0721
  332TIP3   OH225190   4.659   2.113   9.773 -0.1170 -0.1036  0.3594
  332TIP3    H125191   4.620   2.150   9.852 -0.5101 -0.7921  0.5033
  332TIP3    H225192   4.585   2.103   9.712  0.2576  0.8153 -0.2513
  333TIP3   OH225193   5.982   5.058   7.171 -0.1411  0.0360 -0.8737
  333TIP3    H125194   5.948   4.969   7.181  0.5402 -0.0233  1.9376
  333TIP3    H225195   5.912   5.114   7.206  0.5429  0.3183  0.1027
  334TIP3   OH225196   4.215   6.345   9.216  0.1218  0.2293  0.7134
  334TIP3    H125197   4.127   6.341   9.178 -0.4361 -0.0608  2.0046
  334TIP3    H225198   4.225   6.437   9.243 -0.0113  0.1342  1.0882
  335TIP3   OH225199   3.159   2.576   7.504 -0.5882 -0.1305  0.2143
  335TIP3    H125200   3.194   2.491   7.476 -1.6008 -0.2022 -0.8919
  335TIP3    H225201   3.190   2.586   7.594  3.1355  0.2705 -0.9177
  336TIP3   OH225202   1.416   1.443   8.386  0.0133 -0.0646  0.3495
  336TIP3    H125203   1.461   1.416   8.466 -1.9144  0.2302  1.5954
  336TIP3    H225204   1.376   1.363   8.352 -1.0641  0.1733  0.9856
  337TIP3   OH225205   7.499   5.569   6.806  0.8027 -0.3424  0.3600
  337TIP3    H125206   7.579   5.532   6.770  0.4979  1.1116 -2.0370
  337TIP3    H225207   7.429   5.528   6.755  0.0232 -1.1293  2.0017
  338TIP3   OH225208   6.816   2.989   8.584  0.0884  0.6622 -0.7728
  338TIP3    H125209   6.890   3.007   8.643 -1.3778  1.9122  0.7954
  338TIP3    H225210   6.803   3.071   8.537 -0.9483  0.8197 -0.2415
  339TIP3   OH225211   7.477   0.329   7.039  0.2309  0.1554  0.6317
  339TIP3    H125212   7.565   0.333   7.077  1.3293 -0.2482 -1.6600
  339TIP3    H225213   7.452   0.237   7.046 -0.7365  0.5161  2.6618
  340TIP3   OH225214   1.590   4.283   7.437 -0.5668  0.4036 -0.6101
  340TIP3    H125215   1.498   4.266   7.457 -0.4345  1.0747  0.6934
  340TIP3    H225216   1.635   4.274   7.521  1.0906 -2.8989 -1.6730
  341TIP3   OH225217   5.749   1.453   9.303 -0.0092 -0.0526  0.4812
  341TIP3    H125218   5.823   1.457   9.243 -0.5176  0.4908 -0.1133
  341TIP3    H225219   5.715   1.364   9.292  0.3617 -0.2052  0.5329
  342TIP3   OH225220   3.397   7.254   7.844 -0.4441 -0.5314 -0.2551
  342TIP3    H125221   3.393   7.159   7.830 -1.0999 -0.3800 -1.1756
  342TIP3    H225222   3.466   7.265   7.909  0.2899 -1.5699 -0.8230
  343TIP3   OH225223   7.000   7.498   7.168 -0.2076  0.6526  0.2611
  343TIP3    H125224   7.094   7.494   7.152 -0.2625  0.8644 -0.1477
  343TIP3    H225225   6.963   7.523   7.083 -0.8996 -2.1679 -0.3813
  344TIP3   OH225226   6.312   4.798   8.610  0.0420 -0.4941  0.0807
  344TIP3    H125227   6.363   4.742   8.667 -0.6571 -2.4299 -1.0891
  344TIP3    H225228   6.331   4.766   8.521 -0.2985  1.2204 -0.6634
  345TIP3   OH225229   5.738   6.730   7.397  0.2287  0.2575  0.1502
  345TIP3    H125230   5.826   6.712   7.365  0.1472  0.5312 -0.2244
  345TIP3    H225231   5.681   6.672   7.346  0.1346  0.4448  0.0447
  346TIP3   OH225232   0.071   5.117   8.459  0.6611  0.0514  0.4910
  346TIP3    H125233   0.143   5.089   8.402 -0.7343  0.6069 -1.6440
  346TIP3    H225234   0.095   5.205   8.488  1.1056 -0.0062  0.3017
  347TIP3   OH225235   6.828   6.737   8.929  0.7983  0.4549  0.2704
  347TIP3    H125236   6.849   6.811   8.987  1.2561 -0.1262  0.8595
  347TIP3    H225237   6.779   6.676   8.984 -0.5953  0.8125 -0.5175
  348TIP3   OH225238   6.026   7.197   7.830  0.1989 -0.2156  0.1915
  348TIP3    H125239   6.046   7.113   7.872  1.4648  0.1592  0.3894
  348TIP3    H225240   6.086   7.259   7.871 -0.2668  0.6591 -0.4229
  349TIP3   OH225241   7.177   2.795   8.263 -0.8408 -0.5579  0.2835
  349TIP3    H125242   7.257   2.781   8.314  0.1639 -0.1149 -1.1284
  349TIP3    H225243   7.186   2.737   8.188 -1.5259  0.0087 -0.2481
  350TIP3   OH225244   2.745   5.258   7.304  0.5178 -0.4238  0.1300
  350TIP3    H125245   2.799   5.285   7.230  0.1081 -0.9099 -0.3535
  350TIP3    H225246   2.807   5.219   7.366  0.7755 -0.6259 -0.2505
  351TIP3   OH225247   1.292   4.593   9.966 -0.0775  0.0126  0.1989
  351TIP3    H125248   1.202   4.559   9.970 -0.2261  0.4600  1.1306
  351TIP3    H225249   1.308   4.626  10.055  1.5319 -1.3776  0.4713
  352TIP3   OH225250   1.161   6.575   7.521 -0.5043  0.2342  0.1129
  352TIP3    H125251   1.136   6.560   7.612  1.9320  1.7217  1.1309
  352TIP3    H225252   1.209   6.658   7.522  0.4741 -0.2036 -2.3487
  353TIP3   OH225253   2.672   2.772   9.026 -0.4698  0.6870 -0.3072
  353TIP3    H125254   2.651   2.768   9.119  0.0894 -0.8178 -0.2138
  353TIP3    H225255   2.740   2.840   9.019  0.6636 -0.2908  0.6564
  354TIP3   OH225256   6.755   0.717   9.208 -0.1043 -0.3634  0.6748
  354TIP3    H125257   6.688   0.668   9.160  0.4273  1.0308 -1.6945
  354TIP3    H225258   6.763   0.800   9.160  2.6450 -0.0960  1.4149
  355TIP3   OH225259   6.038   7.563   8.774 -0.0747 -0.1472 -0.0488
  355TIP3    H125260   6.012   7.483   8.819 -1.3769 -1.1151 -2.3541
  355TIP3    H225261   6.091   7.611   8.839 -1.9358 -1.3251  2.5305
  356TIP3   OH225262   3.246   7.538   7.620  0.3859  0.2682 -0.0254
  356TIP3    H125263   3.323   7.579   7.658  1.2657 -1.1946 -0.1608
  356TIP3    H225264   3.278   7.456   7.582 -1.4245 -1.1457  1.2593
  357TIP3   OH225265   2.604   3.603   8.860  0.1407 -0.6653 -0.3013
  357TIP3    H125266   2.585   3.638   8.947 -0.9516  0.2226 -0.8721
  357TIP3    H225267   2.562   3.665   8.800  0.7320 -1.3552 -1.4551
  358TIP3   OH225268   5.728   4.751   8.883 -0.2427 -0.5814 -0.3004
  358TIP3    H125269   5.652   4.696   8.868  0.2344 -1.3354 -0.0153
  358TIP3    H225270   5.803   4.692   8.875  0.3424  0.2205 -0.9666
  359TIP3   OH225271   7.501   7.563   8.439 -1.3366 -0.1147  0.1588
  359TIP3    H125272   7.423   7.572   8.384 -1.9938 -0.2475  1.0433
  359TIP3    H225273   7.469   7.524   8.520 -0.3185 -0.3085  0.4869
  360TIP3   OH225274   5.017   3.301   8.483  0.7409  0.2094 -0.1801
  360TIP3    H125275   5.099   3.345   8.459  0.6142  1.0509  0.8443
  360TIP3    H225276   5.035   3.263   8.569 -0.6559  2.5380  1.2479
  361TIP3   OH225277   3.621   3.681   8.194 -0.4222  0.5689  0.4544
  361TIP3    H125278   3.615   3.593   8.233  2.4483 -0.6788 -1.6020
  361TIP3    H225279   3.694   3.722   8.239  0.2873  0.6597 -0.7516
  362TIP3   OH225280   7.269   3.316   9.272  0.0332  0.1642  1.0734
  362TIP3    H125281   7.256   3.409   9.252  0.9307  0.4030  1.5145
  362TIP3    H225282   7.365   3.306   9.274  0.0071 -1.2876 -1.2714
  363TIP3   OH225283   3.765   7.423   8.864  0.0125 -0.0789 -0.2183
  363TIP3    H125284   3.750   7.370   8.786  0.0474  0.9520 -0.9390
  363TIP3    H225285   3.855   7.401   8.891  0.2041 -0.0088 -0.7996
  364TIP3   OH225286   7.502   2.982   9.397  0.0274 -0.5313 -0.2168
  364TIP3    H125287   7.419   2.962   9.352 -0.4460 -0.6026  0.6655
  364TIP3    H225288   7.479   3.054   9.456 -0.0622 -2.2351  1.9323
  365TIP3   OH225289   7.545   0.543   8.300 -0.5554 -0.2202 -0.3111
  365TIP3    H125290   7.461   0.574   8.264  0.0756 -1.1161 -2.7566
  365TIP3    H225291   7.534   0.448   8.306  0.4277 -0.3943 -1.1083
  366TIP3   OH225292   2.100   6.690   9.001 -0.1838 -0.3523 -0.2796
  366TIP3    H125293   2.139   6.667   8.917  0.5231 -0.8324  0.1709
  366TIP3    H225294   2.169   6.737   9.047 -0.8477  0.6704 -0.2839
  367TIP3   OH225295   3.262   4.142   9.792  0.1136 -0.4605  0.4185
  367TIP3    H125296   3.252   4.182   9.878  0.9326 -0.1468  0.3780
  367TIP3    H225297   3.178   4.099   9.776 -0.0908 -0.4224  1.3150
  368TIP3   OH225298   1.814   1.398   8.192 -0.2324 -0.8824 -0.0519
  368TIP3    H125299   1.768   1.453   8.256 -0.2685 -0.9719 -0.0004
  368TIP3    H225300   1.886   1.359   8.242  0.4221 -0.0614 -0.3412
  369TIP3   OH225301   4.931   7.236   8.072 -0.6399  0.2061 -0.3097
  369TIP3    H125302   4.836   7.221   8.076 -0.7532  0.4838 -1.5331
  369TIP3    H225303   4.941   7.329   8.092 -0.7751  0.5217 -1.6496
  370TIP3   OH225304   6.220   4.065   8.170  0.0906  0.2559  0.5405
  370TIP3    H125305   6.137   4.087   8.212 -0.6564 -0.5897 -0.4491
  370TIP3    H225306   6.234   3.973   8.191 -0.4626 -0.2890 -1.2426
  371TIP3   OH225307   5.796   4.117   6.683  0.0842 -0.3704 -0.4026
  371TIP3    H125308   5.714   4.075   6.709  1.5057 -1.0959  3.7253
  371TIP3    H225309   5.781   4.210   6.697 -0.5064 -0.3080 -1.3586
  372TIP3   OH225310   7.126   5.038   8.028 -0.0304  0.2211 -0.0193
  372TIP3    H125311   7.130   5.131   8.050  0.8328 -0.0697  1.1337
  372TIP3    H225312   7.069   5.000   8.094  1.0608 -0.3558  0.6132
  373TIP3   OH225313   6.774   0.059   9.718 -0.0265  0.4135 -0.2099
  373TIP3    H125314   6.791   0.096   9.804  0.5303 -2.3037  0.9682
  373TIP3    H225315   6.834   0.105   9.659 -0.5460  2.4419  0.7826
  374TIP3   OH225316   4.728   6.059   9.117  0.1019 -0.3192 -0.3359
  374TIP3    H125317   4.643   6.099   9.134  0.0971 -0.9587  1.3183
  374TIP3    H225318   4.708   5.968   9.093  0.2856 -0.2490 -0.7704
  375TIP3   OH225319   2.171   6.296   8.779 -0.1471 -0.2009 -0.5435
  375TIP3    H125320   2.230   6.368   8.758 -0.9620  0.9499  0.8928
  375TIP3    H225321   2.084   6.327   8.752 -0.4645 -0.7749 -0.2070
  376TIP3   OH225322   0.258   7.272   9.427 -0.1929  0.2246  0.1524
  376TIP3    H125323   0.335   7.328   9.427 -1.0131  1.3795  0.7250
  376TIP3    H225324   0.292   7.185   9.405  1.4049  0.5045  1.3692
  377TIP3   OH225325   2.628   6.379   8.948 -0.0464  0.0054  0.6146
  377TIP3    H125326   2.581   6.459   8.972 -0.7520 -0.6120  1.4072
  377TIP3    H225327   2.670   6.399   8.865  0.3115  1.4002  1.1040
  378TIP3   OH225328   3.629   4.207   8.157  0.1677 -0.5724 -0.2315
  378TIP3    H125329   3.646   4.118   8.187 -0.1036 -0.7601 -0.6375
  378TIP3    H225330   3.576   4.246   8.228 -1.7508 -1.4830 -1.0904
  379TIP3   OH225331   3.851   5.757   9.081  0.4219  0.5908 -0.2012
  379TIP3    H125332   3.771   5.705   9.082  0.5442  0.3869 -0.6670
  379TIP3    H225333   3.869   5.773   8.988  2.0618 -1.1959 -0.2655
  380TIP3   OH225334   6.703   6.225   8.215 -0.4548 -0.2012 -0.0145
  380TIP3    H125335   6.615   6.218   8.251 -0.5084 -4.0137 -0.4624
  380TIP3    H225336   6.759   6.185   8.282 -0.0301 -3.7084 -2.2212
  381TIP3   OH225337   3.495   5.605   7.849  0.2467  0.2594  0.3425
  381TIP3    H125338   3.407   5.573   7.827  0.4082 -0.2326  0.3834
  381TIP3    H225339   3.487   5.639   7.937  0.3183 -0.7350  0.7495
  382TIP3   OH225340   7.520   2.261   9.610 -0.1951 -1.0723  0.2811
  382TIP3    H125341   7.487   2.254   9.700  0.5124 -2.1891  0.4659
  382TIP3    H225342   7.508   2.173   9.573  0.2515 -0.8277 -0.4603
  383TIP3   OH225343   7.277   2.056   8.046 -0.0949  0.5577  0.3477
  383TIP3    H125344   7.320   2.116   8.107  1.2130 -1.4153  1.5223
  383TIP3    H225345   7.219   2.004   8.102  0.0986 -0.3811 -0.2910
  384TIP3   OH225346   4.869   4.547   8.039 -0.1669  0.2759 -0.4701
  384TIP3    H125347   4.790   4.493   8.039 -1.0545  1.5295 -0.2507
  384TIP3    H225348   4.857   4.608   7.967 -0.0962  1.4504  0.4861
  385TIP3   OH225349   2.182   6.610   7.337 -0.1645 -0.3849  0.4649
  385TIP3    H125350   2.189   6.551   7.412 -0.8126 -0.5520  0.3973
  385TIP3    H225351   2.204   6.696   7.372  1.1430 -0.7103  0.4878
  386TIP3   OH225352   7.465   6.957   9.476  0.2645 -0.1383 -0.6105
  386TIP3    H125353   7.481   7.051   9.462 -0.3203 -0.0602 -0.7979
  386TIP3    H225354   7.521   6.913   9.412  0.8244  0.0647 -0.2712
  387TIP3   OH225355   6.166   6.116   8.167 -0.1486  0.0058  0.2718
  387TIP3    H125356   6.085   6.162   8.189 -0.7225 -0.3791 -0.9273
  387TIP3    H225357   6.140   6.025   8.155  0.5549 -0.2115  0.3289
  388TIP3   OH225358   3.037   6.606   9.745 -0.0574  0.1653  0.4746
  388TIP3    H125359   3.072   6.520   9.768  0.9256  0.7304  1.1844
  388TIP3    H225360   3.102   6.643   9.685 -0.3611  0.5024  0.3510
  389TIP3   OH225361   4.260   4.099   7.928  0.6628  0.1564 -0.0697
  389TIP3    H125362   4.199   4.146   7.872 -0.3756  0.5928  1.3490
  389TIP3    H225363   4.206   4.035   7.975  1.1841  0.7958  1.4837
  390TIP3   OH225364   2.816   5.838   9.380  0.1868 -0.2080 -0.5118
  390TIP3    H125365   2.763   5.807   9.307  1.3308 -1.0118 -1.0224
  390TIP3    H225366   2.900   5.794   9.370 -0.0893 -1.5595  2.1678
  391TIP3   OH225367   4.063   3.524   8.195 -0.1432 -0.4851 -0.0471
  391TIP3    H125368   4.083   3.469   8.119  1.4756  0.5876 -0.4614
  391TIP3    H225369   4.038   3.463   8.264  0.6724 -1.6659 -0.7692
  392TIP3   OH225370   2.058   5.956   7.478 -0.4993  0.5404  0.4916
  392TIP3    H125371   2.107   6.026   7.522 -0.5549  0.6379  0.4004
  392TIP3    H225372   1.970   5.962   7.515 -0.0840 -0.5831  1.7414
  393TIP3   OH225373   3.131   2.042   8.460  0.2966  0.3413  0.5289
  393TIP3    H125374   3.187   2.118   8.471  0.1657  0.6080 -0.5275
  393TIP3    H225375   3.050   2.077   8.422  0.9447 -0.5456 -1.7916
  394TIP3   OH225376   4.901   0.281   6.899  0.2014 -0.1839 -0.0812
  394TIP3    H125377   4.873   0.268   6.809 -0.1245  1.3730 -0.2335
  394TIP3    H225378   4.849   0.355   6.930  0.1779 -0.7880  1.4519
  395TIP3   OH225379   0.044   2.560   8.682 -0.1779  0.1731 -0.3389
  395TIP3    H125380   0.036   2.578   8.776 -2.3011 -0.6738 -0.3134
  395TIP3    H225381  -0.029   2.607   8.642  0.5127  0.2584 -1.5599
  396TIP3   OH225382   4.677   6.084   6.673  0.2206 -0.2718  0.1414
  396TIP3    H125383   4.702   6.168   6.709  0.8053  1.0819 -3.0665
  396TIP3    H225384   4.626   6.105   6.595 -1.3289 -2.9375  0.2919
  397TIP3   OH225385   6.998   6.821   7.718 -0.6880  0.5936 -0.7737
  397TIP3    H125386   6.944   6.770   7.779 -0.1494 -0.6236 -1.2934
  397TIP3    H225387   6.990   6.775   7.635  0.7813  0.6550 -0.9740
  398TIP3   OH225388   6.883   5.658   7.931  0.6027 -0.0296  0.1903
  398TIP3    H125389   6.834   5.598   7.986  2.6374 -1.4720  0.5179
  398TIP3    H225390   6.935   5.710   7.992 -0.3361  1.3711 -0.1585
  399TIP3   OH225391   0.292   1.506   9.451 -0.0384  0.8456 -0.6498
  399TIP3    H125392   0.378   1.467   9.438  0.9189  1.9225  1.7188
  399TIP3    H225393   0.238   1.435   9.487  0.3381  0.5726 -0.6267
  400TIP3   OH225394   2.245   7.064   8.973 -0.2776  0.4306 -0.1285
  400TIP3    H125395   2.186   7.022   8.911  1.2993 -1.6003 -0.3517
  400TIP3    H225396   2.198   7.063   9.056 -2.2572  2.8294 -1.0948
  401TIP3   OH225397   2.158   5.731   7.372 -0.9376 -0.1524  0.0811
  401TIP3    H125398   2.129   5.739   7.281 -1.3662  2.2959  0.3781
  401TIP3    H225399   2.118   5.805   7.417  1.7334  0.4729  1.6192
  402TIP3   OH225400   5.810   2.760   8.534  0.2922 -0.2332 -0.0282
  402TIP3    H125401   5.767   2.841   8.507  0.2315  0.1783  1.2631
  402TIP3    H225402   5.805   2.760   8.629  3.9002  0.2914  0.3094
  403TIP3   OH225403   4.848   6.059   9.375 -0.5286 -0.0575  0.1124
  403TIP3    H125404   4.778   6.029   9.433 -2.1003  0.9942 -1.1393
  403TIP3    H225405   4.810   6.054   9.287  0.7324  1.1592 -0.5468
  404TIP3   OH225406   2.694   5.461   8.084  0.2444 -0.1058  0.5773
  404TIP3    H125407   2.780   5.447   8.125 -0.3646 -1.2535  1.5348
  404TIP3    H225408   2.634   5.407   8.135 -1.0651  0.6757 -0.0700
  405TIP3   OH225409   5.768   2.503   8.370 -0.4311  0.6291  0.4420
  405TIP3    H125410   5.861   2.489   8.387 -0.6252 -0.8204  0.4300
  405TIP3    H225411   5.756   2.598   8.377  1.2937  0.9933 -0.8194
  406TIP3   OH225412   4.693   7.143   9.773  0.1170 -0.7024  0.6234
  406TIP3    H125413   4.724   7.227   9.739 -0.8357 -0.4467  0.3349
  406TIP3    H225414   4.770   7.102   9.813  1.4147 -1.1856 -2.1413
  407TIP3   OH225415   1.614   1.941   7.454  0.0416 -0.0049  0.3924
  407TIP3    H125416   1.604   1.989   7.536 -2.5468  0.7597 -0.2869
  407TIP3    H225417   1.602   2.007   7.386  0.0601 -0.9880 -0.5830
  408TIP3   OH225418   6.308   0.056   7.204  0.0628  0.4289 -0.1193
  408TIP3    H125419   6.219   0.069   7.171 -0.0708 -1.2914 -0.5494
  408TIP3    H225420   6.333   0.140   7.241 -2.2287  0.6210  1.1761
  409TIP3   OH225421   1.700   1.197   7.712 -0.2089 -0.2065 -0.4898
  409TIP3    H125422   1.748   1.117   7.732  0.4327 -0.0574 -1.3959
  409TIP3    H225423   1.610   1.167   7.695  0.2210 -0.8743 -1.7508
  410TIP3   OH225424   6.987   1.530   8.433 -0.0056  0.0288  0.3720
  410TIP3    H125425   6.926   1.563   8.366  1.5411  1.6640 -0.3241
  410TIP3    H225426   7.046   1.472   8.385 -1.0764 -1.7416  1.0889
  411TIP3   OH225427   5.452   5.062   9.415 -0.0389 -0.0772  0.1033
  411TIP3    H125428   5.535   5.015   9.416  1.1399  1.9247  0.1837
  411TIP3    H225429   5.415   5.046   9.502 -0.8512 -2.6991 -0.6027
  412TIP3   OH225430   4.924   2.882   7.975  0.1010  0.3078  0.0268
  412TIP3    H125431   4.878   2.799   7.962  0.6279  0.1013 -0.6006
  412TIP3    H225432   5.013   2.855   8.000  0.6251  0.6602 -1.4006
  413TIP3   OH225433   6.170   3.790   6.515 -0.0744 -0.0942  0.0613
  413TIP3    H125434   6.246   3.843   6.540 -1.3473  1.7875  0.1308
  413TIP3    H225435   6.202   3.735   6.443  0.7736  2.4239 -1.6276
  414TIP3   OH225436   2.304   4.890   7.240  0.3099  0.2462 -0.1494
  414TIP3    H125437   2.385   4.921   7.200  1.7280 -0.0137  2.2742
  414TIP3    H225438   2.281   4.812   7.190  0.5514  1.2973 -1.9823
  415TIP3   OH225439   2.083   5.919   9.248 -0.2569  0.0935  0.0894
  415TIP3    H125440   2.059   5.922   9.155  0.6085 -0.3139 -0.1522
  415TIP3    H225441   2.176   5.940   9.250 -0.1790 -0.2869  0.8305
  416TIP3   OH225442   6.343   6.741   9.391 -0.5521 -0.0131 -0.5637
  416TIP3    H125443   6.401   6.666   9.378  2.0964  1.8367 -0.3373
  416TIP3    H225444   6.297   6.750   9.308 -0.1858 -1.2732 -0.9277
  417TIP3   OH225445   7.417   6.485   8.940  0.1204  0.2890 -0.3123
  417TIP3    H125446   7.371   6.506   8.859 -1.2350  1.1679  0.6419
  417TIP3    H225447   7.476   6.413   8.916  0.6951  1.3438 -2.3648
  418TIP3   OH225448   2.036   1.380   9.244  0.0250 -0.3378  0.1052
  418TIP3    H125449   2.065   1.342   9.327 -0.0663  1.1735  0.8696
  418TIP3    H225450   2.115   1.389   9.191  0.6460  1.5671  1.2621
  419TIP3   OH225451   2.798   6.705   9.693  0.0904  0.6454  0.1695
  419TIP3    H125452   2.882   6.665   9.715  0.0948  0.7639  0.3706
  419TIP3    H225453   2.733   6.651   9.737  0.0064  0.1217 -0.5794
  420TIP3   OH225454   2.927   4.224   7.702  0.6742  0.1597 -0.2077
  420TIP3    H125455   3.017   4.199   7.724  1.5129  0.5073 -2.8669
  420TIP3    H225456   2.880   4.141   7.695  1.2212 -0.1400 -0.4081
  421TIP3   OH225457   6.560   5.163   7.880  0.0190 -0.0196  0.0888
  421TIP3    H125458   6.580   5.231   7.816 -1.4887  0.9992  0.6522
  421TIP3    H225459   6.633   5.100   7.872  2.2394  2.3283  0.5163
  422TIP3   OH225460   2.193   0.640   7.188 -0.0916  0.2171 -0.3557
  422TIP3    H125461   2.262   0.674   7.130  1.2885 -2.1132 -0.1959
  422TIP3    H225462   2.225   0.660   7.276  0.0423 -0.2338 -0.2998
  423TIP3   OH225463   0.430   4.261   7.738  0.0314 -0.3563  0.2766
  423TIP3    H125464   0.355   4.280   7.682  1.2149 -0.6253 -1.4671
  423TIP3    H225465   0.453   4.345   7.777 -0.7614 -0.1527  0.3164
  424TIP3   OH225466   2.359   2.982   8.647 -0.5844 -0.3173 -0.1926
  424TIP3    H125467   2.306   3.059   8.667  0.0512 -0.0854  0.6916
  424TIP3    H225468   2.313   2.939   8.576 -1.5849  0.2423  0.0936
  425TIP3   OH225469   1.581   3.601   7.645  0.1685 -0.4713  0.3982
  425TIP3    H125470   1.653   3.635   7.592 -0.5167 -0.0489 -0.2777
  425TIP3    H225471   1.559   3.518   7.604 -1.5107  0.6447 -1.1050
  426TIP3   OH225472   2.504   0.195   7.393 -0.0597  0.4206  0.1592
  426TIP3    H125473   2.562   0.145   7.335  0.9956 -0.3345  1.8075
  426TIP3    H225474   2.440   0.131   7.423 -1.3843  1.0994 -1.1250
  427TIP3   OH225475   0.758   1.185   7.674 -0.1621  0.2743  0.0929
  427TIP3    H125476   0.756   1.146   7.587 -0.6182 -0.2950  0.3509
  427TIP3    H225477   0.846   1.167   7.706 -0.2203 -0.1388  0.0246
  428TIP3   OH225478   4.409   6.661   7.221 -0.1649 -0.4742  0.0872
  428TIP3    H125479   4.480   6.706   7.267  1.0744 -1.4889 -0.7710
  428TIP3    H225480   4.408   6.573   7.258 -0.6326 -0.6373 -0.3017
  429TIP3   OH225481   2.774   0.415   8.315 -0.1901 -0.1469 -0.1430
  429TIP3    H125482   2.687   0.433   8.281  0.8872  3.1425 -1.5501
  429TIP3    H225483   2.827   0.491   8.289  3.1767 -2.0785  0.4210
  430TIP3   OH225484   6.087   0.012   8.485 -0.2722  0.2603 -0.2028
  430TIP3    H125485   6.060   0.003   8.576 -1.3356  1.4814 -0.3728
  430TIP3    H225486   6.021  -0.036   8.434 -0.2343  0.4121 -0.3975
  431TIP3   OH225487   2.945   2.721   9.533  0.3579  0.2067  0.0774
  431TIP3    H125488   3.036   2.709   9.508  1.0983  2.1906  1.5168
  431TIP3    H225489   2.931   2.815   9.526 -1.3827  0.0100  0.5353
  432TIP3   OH225490   0.053   7.483   9.384 -0.4361  0.0693  0.2042
  432TIP3    H125491   0.075   7.511   9.295 -2.1011  0.4928 -0.1017
  432TIP3    H225492   0.130   7.435   9.413  0.8973  1.5355 -0.7606
  433TIP3   OH225493   7.208   3.738   8.841 -0.4492 -1.1694  0.5155
  433TIP3    H125494   7.184   3.806   8.777  0.3431 -0.9428  0.4519
  433TIP3    H225495   7.276   3.778   8.894 -0.5839 -1.6216  1.0365
  434TIP3   OH225496   6.674   2.414   8.892 -0.4945 -1.0163  0.1227
  434TIP3    H125497   6.584   2.397   8.922 -0.9396 -0.6047 -0.9338
  434TIP3    H225498   6.721   2.438   8.972 -1.8363  0.8567  0.4086
  435TIP3   OH225499   4.899   2.797   9.119  0.0236  0.3486  0.1359
  435TIP3    H125500   4.939   2.869   9.169  0.1885  1.4841 -1.5554
  435TIP3    H225501   4.847   2.750   9.184  0.1831  1.7862  1.3758
  436TIP3   OH225502   1.385   5.596   7.720  0.1688  0.0483 -0.4144
  436TIP3    H125503   1.465   5.639   7.751  0.3903 -0.4098 -0.3471
  436TIP3    H225504   1.348   5.658   7.657 -0.1817  0.9002  0.5943
  437TIP3   OH225505   3.287   4.989   8.285  0.2913 -0.2060  0.4573
  437TIP3    H125506   3.359   5.035   8.241 -0.1733  0.8689  0.7812
  437TIP3    H225507   3.276   5.036   8.368 -0.7895 -0.3372  0.4030
  438TIP3   OH225508   3.494   4.330   7.818  0.0572  0.0299  0.2515
  438TIP3    H125509   3.537   4.283   7.747  0.3291  0.4087  0.1662
  438TIP3    H225510   3.560   4.337   7.887 -0.7124 -1.8612  1.2564
  439TIP3   OH225511   3.652   2.378   8.553  0.0984  0.3504 -0.9312
  439TIP3    H125512   3.686   2.460   8.588  0.4154 -0.2752  0.3087
  439TIP3    H225513   3.563   2.372   8.588  0.1043  0.1334 -0.9507
  440TIP3   OH225514   4.537   6.668   7.554 -0.1487 -0.2436 -0.1945
  440TIP3    H125515   4.573   6.618   7.481 -0.5641  0.1483 -0.6819
  440TIP3    H225516   4.609   6.723   7.583 -0.3027  0.4713 -1.1077
  441TIP3   OH225517   2.610   7.410   7.289 -0.1908  0.1595  0.3814
  441TIP3    H125518   2.602   7.499   7.255 -1.3280  1.0125  2.5924
  441TIP3    H225519   2.569   7.355   7.223 -0.0928  1.3705 -0.7236
  442TIP3   OH225520   2.621   5.703   7.425  0.4723  0.2581  0.6099
  442TIP3    H125521   2.652   5.792   7.408  1.6470 -0.3785 -0.7985
  442TIP3    H225522   2.697   5.647   7.408 -1.2319 -1.3794 -2.5882
  443TIP3   OH225523   1.031   0.451   9.686 -0.0224  0.6853 -0.2481
  443TIP3    H125524   0.942   0.483   9.673 -0.1422 -0.2303 -1.9319
  443TIP3    H225525   1.022   0.356   9.687  0.9788  0.5721 -0.8035
  444TIP3   OH225526   5.585   6.722   6.531  0.0486  0.4320  0.2157
  444TIP3    H125527   5.645   6.654   6.561 -0.3961 -0.1288 -0.1366
  444TIP3    H225528   5.640   6.798   6.516  0.5884  0.0856  0.4274
  445TIP3   OH225529   1.031   2.767   9.315  0.4391 -0.6081  0.1226
  445TIP3    H125530   1.051   2.859   9.299  1.6752 -0.8082  0.3401
  445TIP3    H225531   1.105   2.736   9.368  0.2712 -1.8266 -0.3157
  446TIP3   OH225532   1.555   4.707   9.055  0.2553  0.6816 -0.4975
  446TIP3    H125533   1.549   4.614   9.033 -0.4619  1.1157 -2.3452
  446TIP3    H225534   1.476   4.745   9.017  0.9181  2.1677 -0.4542
  447TIP3   OH225535   7.180   2.668   9.584  0.3284  0.0314 -0.2073
  447TIP3    H125536   7.183   2.761   9.564 -1.0157 -0.3145 -2.3083
  447TIP3    H225537   7.272   2.641   9.588  0.7236  1.3662  0.1921
  448TIP3   OH225538   0.258   4.717   8.383  0.5647 -0.0743 -0.3451
  448TIP3    H125539   0.235   4.631   8.417 -2.1646  1.1149  1.1385
  448TIP3    H225540   0.266   4.772   8.461  0.2046  1.4529 -1.3391
  449TIP3   OH225541   6.566   2.682   7.748 -0.1622  0.3142 -0.3026
  449TIP3    H125542   6.496   2.618   7.764 -0.4527  0.7354  0.1556
  449TIP3    H225543   6.549   2.751   7.812 -1.0947  1.8606 -2.1350
  450TIP3   OH225544   1.555   0.685   7.765  0.2130  0.2759 -0.1736
  450TIP3    H125545   1.558   0.741   7.842 -1.0992 -0.0373  0.1334
  450TIP3    H225546   1.519   0.602   7.797 -1.5347  0.5389 -1.3349
  451TIP3   OH225547   4.583   6.782   8.083 -0.2549 -0.1025  0.4918
  451TIP3    H125548   4.515   6.807   8.146 -0.2669  0.5643  0.2189
  451TIP3    H225549   4.554   6.698   8.048 -1.7958  0.9507 -0.8486
  452TIP3   OH225550   2.358   6.398   9.243 -0.4718  0.2495  0.1275
  452TIP3    H125551   2.335   6.484   9.280 -0.2993  0.8431 -1.0915
  452TIP3    H225552   2.288   6.380   9.181  0.0729  0.0349 -0.4339
  453TIP3   OH225553   3.648   1.340   9.108 -0.1772  0.5814 -0.2799
  453TIP3    H125554   3.630   1.421   9.155  1.1721  0.1485  1.0452
  453TIP3    H225555   3.713   1.294   9.161 -1.3381 -1.6701 -0.6467
  454TIP3   OH225556   4.853   5.891   6.802  0.1410 -0.6649  0.1587
  454TIP3    H125557   4.909   5.865   6.730  0.3340 -3.4618  1.2148
  454TIP3    H225558   4.810   5.971   6.771  1.4610 -0.8352 -2.3517
  455TIP3   OH225559   5.891   2.481   8.858 -0.3772 -0.5440  0.0757
  455TIP3    H125560   5.917   2.416   8.923 -0.6808  0.1931  0.9461
  455TIP3    H225561   5.808   2.516   8.890 -0.3340  0.1029 -0.4992
  456TIP3   OH225562   0.303   5.188   8.630 -0.5938 -0.8144 -0.0699
  456TIP3    H125563   0.360   5.144   8.567 -1.0372 -0.4486 -0.7424
  456TIP3    H225564   0.354   5.263   8.660 -0.5259 -0.7675 -0.2940
  457TIP3   OH225565   3.853   0.521   8.835  0.0815  0.1431  0.4667
  457TIP3    H125566   3.878   0.613   8.843  0.3918  0.0298  0.7908
  457TIP3    H225567   3.835   0.493   8.924 -2.5169  0.5701  0.1668
  458TIP3   OH225568   4.661   2.932   7.275  0.1870 -0.2932 -0.4143
  458TIP3    H125569   4.724   2.987   7.322 -0.4852 -0.1093  0.3057
  458TIP3    H225570   4.668   2.959   7.184  0.4933  0.3726 -0.2002
  459TIP3   OH225571   1.787   3.644   9.201  0.4491  0.0083  0.0474
  459TIP3    H125572   1.873   3.617   9.169  0.0430 -0.8967 -0.3107
  459TIP3    H225573   1.752   3.566   9.245 -0.8474 -0.1566 -1.2130
  460TIP3   OH225574   3.811   2.098   7.280 -0.2337  0.1303 -0.1257
  460TIP3    H125575   3.858   2.176   7.309 -0.8663  0.3161  0.4297
  460TIP3    H225576   3.749   2.130   7.215  0.3873 -0.1134 -0.8510
  461TIP3   OH225577   5.741   0.223   9.315 -0.7287  0.1178  0.2286
  461TIP3    H125578   5.810   0.203   9.251 -1.8732 -1.5736 -0.5615
  461TIP3    H225579   5.789   0.248   9.394  0.7574  0.3485 -0.6851
  462TIP3   OH225580   4.622   3.621   9.266 -0.5470  0.3908 -0.0195
  462TIP3    H125581   4.590   3.542   9.223 -0.4329  0.0257  0.5500
  462TIP3    H225582   4.717   3.612   9.266 -0.5812 -0.4210  1.7489
  463TIP3   OH225583   3.589   2.179   7.684 -0.1995  0.1698 -0.3203
  463TIP3    H125584   3.547   2.170   7.769  1.1713 -2.1211  0.2022
  463TIP3    H225585   3.662   2.239   7.700 -1.1664  1.4290 -0.4394
  464TIP3   OH225586   7.140   7.115   8.248  0.0494 -0.0064  0.1662
  464TIP3    H125587   7.218   7.118   8.304  0.2693 -3.1485  0.2526
  464TIP3    H225588   7.175   7.106   8.159 -0.0674 -2.3681  0.2804
  465TIP3   OH225589   0.836   0.761   8.368  0.0773  0.2965 -0.4454
  465TIP3    H125590   0.873   0.700   8.432 -1.8861 -0.2747  0.2295
  465TIP3    H225591   0.875   0.846   8.390 -0.9907  0.2380  1.9720
  466TIP3   OH225592   5.594   4.118   8.666  0.1863 -0.1876 -0.1519
  466TIP3    H125593   5.644   4.158   8.595  2.8654 -1.7090  0.7267
  466TIP3    H225594   5.618   4.169   8.744  0.8747 -1.2892  0.3770
  467TIP3   OH225595   7.029   2.887   7.128  0.0171  0.7534 -0.1055
  467TIP3    H125596   6.995   2.911   7.042 -0.3477  2.8387  0.5590
  467TIP3    H225597   6.971   2.931   7.190  0.2442 -0.7314  1.2290
  468TIP3   OH225598   0.297   1.890   9.167  0.3476 -0.3387  0.5564
  468TIP3    H125599   0.258   1.806   9.191  1.0907 -0.5243  1.1810
  468TIP3    H225600   0.343   1.873   9.085  1.3569 -0.8342  1.1984
  469TIP3   OH225601   7.336   0.931   9.012  0.2471  0.2580  0.9108
  469TIP3    H125602   7.369   0.938   8.922  1.9180 -1.9965  1.2705
  469TIP3    H225603   7.241   0.936   9.003  0.3372 -0.6616 -1.0947
  470TIP3   OH225604   1.139   1.512   8.750  0.2586 -0.0887  0.0252
  470TIP3    H125605   1.101   1.543   8.668 -1.6708  0.5136  1.0732
  470TIP3    H225606   1.068   1.463   8.792  1.6189 -1.5014  0.7630
  471TIP3   OH225607   0.828   4.328   6.956  0.5292  0.2983 -0.5288
  471TIP3    H125608   0.882   4.301   6.881  1.2915 -0.2344  0.1914
  471TIP3    H225609   0.763   4.387   6.918  0.1028 -0.9472 -1.8291
  472TIP3   OH225610   5.491   0.941   8.021  0.2564 -0.1805  0.3673
  472TIP3    H125611   5.507   0.896   8.104  1.6240 -0.7444 -0.1779
  472TIP3    H225612   5.556   0.904   7.960 -0.2596  0.7171 -0.7712
  473TIP3   OH225613   1.839   0.294   9.681 -0.2140 -0.0407 -0.3333
  473TIP3    H125614   1.838   0.228   9.613 -0.6348 -1.7464  1.2493
  473TIP3    H225615   1.788   0.256   9.753  1.4202  1.0273  1.4959
  474TIP3   OH225616   7.211   2.973   9.185 -0.1264  0.6630 -0.0021
  474TIP3    H125617   7.252   2.963   9.099  1.3114  0.5203  0.6680
  474TIP3    H225618   7.187   3.065   9.190  1.7806  1.1809  0.2656
  475TIP3   OH225619   5.475   5.955   7.224 -0.5716  0.1694  0.1368
  475TIP3    H125620   5.433   6.028   7.179  1.1890 -0.0712 -2.0369
  475TIP3    H225621   5.469   5.881   7.164 -0.6353 -0.9870  1.4943
  476TIP3   OH225622   4.300   0.381   8.734 -0.0154 -0.0184  0.0395
  476TIP3    H125623   4.391   0.404   8.715 -0.3271  0.5740 -0.7652
  476TIP3    H225624   4.263   0.355   8.650 -1.0942  1.5422 -0.0114
  477TIP3   OH225625   1.374   2.191   7.440  0.4875  0.2265  0.1861
  477TIP3    H125626   1.434   2.158   7.373  0.7795 -2.0505  1.4499
  477TIP3    H225627   1.400   2.144   7.520 -1.4885  0.9246  1.2997
  478TIP3   OH225628   4.465   1.899   7.062  0.0048  0.0019 -0.3063
  478TIP3    H125629   4.481   1.971   7.124  1.2823 -0.3813 -0.1714
  478TIP3    H225630   4.548   1.887   7.017 -0.0941 -1.5725 -0.1274
  479TIP3   OH225631   6.115   6.460   9.604 -0.7382 -0.1098  0.0293
  479TIP3    H125632   6.064   6.446   9.684  1.3786  1.7552  1.8323
  479TIP3    H225633   6.154   6.374   9.585 -0.7593 -0.4375  1.3902
  480TIP3   OH225634   0.441   4.770   7.366  0.7307 -0.0182 -0.1834
  480TIP3    H125635   0.364   4.760   7.422 -0.8295  0.9837 -2.0134
  480TIP3    H225636   0.442   4.690   7.313  2.4235 -1.1421  1.4157
  481TIP3   OH225637   1.495   2.169   9.257  0.3853  0.3482 -0.5734
  481TIP3    H125638   1.400   2.164   9.269  0.6292 -1.7300  1.1144
  481TIP3    H225639   1.515   2.096   9.197  0.9596  0.5286 -0.6077
  482TIP3   OH225640   1.221   2.456   7.520 -0.0633 -0.0351 -0.0237
  482TIP3    H125641   1.204   2.428   7.610 -0.5183  0.1654 -0.0448
  482TIP3    H225642   1.271   2.384   7.482  0.1848 -0.0946  0.4058
  483TIP3   OH225643   5.273   5.717   7.372 -0.2938  0.6087  0.0196
  483TIP3    H125644   5.243   5.627   7.377  1.1161  0.1911  1.9890
  483TIP3    H225645   5.360   5.712   7.331 -1.4047  1.4607 -2.6720
  484TIP3   OH225646   2.472   1.000   8.409 -0.2656 -0.2629  0.6447
  484TIP3    H125647   2.385   1.021   8.375  0.2750 -0.4830 -0.9632
  484TIP3    H225648   2.523   1.080   8.396 -0.3113  0.0252  2.0197
  485TIP3   OH225649   0.594   3.146   8.934  0.4469 -0.0645  0.5510
  485TIP3    H125650   0.557   3.098   9.007  1.8007 -2.4669 -0.2395
  485TIP3    H225651   0.545   3.116   8.858  1.7614 -0.7836 -0.0501
  486TIP3   OH225652   5.148   5.937   8.527  0.1544  0.3514 -0.4915
  486TIP3    H125653   5.223   5.993   8.548  0.4151 -0.1644 -0.0122
  486TIP3    H225654   5.073   5.982   8.564 -0.1438  2.0324 -2.9165
  487TIP3   OH225655   7.004   5.869   9.234 -0.2305 -0.6666  0.3579
  487TIP3    H125656   6.974   5.947   9.281  0.0237 -0.2876 -0.0969
  487TIP3    H225657   7.096   5.887   9.215 -0.7640  0.0108 -1.8979
  488TIP3   OH225658   1.943   3.475   8.948  0.1983  0.6466 -0.3909
  488TIP3    H125659   2.038   3.465   8.957  0.3189  1.0444 -1.1283
  488TIP3    H225660   1.915   3.396   8.901  0.0443  0.1602  0.4939
  489TIP3   OH225661   2.705   4.386   8.844  0.2759 -0.2323  0.6219
  489TIP3    H125662   2.760   4.310   8.828  1.1486 -0.4482  3.8511
  489TIP3    H225663   2.744   4.456   8.792  1.3203 -1.2791 -0.0316
  490TIP3   OH225664   6.444   6.883   7.729  0.3167 -0.5074 -0.0598
  490TIP3    H125665   6.470   6.823   7.799  0.3643 -1.6200 -1.0033
  490TIP3    H225666   6.519   6.941   7.718  1.1248 -1.6188 -0.5540
  491TIP3   OH225667   2.429   0.829   7.282  0.1407  0.3380  0.4309
  491TIP3    H125668   2.395   0.766   7.346  0.5636  1.5886  1.9665
  491TIP3    H225669   2.439   0.779   7.201  1.0568 -1.7275  1.7427
  492TIP3   OH225670   7.138   5.612   8.032  0.3769  0.5042 -0.3887
  492TIP3    H125671   7.101   5.560   7.960  1.2290  0.6282 -0.9281
  492TIP3    H225672   7.130   5.554   8.108 -0.1548  0.2077 -0.6574
  493TIP3   OH225673   5.115   5.605   9.304 -0.0623 -0.2415 -0.4069
  493TIP3    H125674   5.065   5.666   9.359  0.1344 -1.0963  0.7660
  493TIP3    H225675   5.049   5.552   9.260 -0.2060 -0.1537 -0.2993
  494TIP3   OH225676   4.735   5.768   7.318  0.6349 -0.3479 -0.4979
  494TIP3    H125677   4.641   5.763   7.333  0.3562  0.7597 -1.6971
  494TIP3    H225678   4.769   5.683   7.348 -0.6845 -0.6370  0.2474
  495TIP3   OH225679   0.621   3.830   8.274  0.1623  0.2179 -1.0135
  495TIP3    H125680   0.567   3.756   8.303 -0.1856  1.1500  0.9227
  495TIP3    H225681   0.688   3.838   8.342  1.8849  0.0231 -2.6004
  496TIP3   OH225682   2.690   6.600   8.493  0.0721 -0.1168  0.4581
  496TIP3    H125683   2.748   6.532   8.462 -1.2060  0.2025 -3.0822
  496TIP3    H225684   2.736   6.682   8.475  0.3187  0.0662  1.8103
  497TIP3   OH225685   3.716   6.233   7.269  0.7832 -0.0344  0.0700
  497TIP3    H125686   3.774   6.162   7.298  0.9701  0.0021 -0.2144
  497TIP3    H225687   3.763   6.274   7.196  0.4422  0.0563 -0.0977
  498TIP3   OH225688   4.322   3.091   7.013  0.2103 -0.0549  0.1440
  498TIP3    H125689   4.347   2.999   7.018  2.1692  0.3554 -0.9636
  498TIP3    H225690   4.230   3.092   7.038  0.1454 -2.3063  0.2262
  499TIP3   OH225691   6.211   2.384   8.877 -0.0389 -0.1997  0.0063
  499TIP3    H125692   6.294   2.386   8.925 -0.5389 -2.6643  1.1620
  499TIP3    H225693   6.156   2.449   8.922  0.6030 -0.0527  0.5983
  500TIP3   OH225694   7.369   2.602   8.144  0.2031 -0.0266  0.1188
  500TIP3    H125695   7.338   2.530   8.199 -0.9481  1.2283  1.1720
  500TIP3    H225696   7.425   2.654   8.202  2.0925 -0.7292 -0.9940
  501TIP3   OH225697   1.774   5.610   8.976  0.4727 -0.3609 -0.2761
  501TIP3    H125698   1.755   5.516   8.986  1.4834 -0.5051  0.5299
  501TIP3    H225699   1.836   5.628   9.046  0.2515  0.9353 -0.4017
  502TIP3   OH225700   5.484   2.221   8.378 -0.0090 -0.5650  0.2644
  502TIP3    H125701   5.536   2.286   8.333  1.0292 -0.8141  1.0591
  502TIP3    H225702   5.420   2.191   8.313 -1.1992  1.9395  0.1598
  503TIP3   OH225703   7.328   1.559   8.613  0.0875  0.3296  0.4568
  503TIP3    H125704   7.401   1.575   8.672  0.3227  0.1864  0.2074
  503TIP3    H225705   7.358   1.589   8.527  0.3194 -0.8440  0.1029
  504TIP3   OH225706   0.553   1.271   6.962  0.5405 -0.1307  0.1322
  504TIP3    H125707   0.497   1.348   6.963 -0.2631 -0.6984  1.9884
  504TIP3    H225708   0.497   1.201   6.929  0.6676 -0.3491  0.3774
  505TIP3   OH225709   5.984   2.738   7.265 -0.3904  0.4115 -0.1181
  505TIP3    H125710   6.018   2.757   7.178  0.4300  1.5417  0.4079
  505TIP3    H225711   5.913   2.801   7.277 -2.2325 -1.4261 -0.9126
  506TIP3   OH225712   5.942   6.958   8.416 -0.3230  0.3340 -0.6453
  506TIP3    H125713   6.012   6.908   8.459 -1.7915 -1.3419 -0.0743
  506TIP3    H225714   5.913   6.903   8.344 -2.8056 -0.2973  0.7253
  507TIP3   OH225715   2.085   4.769   6.676 -0.1348  0.0727 -0.2670
  507TIP3    H125716   2.133   4.832   6.623  0.8410  2.4162  3.0755
  507TIP3    H225717   2.021   4.821   6.724 -1.2366 -1.9353  0.5856
  508TIP3   OH225718   0.459   3.425   8.638  0.7439 -1.0852  0.2796
  508TIP3    H125719   0.535   3.477   8.615  1.9829 -2.7494  0.4435
  508TIP3    H225720   0.443   3.369   8.561 -1.3319  0.3155 -0.4004
  509TIP3   OH225721   4.221   0.064   7.539 -0.0775  0.5050 -0.7330
  509TIP3    H125722   4.162   0.118   7.590  0.5120 -1.0234  1.7408
  509TIP3    H225723   4.309   0.091   7.567  0.2431 -0.8024 -0.3881
  510TIP3   OH225724   3.707   2.992   9.153  0.4689 -0.2282 -0.3718
  510TIP3    H125725   3.711   2.907   9.109 -0.4690 -0.0366 -0.8464
  510TIP3    H225726   3.756   2.978   9.234  3.7818 -0.1150 -2.1538
  511TIP3   OH225727   2.545   2.723   8.125 -0.0305  0.3205 -0.8974
  511TIP3    H125728   2.520   2.739   8.216  0.1451  0.0917 -0.8049
  511TIP3    H225729   2.594   2.641   8.128  2.4477  1.7223 -0.7651
  512TIP3   OH225730   1.799   0.537   7.958 -0.1110  0.6112 -0.8092
  512TIP3    H125731   1.810   0.577   8.044  0.6322  0.7126 -0.9387
  512TIP3    H225732   1.724   0.582   7.919 -1.0490 -0.0905  0.1489
  513TIP3   OH225733   4.396   4.238   7.369 -0.3770  0.0122 -0.1486
  513TIP3    H125734   4.382   4.249   7.275 -0.7026  1.0840  0.0199
  513TIP3    H225735   4.352   4.312   7.409  1.1974  0.5029  0.7599
  514TIP3   OH225736   0.223   4.610   9.402  0.4192  0.2792  0.4120
  514TIP3    H125737   0.204   4.542   9.338 -0.0993  1.5799 -0.8766
  514TIP3    H225738   0.151   4.604   9.465  0.4558 -0.4297  0.3980
  515TIP3   OH225739   1.605   1.678   8.894 -0.5648  0.3234  0.0081
  515TIP3    H125740   1.603   1.773   8.885 -0.9868  0.2437 -0.8056
  515TIP3    H225741   1.517   1.650   8.869 -0.5258 -0.2600  0.5083
  516TIP3   OH225742   1.446   5.112   8.405 -0.1553 -0.1601  0.2103
  516TIP3    H125743   1.429   5.183   8.343  1.2511  0.3816  0.4076
  516TIP3    H225744   1.497   5.153   8.475  0.3040 -1.2718  0.5477
  517TIP3   OH225745   3.196   4.271   8.023 -0.7256  0.0610 -0.4573
  517TIP3    H125746   3.212   4.300   7.933 -0.0120 -0.5504 -0.5316
  517TIP3    H225747   3.137   4.338   8.059 -0.3176  0.7825 -1.1028
  518TIP3   OH225748   1.800   7.222   8.190  0.7001 -0.1801 -0.3217
  518TIP3    H125749   1.761   7.262   8.267 -0.1966  1.5769 -1.6154
  518TIP3    H225750   1.861   7.157   8.225 -0.8540 -0.6016  1.8237
  519TIP3   OH225751   6.935   3.310   9.511  0.2808  0.0743  0.1138
  519TIP3    H125752   6.859   3.305   9.569 -1.4426 -0.5922 -2.0311
  519TIP3    H225753   7.005   3.265   9.558 -0.9810 -0.2969  1.7163
  520TIP3   OH225754   5.793   7.536   7.724  0.1539 -0.1459  0.2412
  520TIP3    H125755   5.841   7.562   7.803  0.9873 -1.1292  0.0743
  520TIP3    H225756   5.703   7.524   7.755  0.0108  1.5926  0.5809
  521TIP3   OH225757   1.756   3.752   7.924 -0.4303 -0.1256 -0.1366
  521TIP3    H125758   1.690   3.821   7.931 -0.0345  0.0878  2.0197
  521TIP3    H225759   1.706   3.671   7.932 -0.6498 -0.0252 -0.4692
  522TIP3   OH225760   2.782   6.264   9.139 -0.2461 -0.1241  0.5470
  522TIP3    H125761   2.774   6.338   9.199 -1.6316  0.2681 -0.0823
  522TIP3    H225762   2.715   6.280   9.073 -1.0095 -2.2855  0.7421
  523TIP3   OH225763   2.564   2.125   7.267  0.5557 -0.2219 -0.3712
  523TIP3    H125764   2.486   2.146   7.216  1.2669  0.5707 -1.1624
  523TIP3    H225765   2.625   2.086   7.204  0.6196 -1.3167  0.3423
  524TIP3   OH225766   7.500   4.514   7.895  0.1759 -0.0248 -0.0603
  524TIP3    H125767   7.481   4.591   7.842  0.1480  0.1035  0.1392
  524TIP3    H225768   7.415   4.477   7.916  0.2079 -0.5535 -0.8122
  525TIP3   OH225769   1.586   3.977   7.919  0.0410  0.2330 -0.3818
  525TIP3    H125770   1.536   4.020   7.849  3.4408  0.9002 -2.6089
  525TIP3    H225771   1.630   4.048   7.964  2.0462 -0.5166 -1.0742
  526TIP3   OH225772   6.811   2.413   8.071  0.2737 -0.0412  0.4657
  526TIP3    H125773   6.865   2.343   8.108  0.4091 -0.1250  0.1147
  526TIP3    H225774   6.796   2.473   8.144  2.1892  0.8291  0.2096
  527TIP3   OH225775   7.470   4.496   8.272  0.4380 -0.0879  0.2625
  527TIP3    H125776   7.491   4.483   8.179  1.4637 -0.4416  0.5239
  527TIP3    H225777   7.551   4.472   8.317 -0.1907 -0.3276  1.2781
  528TIP3   OH225778   1.046   1.229   7.481 -0.7333 -0.1479 -0.2748
  528TIP3    H125779   1.076   1.138   7.476  0.1501  0.1737 -1.2618
  528TIP3    H225780   1.054   1.251   7.573  1.8142 -0.2145 -0.3966
  529TIP3   OH225781   1.362   4.378   8.207 -0.4952  0.2340  0.3578
  529TIP3    H125782   1.386   4.452   8.151  2.2044  0.4819  1.6935
  529TIP3    H225783   1.271   4.396   8.231 -1.1576  1.0715 -2.3572
  530TIP3   OH225784   7.205   0.600   7.603 -0.4259  0.1231  0.3099
  530TIP3    H125785   7.297   0.622   7.598 -0.9117  2.4475  0.5572
  530TIP3    H225786   7.194   0.526   7.543  1.5966 -0.3309  0.4450
  531TIP3   OH225787   5.929   3.910   9.239 -0.2982  0.1301 -0.3981
  531TIP3    H125788   5.870   3.839   9.264  0.2964 -0.2616 -0.0649
  531TIP3    H225789   5.892   3.988   9.281 -0.3275 -0.1962  0.1992
  532TIP3   OH225790   3.987   1.715   7.362  0.2101  0.4396 -0.7536
  532TIP3    H125791   3.947   1.673   7.438 -0.4199  1.1686 -0.6720
  532TIP3    H225792   3.977   1.651   7.291 -1.7061  0.8400 -0.8999
  533TIP3   OH225793   7.286   6.602   9.376 -0.4379 -0.0001  0.1781
  533TIP3    H125794   7.286   6.678   9.433 -1.0542 -0.6920  1.1146
  533TIP3    H225795   7.234   6.629   9.300 -0.9143  0.4118  0.6451
  534TIP3   OH225796   3.688   5.437   7.226  0.4770 -0.1467 -0.9304
  534TIP3    H125797   3.606   5.447   7.178 -0.8503 -0.5340  1.1271
  534TIP3    H225798   3.662   5.404   7.311  2.6643  0.9032  0.2365
  535TIP3   OH225799   4.892   6.611   6.848 -0.7604 -0.4001  0.4157
  535TIP3    H125800   4.846   6.531   6.824 -3.0479  0.7886  0.4644
  535TIP3    H225801   4.919   6.649   6.765  0.3823 -1.2275  0.3969
  536TIP3   OH225802   0.680   5.765   8.828 -0.0653 -0.3067 -0.2332
  536TIP3    H125803   0.744   5.724   8.770 -0.3979  0.8155 -1.4235
  536TIP3    H225804   0.624   5.817   8.771 -1.5841 -0.6323  0.8798
  537TIP3   OH225805   5.162   3.591   9.693  0.1292 -0.0737  0.5204
  537TIP3    H125806   5.217   3.513   9.704  1.8455  1.0934  0.5845
  537TIP3    H225807   5.187   3.626   9.607 -0.6357  0.4093  0.4828
  538TIP3   OH225808   1.091   7.240   6.773  0.5058 -0.3108 -0.8968
  538TIP3    H125809   1.124   7.151   6.778  0.9827 -0.2310 -2.2071
  538TIP3    H225810   0.996   7.231   6.769  0.3364 -0.5911  1.8088
  539TIP3   OH225811   5.251   5.663   9.567  0.0897  0.0658 -0.1225
  539TIP3    H125812   5.202   5.674   9.486  0.4514 -1.1676 -0.5353
  539TIP3    H225813   5.187   5.678   9.637 -0.6832 -0.7074 -0.6463
  540TIP3   OH225814   3.901   0.222   9.035  0.2467 -0.3784 -0.2320
  540TIP3    H125815   3.925   0.206   8.944  0.1305 -0.5088 -0.2406
  540TIP3    H225816   3.964   0.171   9.086  0.9442  0.4856 -0.2059
  541TIP3   OH225817   7.529   1.644   8.786 -0.0632  0.8592 -0.4220
  541TIP3    H125818   7.565   1.701   8.718 -1.2754  3.5010  1.0118
  541TIP3    H225819   7.601   1.631   8.847 -0.0226  1.7251 -0.2691
  542TIP3   OH225820   0.285   2.207   7.233 -0.1651  0.4211  0.7677
  542TIP3    H125821   0.287   2.137   7.168 -0.5519 -1.9652  3.1527
  542TIP3    H225822   0.214   2.264   7.204 -0.5242 -0.7085 -0.7078
  543TIP3   OH225823   4.827   6.400   7.600  0.3057 -0.1356  0.1174
  543TIP3    H125824   4.780   6.463   7.546 -0.8273  0.6257  1.8992
  543TIP3    H225825   4.896   6.452   7.642 -0.8514  0.0808  1.8673
  544TIP3   OH225826   0.693   6.447   9.151  0.1762  0.1863 -0.1458
  544TIP3    H125827   0.625   6.510   9.128 -0.8009 -1.6695 -2.8807
  544TIP3    H225828   0.662   6.406   9.232  0.1736  2.1685  0.9155
  545TIP3   OH225829   6.882   6.471   7.638 -0.5178 -0.9067  0.7180
  545TIP3    H125830   6.843   6.558   7.647  0.5508 -0.2438 -0.7330
  545TIP3    H225831   6.853   6.441   7.552 -0.5321 -1.8081  1.0324
  546TIP3   OH225832   0.708   1.182   8.457  0.0683 -0.3064 -0.2414
  546TIP3    H125833   0.635   1.123   8.435 -0.1290  0.0565 -0.5625
  546TIP3    H225834   0.668   1.253   8.507  0.8077 -2.2827  3.5255
  547TIP3   OH225835   0.628   6.190   8.343  0.7463 -0.0897  0.3333
  547TIP3    H125836   0.671   6.262   8.388  2.4431 -0.8629  0.0337
  547TIP3    H225837   0.699   6.130   8.320 -0.3335 -0.7910 -1.3863
  548TIP3   OH225838   0.819   4.834   8.207 -0.4223 -0.3279 -0.6177
  548TIP3    H125839   0.904   4.847   8.166  0.7952 -2.4867  0.9902
  548TIP3    H225840   0.777   4.765   8.155 -1.8422  1.6158 -2.1928
  549TIP3   OH225841   4.670   5.141   8.869  0.1773  0.2668 -0.2498
  549TIP3    H125842   4.723   5.220   8.856  2.7262 -1.2146  0.4009
  549TIP3    H225843   4.734   5.073   8.890 -2.0551 -1.6575  0.7136
  550TIP3   OH225844   0.748   3.630   7.418  0.0261  0.0994 -0.2533
  550TIP3    H125845   0.698   3.663   7.344 -0.4813 -1.2895 -0.5636
  550TIP3    H225846   0.840   3.645   7.394 -0.1267 -0.6006 -1.3052
  551TIP3   OH225847   0.917   2.432   8.371  0.5277 -0.3173 -0.2546
  551TIP3    H125848   0.944   2.380   8.447  0.7767 -0.4326 -0.4239
  551TIP3    H225849   0.876   2.370   8.312 -0.1333 -0.1410  0.0085
  552TIP3   OH225850   2.861   1.538   7.678  0.0129 -0.0658  0.2343
  552TIP3    H125851   2.848   1.614   7.622 -0.9844 -0.2642  0.1680
  552TIP3    H225852   2.889   1.574   7.762  0.1663  0.3294  0.0144
  553TIP3   OH225853   2.022   4.471   7.840  0.1934 -0.3738 -0.0415
  553TIP3    H125854   2.052   4.479   7.931 -0.7165  2.7225  0.1070
  553TIP3    H225855   2.102   4.474   7.788  0.5909  0.9255  0.5898
  554TIP3   OH225856   2.966   1.778   8.986  0.2111  0.3035 -0.3117
  554TIP3    H125857   2.949   1.686   8.963  2.8045 -0.2858 -0.2632
  554TIP3    H225858   2.910   1.828   8.927 -0.1588 -1.2967 -1.3893
  555TIP3   OH225859   2.638   1.864   9.581  0.2519  0.4971  0.7018
  555TIP3    H125860   2.691   1.939   9.610 -0.9749  1.6437  0.1192
  555TIP3    H225861   2.594   1.834   9.660  0.6633  0.4445  0.9170
  556TIP3   OH225862   1.173   3.381   9.289 -0.1848 -0.6185 -0.7643
  556TIP3    H125863   1.085   3.416   9.272 -0.1709  0.5085  1.1389
  556TIP3    H225864   1.174   3.296   9.245 -2.5839 -1.1131 -0.0351
  557TIP3   OH225865   6.697   0.981   9.112  0.0347 -0.3983 -0.1737
  557TIP3    H125866   6.621   1.028   9.147 -0.8784 -1.1644 -1.0866
  557TIP3    H225867   6.702   1.007   9.020  1.2978  0.1605  0.0269
  558TIP3   OH225868   3.708   0.295   7.291  0.0848  0.0751  0.1655
  558TIP3    H125869   3.773   0.326   7.228 -0.4227  1.7370  0.4155
  558TIP3    H225870   3.642   0.250   7.239  0.6052 -0.1890 -0.2704
  559TIP3   OH225871   4.259   6.197   9.448 -0.9408 -0.2027 -0.4062
  559TIP3    H125872   4.250   6.247   9.367 -0.6362  0.4698 -0.0410
  559TIP3    H225873   4.174   6.205   9.491 -0.5584  0.9672  0.1735
  560TIP3   OH225874   3.139   3.646   8.206 -0.2855  0.0753  0.0020
  560TIP3    H125875   3.191   3.719   8.241 -0.4922  0.0096  0.4499
  560TIP3    H225876   3.137   3.582   8.277  0.3282 -0.5930 -0.5635
  561TIP3   OH225877   6.359   4.571   8.380 -0.0456 -0.0416  0.6641
  561TIP3    H125878   6.341   4.530   8.465  0.7445 -0.9702  0.3986
  561TIP3    H225879   6.358   4.499   8.318 -0.0357  0.5501 -0.0292
  562TIP3   OH225880   0.086   5.755   8.948 -0.4371  0.2009  0.2324
  562TIP3    H125881   0.008   5.715   8.987 -0.7449  0.6338  0.0769
  562TIP3    H225882   0.100   5.834   9.000  0.3832 -0.2920  0.7702
  563TIP3   OH225883   2.327   2.128   7.073 -0.0593 -0.0671  0.4271
  563TIP3    H125884   2.319   2.108   6.980  0.2308 -0.0730  0.4044
  563TIP3    H225885   2.244   2.170   7.095  0.5737  1.6196 -0.2523
  564TIP3   OH225886   4.007   2.135   9.691  0.0494 -0.0203  0.4066
  564TIP3    H125887   4.067   2.129   9.617 -1.6095  0.8110 -1.0554
  564TIP3    H225888   4.061   2.111   9.767  2.0812  0.2059 -0.8908
  565TIP3   OH225889   2.279   1.345   7.256 -0.4859  0.4421  0.1177
  565TIP3    H125890   2.294   1.438   7.235 -1.3179  0.2912 -1.2215
  565TIP3    H225891   2.329   1.297   7.189  1.4824 -0.1351  1.8940
  566TIP3   OH225892   6.472   0.528   7.620  0.1945 -0.0637 -0.3842
  566TIP3    H125893   6.465   0.470   7.544  0.2907 -1.2199  0.4600
  566TIP3    H225894   6.406   0.495   7.682  1.2575 -0.2340  0.7067
  567TIP3   OH225895   2.522   6.648   9.365 -0.0993  0.0936 -0.1295
  567TIP3    H125896   2.607   6.692   9.359  0.1657 -0.4571 -0.6179
  567TIP3    H225897   2.540   6.567   9.413 -0.1460 -0.4708 -1.0363
  568TIP3   OH225898   2.192   3.965   9.328 -0.3542 -0.7785 -0.3385
  568TIP3    H125899   2.252   3.940   9.258 -2.0780 -0.9467 -1.8098
  568TIP3    H225900   2.105   3.943   9.295 -1.1608 -2.2365  2.4352
  569TIP3   OH225901   7.550   3.774   8.774  0.4777  0.0181 -0.2687
  569TIP3    H125902   7.562   3.859   8.732  1.6226 -0.4420 -0.9163
  569TIP3    H225903   7.513   3.718   8.706  2.2284 -0.6955 -0.6953
  570TIP3   OH225904   4.531   5.345   9.085 -0.3829  0.0753  0.3275
  570TIP3    H125905   4.525   5.414   9.019 -0.1470  0.6922  0.9392
  570TIP3    H225906   4.457   5.361   9.144 -0.3457 -0.2130  0.4535
  571TIP3   OH225907   7.033   6.586   8.598 -0.1846  0.4320  0.0249
  571TIP3    H125908   7.107   6.561   8.543 -0.0669 -0.6565  0.6517
  571TIP3    H225909   7.011   6.675   8.569  1.3159  0.7609 -0.2159
  572TIP3   OH225910   1.779   4.444   7.627 -0.1450 -0.0929 -0.0534
  572TIP3    H125911   1.846   4.382   7.599 -0.5387 -1.2379  1.3756
  572TIP3    H225912   1.826   4.506   7.684  0.3360  1.2552 -1.8339
  573TIP3   OH225913   5.068   4.567   9.359 -0.3807 -0.5871 -0.5016
  573TIP3    H125914   4.991   4.510   9.360 -0.4780 -0.5632 -2.7714
  573TIP3    H225915   5.140   4.510   9.330  0.2933 -0.3748  0.6647
  574TIP3   OH225916   3.900   4.902   7.272 -0.4644  0.3142  0.4420
  574TIP3    H125917   3.906   4.907   7.177 -1.9423  1.3218  0.3710
  574TIP3    H225918   3.848   4.979   7.297  1.0577  0.8578  2.1827
  575TIP3   OH225919   1.150   2.169   7.752 -0.0627 -0.1770 -0.2799
  575TIP3    H125920   1.115   2.123   7.828  1.2985  0.9253  1.1008
  575TIP3    H225921   1.200   2.103   7.704 -0.9212 -0.8812 -0.2159
  576TIP3   OH225922   6.340   0.954   7.857 -0.1584 -1.1808  0.1274
  576TIP3    H125923   6.397   0.880   7.880 -0.0638 -1.3156 -0.4987
  576TIP3    H225924   6.387   0.999   7.787 -0.7649 -1.2241 -0.3144
  577TIP3   OH225925   1.169   1.551   8.298 -0.3772 -0.3781 -0.0330
  577TIP3    H125926   1.258   1.526   8.320 -0.2719  0.4281  0.5248
  577TIP3    H225927   1.121   1.469   8.290  0.8377 -0.9303 -2.2764
  578TIP3   OH225928   6.241   5.692   9.163 -0.0392  0.1758  0.5079
  578TIP3    H125929   6.160   5.691   9.215 -0.9710  0.3598 -0.8781
  578TIP3    H225930   6.220   5.640   9.085  0.8877  0.9690 -0.2978
  579TIP3   OH225931   1.914   5.123   9.352 -0.2716  0.0170  0.1353
  579TIP3    H125932   1.850   5.128   9.423 -1.0783  0.4357 -0.6012
  579TIP3    H225933   1.862   5.132   9.272  0.5575 -0.9521 -0.5369
  580TIP3   OH225934   1.528   2.663   8.951  0.6730  0.0238 -0.2819
  580TIP3    H125935   1.435   2.677   8.971  0.6929  2.2149 -1.3915
  580TIP3    H225936   1.536   2.568   8.942 -1.2417 -0.2934  0.7900
  581TIP3   OH225937   2.025   4.904   8.128 -0.0660  0.1596 -0.4075
  581TIP3    H125938   2.085   4.832   8.147 -0.0539  0.6118  1.5106
  581TIP3    H225939   1.938   4.868   8.146 -0.0741  0.5462  0.3621
  582TIP3   OH225940   4.912   6.617   9.564 -0.3552 -0.1774  0.4573
  582TIP3    H125941   4.896   6.704   9.600  0.4440 -0.0264  0.4740
  582TIP3    H225942   5.001   6.622   9.530  0.4803 -1.5936  2.2708
  583TIP3   OH225943   6.376   1.349   6.996  0.1364 -0.2831  0.7330
  583TIP3    H125944   6.465   1.383   7.010 -0.2217  1.2535 -0.3816
  583TIP3    H225945   6.327   1.376   7.073  0.5386 -0.7890  1.1692
  584TIP3   OH225946   3.055   6.960   8.312  0.3950 -0.1293  0.6964
  584TIP3    H125947   3.060   6.908   8.231  0.1285  1.3540 -0.3215
  584TIP3    H225948   3.089   7.046   8.287  1.1234  0.1213  2.4142
  585TIP3   OH225949   6.068   0.002   7.399 -0.0426  0.1061 -0.1948
  585TIP3    H125950   6.015   0.061   7.346  0.4775 -1.5247 -2.7166
  585TIP3    H225951   6.157   0.037   7.392  0.1303 -0.4607 -1.0009
  586TIP3   OH225952   2.598   6.639   8.203 -0.0858 -0.4442 -0.1439
  586TIP3    H125953   2.539   6.621   8.276 -1.4218 -0.7140 -1.2387
  586TIP3    H225954   2.677   6.673   8.244 -1.8070  2.1607  1.2961
  587TIP3   OH225955   5.881   4.288   9.104 -0.4146 -0.1075  0.0887
  587TIP3    H125956   5.933   4.345   9.161  1.4729 -2.0247  0.4268
  587TIP3    H225957   5.796   4.282   9.148  0.5747 -0.5060  2.0720
  588TIP3   OH225958   3.669   3.192   6.841  0.3499 -0.2765  0.2772
  588TIP3    H125959   3.649   3.173   6.750  0.5907 -0.1284  0.1911
  588TIP3    H225960   3.627   3.276   6.858  1.1513  0.1968  0.0001
  589TIP3   OH225961   1.563   5.811   8.940  0.2420 -0.0427 -0.1287
  589TIP3    H125962   1.593   5.793   9.029 -0.6911 -2.1602 -0.2062
  589TIP3    H225963   1.626   5.767   8.883 -0.3210 -0.4586 -0.4417
  590TIP3   OH225964   5.613   6.039   8.922 -0.2968  0.0588 -0.2093
  590TIP3    H125965   5.521   6.021   8.939  0.0950 -2.5382 -0.3089
  590TIP3    H225966   5.614   6.086   8.838 -1.5726  1.8463  0.7175
  591TIP3   OH225967   3.855   6.069   8.730  0.3631  0.4542  0.1863
  591TIP3    H125968   3.859   6.146   8.787 -0.2653  0.8479 -0.2903
  591TIP3    H225969   3.914   6.089   8.657  2.0328 -0.5058  1.2070
  592TIP3   OH225970   4.491   6.222   8.929 -0.3253 -0.0077  0.4864
  592TIP3    H125971   4.476   6.310   8.962  0.1589 -0.0599  0.8600
  592TIP3    H225972   4.471   6.164   9.003  0.2928 -0.1547  0.5410
  593TIP3   OH225973   3.884   4.523   9.726 -0.2108 -0.0088 -0.7401
  593TIP3    H125974   3.973   4.524   9.762 -1.1249 -1.3030  1.8592
  593TIP3    H225975   3.851   4.435   9.747 -2.7694  1.0942  0.3160
  594TIP3   OH225976   1.924   0.902   8.682  0.3352 -0.0815 -0.6177
  594TIP3    H125977   1.995   0.861   8.632  1.7035  0.6657  0.6337
  594TIP3    H225978   1.968   0.966   8.738 -1.4191  0.9234 -0.3147
  595TIP3   OH225979   4.406   1.248   9.403 -0.6010 -0.3024  0.1790
  595TIP3    H125980   4.478   1.289   9.451 -0.8157  2.5469 -1.6553
  595TIP3    H225981   4.449   1.192   9.338  0.1944  2.1142 -1.5524
  596TIP3   OH225982   0.390   5.623   9.098 -0.2355 -0.0068 -0.3739
  596TIP3    H125983   0.456   5.692   9.087 -0.1613 -0.1266 -0.6633
  596TIP3    H225984   0.354   5.639   9.185  0.5130 -0.2351 -0.0157
  597TIP3   OH225985   6.200   7.273   7.339 -0.8201  0.6546 -0.0858
  597TIP3    H125986   6.294   7.283   7.323 -0.5175 -2.7496 -1.1863
  597TIP3    H225987   6.195   7.239   7.428 -1.0861  1.3735  0.1810
  598TIP3   OH225988   0.140   5.372   8.851 -0.1680 -0.4034 -0.3842
  598TIP3    H125989   0.113   5.384   8.760 -0.3931  0.0704 -0.2582
  598TIP3    H225990   0.081   5.304   8.884  0.2637 -0.9554 -0.7379
  599TIP3   OH225991   1.918   6.204   8.076 -0.5401 -0.2041 -0.6202
  599TIP3    H125992   1.925   6.134   8.140 -1.1213  0.9836  0.8017
  599TIP3    H225993   1.825   6.224   8.071 -0.5101 -0.2720 -1.8645
  600TIP3   OH225994   0.906   4.274   9.931  0.5459  0.5175  0.3408
  600TIP3    H125995   0.956   4.196   9.957 -0.6653  0.0765  1.4750
  600TIP3    H225996   0.834   4.239   9.878  0.6333  1.0036 -0.1114
  601TIP3   OH225997   5.315   6.807   6.563  0.1548 -0.4185  0.5242
  601TIP3    H125998   5.386   6.757   6.523 -0.2215 -0.6772  0.1673
  601TIP3    H225999   5.359   6.874   6.615  0.6719  0.1406 -0.5874
  602TIP3   OH226000   1.402   3.182   7.574  0.1288  0.0916 -0.3616
  602TIP3    H126001   1.312   3.162   7.549 -0.3331  0.5969  0.8065
  602TIP3    H226002   1.400   3.183   7.670  1.5438 -0.6183 -0.3022
  603TIP3   OH226003   2.144   5.149   9.145 -0.4763 -0.3629  0.2702
  603TIP3    H126004   2.111   5.183   9.228  1.5859 -0.5085  1.2200
  603TIP3    H226005   2.176   5.061   9.166 -0.8547 -0.8124 -0.9360
  604TIP3   OH226006   4.049   6.034   9.252  0.4455 -0.2828  0.0130
  604TIP3    H126007   4.053   6.119   9.294  0.4748  0.1203 -0.7918
  604TIP3    H226008   4.012   6.051   9.165  1.0876 -0.9794 -0.4143
  605TIP3   OH226009   0.811   0.917   9.421  0.1641  0.4071  0.0714
  605TIP3    H126010   0.828   0.825   9.401 -0.8900 -0.4434  2.6579
  605TIP3    H226011   0.892   0.948   9.462  0.1103  0.2764  0.2772
  606TIP3   OH226012   1.682   0.695   9.168 -0.0995  0.4373  0.6334
  606TIP3    H126013   1.714   0.608   9.192 -2.3992 -0.2891  1.3038
  606TIP3    H226014   1.642   0.729   9.248 -2.8315  0.3586 -0.5895
  607TIP3   OH226015   0.645   5.463   9.481 -0.2272  0.0911 -0.2862
  607TIP3    H126016   0.739   5.478   9.487 -0.3527  1.5171 -1.3115
  607TIP3    H226017   0.606   5.550   9.494 -1.4745 -0.6432  1.2492
  608TIP3   OH226018   0.092   2.091   9.148 -0.1488  0.0885  0.1616
  608TIP3    H126019   0.061   2.025   9.086 -0.1557 -0.7500  1.0259
  608TIP3    H226020   0.168   2.050   9.190 -0.6365  0.2892  1.2860
  609TIP3   OH226021   3.017   2.414   9.167 -0.8006  0.2281 -0.3367
  609TIP3    H126022   3.028   2.464   9.086 -2.1222 -1.8100 -1.9050
  609TIP3    H226023   3.044   2.325   9.144  2.1566  0.2185  2.5352
  610TIP3   OH226024   2.490   5.155   7.179  0.6170  0.1330 -0.2438
  610TIP3    H126025   2.488   5.125   7.088 -1.2214 -0.9062  0.0872
  610TIP3    H226026   2.583   5.152   7.203  1.2589  1.2673 -2.3239
  611TIP3   OH226027   1.344   6.164   8.714  0.2516  0.0047  0.4223
  611TIP3    H126028   1.263   6.119   8.691 -0.7279  1.6043  0.5536
  611TIP3    H226029   1.346   6.163   8.810  1.0250 -1.0848  0.4029
  612TIP3   OH226030   4.713   1.896   9.126 -0.1404  1.1397 -0.2804
  612TIP3    H126031   4.707   1.883   9.221 -0.3923 -0.2626 -0.4714
  612TIP3    H226032   4.685   1.987   9.113 -0.4394  1.2450  0.9477
  613TIP3   OH226033   0.805   2.004   6.792  0.0991  0.5462 -0.3696
  613TIP3    H126034   0.759   2.000   6.876 -0.1023 -0.4564 -0.5167
  613TIP3    H226035   0.872   1.935   6.798  1.4174  1.7920 -0.2665
  614TIP3   OH226036   0.871   0.847   8.066  0.2719 -0.6151 -0.0939
  614TIP3    H126037   0.835   0.926   8.106 -0.6321 -1.4792  0.8675
  614TIP3    H226038   0.798   0.812   8.014  0.6518 -0.8493 -0.4803
  615TIP3   OH226039   4.098   1.436   7.563  0.1324 -0.5137  0.4157
  615TIP3    H126040   4.128   1.420   7.652 -0.3973  3.4430  1.5137
  615TIP3    H226041   4.173   1.413   7.508  1.5211 -0.4077  2.1729
  616TIP3   OH226042   1.863   0.022   9.862  0.7114 -0.0524 -0.2278
  616TIP3    H126043   1.952   0.014   9.896  0.9746 -0.3691 -0.9816
  616TIP3    H226044   1.838  -0.067   9.840 -0.1079 -0.0774  0.7482
  617TIP3   OH226045   1.338   6.923   9.267 -0.3560  0.2606  0.2728
  617TIP3    H126046   1.311   6.837   9.234 -0.1856 -0.0705  0.9657
  617TIP3    H226047   1.259   6.977   9.262 -0.3734  0.1657 -0.4961
  618TIP3   OH226048   2.243   6.457   7.994 -0.1045 -0.0602  0.2893
  618TIP3    H126049   2.290   6.541   8.000  1.3057 -0.8562  0.9761
  618TIP3    H226050   2.267   6.422   7.908  0.1253 -0.2068  0.4108
  619TIP3   OH226051   4.429   2.557   7.052 -0.0402 -0.0381 -0.0449
  619TIP3    H126052   4.476   2.474   7.060  2.3244  1.0949 -1.2774
  619TIP3    H226053   4.337   2.532   7.059  0.5166 -2.8839 -1.2012
  620TIP3   OH226054   5.001   5.791   7.897  0.8167  0.3924  0.2578
  620TIP3    H126055   5.023   5.701   7.875  2.2352  0.3992  1.4731
  620TIP3    H226056   5.012   5.795   7.992 -0.2714  1.5781  0.3552
  621TIP3   OH226057   3.513   4.231   7.476  0.1554  0.1408 -0.5557
  621TIP3    H126058   3.453   4.185   7.417 -0.8721 -0.6601  1.0383
  621TIP3    H226059   3.506   4.323   7.449  1.2077 -0.3932 -2.9030
  622TIP3   OH226060   2.259   3.595   6.606 -0.1715  0.2151  0.1352
  622TIP3    H126061   2.211   3.673   6.633  0.9319  0.8086  0.4550
  622TIP3    H226062   2.348   3.626   6.589 -0.6119 -0.1873 -3.8143
  623TIP3   OH226063   6.157   1.753   9.111  0.5725  0.1978  0.2046
  623TIP3    H126064   6.156   1.794   9.024 -0.1143  2.2074  1.1045
  623TIP3    H226065   6.241   1.708   9.116  1.3862  1.5421 -0.8380
  624TIP3   OH226066   0.344   2.786   8.596 -0.2928  0.8400 -0.2647
  624TIP3    H126067   0.420   2.790   8.654 -0.1254 -2.1346 -0.0791
  624TIP3    H226068   0.269   2.803   8.653  0.0990  1.5419  0.0427
  625TIP3   OH226069   3.207   4.700   7.667 -0.5810  0.2549 -0.0870
  625TIP3    H126070   3.273   4.746   7.615  2.0328 -1.6939  1.3053
  625TIP3    H226071   3.185   4.762   7.737 -2.1132  1.8376 -1.8752
  626TIP3   OH226072   6.455   4.957   8.052 -0.1196 -0.1334  0.0894
  626TIP3    H126073   6.462   5.047   8.020  0.7136  0.2048  1.1615
  626TIP3    H226074   6.452   4.966   8.147 -0.2864 -1.2348  0.2030
  627TIP3   OH226075   5.266   1.499   7.216  0.3986  0.1875 -0.0856
  627TIP3    H126076   5.335   1.557   7.247  1.4751 -0.6431 -0.8546
  627TIP3    H226077   5.253   1.525   7.125  1.8388 -1.5867 -0.8583
  628TIP3   OH226078   6.357   5.662   8.097 -0.5487  0.4538 -0.5559
  628TIP3    H126079   6.448   5.687   8.086 -0.3928 -0.2569 -0.9734
  628TIP3    H226080   6.314   5.691   8.016 -0.2688 -0.9902 -1.2621
  629TIP3   OH226081   1.973   2.488   9.055  0.2799  0.3915 -0.2395
  629TIP3    H126082   1.922   2.512   8.978 -1.4626 -0.3196  0.6370
  629TIP3    H226083   1.954   2.556   9.119 -0.1154 -0.2273  0.3162
  630TIP3   OH226084   4.797   4.461   9.333  0.0677  0.5489  0.1198
  630TIP3    H126085   4.740   4.390   9.304 -0.3883  1.7597 -2.2348
  630TIP3    H226086   4.750   4.502   9.405 -1.3471  0.5702 -0.7849
  631TIP3   OH226087   5.054   3.552   8.196  0.3254  0.3744  0.3808
  631TIP3    H126088   5.107   3.521   8.269  2.1343  2.4528  0.0537
  631TIP3    H226089   5.108   3.618   8.153 -1.6733  1.0057 -1.3624
  632TIP3   OH226090   5.099   0.537   9.066  0.4976  0.4218  0.4258
  632TIP3    H126091   5.189   0.543   9.034 -0.0994  1.4738 -1.1911
  632TIP3    H226092   5.054   0.609   9.023 -1.5682 -1.2254 -0.3369
  633TIP3   OH226093   3.916   7.170   7.575  0.7063  0.5662 -0.3119
  633TIP3    H126094   3.986   7.122   7.620  2.5244  2.0405 -1.4231
  633TIP3    H226095   3.862   7.102   7.535 -0.2757 -0.7542  2.9275
  634TIP3   OH226096   2.637   4.828   9.670 -0.0390  0.6263  0.3685
  634TIP3    H126097   2.722   4.785   9.661 -0.9641 -0.9870 -1.5906
  634TIP3    H226098   2.656   4.921   9.666  1.7834  0.3767  1.8293
  635TIP3   OH226099   6.646   6.831   7.063  0.0437 -0.0537 -0.4884
  635TIP3    H126100   6.577   6.886   7.025 -0.3007  0.0121  0.2185
  635TIP3    H226101   6.602   6.746   7.076 -0.1354  0.2120  0.6904
  636TIP3   OH226102   2.554   5.106   8.635  0.4577 -1.0296  0.0692
  636TIP3    H126103   2.606   5.152   8.570  0.4629 -2.4843 -1.0085
  636TIP3    H226104   2.514   5.033   8.587 -0.5943 -1.3813  1.4109
  637TIP3   OH226105   7.492   2.969   8.654  0.0812  0.2675 -1.0610
  637TIP3    H126106   7.430   2.951   8.584  0.4143  0.9282 -1.5349
  637TIP3    H226107   7.440   2.962   8.734  0.3271 -3.5561 -1.0778
  638TIP3   OH226108   7.017   6.894   8.519 -0.1589  0.3296 -0.4675
  638TIP3    H126109   6.986   6.881   8.429 -0.1123  2.0078 -0.7569
  638TIP3    H226110   6.995   6.985   8.539 -1.6268 -0.4431  1.8079
  639TIP3   OH226111   6.240   3.548   6.684  0.2241  0.2521  0.0872
  639TIP3    H126112   6.311   3.547   6.748 -0.6308  1.9801  1.1505
  639TIP3    H226113   6.263   3.618   6.624  1.2995 -1.7169 -1.9494
  640TIP3   OH226114   5.749   5.666   9.163  0.1593  0.0814  0.6423
  640TIP3    H126115   5.712   5.593   9.214 -1.4604  1.6521  1.8584
  640TIP3    H226116   5.703   5.662   9.079  1.9311 -1.7631 -0.3198
  641TIP3   OH226117   0.050   5.550   7.285  0.1030  0.5706 -0.1193
  641TIP3    H126118  -0.003   5.567   7.207  0.9529  3.5098 -0.1729
  641TIP3    H226119   0.140   5.557   7.256  0.4644  0.0928  0.8348
  642TIP3   OH226120   5.077   6.949   8.947  0.4594  0.5380  0.0520
  642TIP3    H126121   5.133   6.990   9.013  0.3054  0.2121  0.3894
  642TIP3    H226122   5.092   7.001   8.867 -0.4603  1.8708  0.7049
  643TIP3   OH226123   7.492   1.004   7.215  0.0448 -0.4469 -0.1797
  643TIP3    H126124   7.583   0.978   7.230  0.8325  1.4943 -1.2913
  643TIP3    H226125   7.492   1.046   7.129 -1.7590  0.3021  0.1310
  644TIP3   OH226126   3.324   4.328   8.627 -0.2257 -0.2463 -0.4384
  644TIP3    H126127   3.255   4.328   8.561 -0.7555 -1.1345  0.0892
  644TIP3    H226128   3.338   4.420   8.648  2.2915  0.4256 -4.1318
  645TIP3   OH226129   0.773   6.888   8.990  0.2248 -0.2729  0.2752
  645TIP3    H126130   0.864   6.892   9.021  0.0395 -0.0764  0.8023
  645TIP3    H226131   0.771   6.947   8.915  0.9380 -1.5782 -0.8050
  646TIP3   OH226132   1.953   7.396   8.500  0.0017  0.1394  0.3493
  646TIP3    H126133   1.893   7.434   8.436 -1.7515  0.5509  2.1298
  646TIP3    H226134   1.930   7.303   8.502 -0.5761  0.2835  0.9755
  647TIP3   OH226135   3.944   3.392   8.410  0.2568  0.1965  0.1352
  647TIP3    H126136   3.967   3.426   8.496  0.0820 -1.1699  0.7566
  647TIP3    H226137   3.967   3.299   8.414 -0.0492  0.0347 -1.1936
  648TIP3   OH226138   2.940   7.137   9.675  0.3611  0.5292 -0.0581
  648TIP3    H126139   2.982   7.130   9.761 -0.3425  0.8289  0.3194
  648TIP3    H226140   2.931   7.231   9.661  0.2785  0.4745 -0.3684
  649TIP3   OH226141   5.755   2.914   7.316  0.2244  0.0009  0.3187
  649TIP3    H126142   5.664   2.940   7.330  0.1160 -0.4241  0.4112
  649TIP3    H226143   5.795   2.989   7.272  0.4185  1.1152  2.3005
  650TIP3   OH226144   1.944   1.956   8.332 -0.3447 -0.3514 -0.1276
  650TIP3    H126145   1.909   1.867   8.326  1.7750 -1.1917 -1.2163
  650TIP3    H226146   2.033   1.944   8.365 -0.1596  1.4105  0.0863
  651TIP3   OH226147   2.364   0.899   8.118  0.1512 -0.3528 -0.4050
  651TIP3    H126148   2.342   0.943   8.035  0.8964  0.9431  0.0586
  651TIP3    H226149   2.284   0.906   8.170  0.3358  0.7184 -0.2398
  652TIP3   OH226150   0.153   3.646   6.566  0.0861  0.2445  0.1262
  652TIP3    H126151   0.163   3.604   6.481  0.5688  0.3062  0.1544
  652TIP3    H226152   0.209   3.595   6.625  0.0357  0.4259  0.3322
  653TIP3   OH226153   7.157   0.317   8.772 -0.2446 -0.4201 -0.2895
  653TIP3    H126154   7.069   0.281   8.775 -0.3299 -0.2125 -0.3049
  653TIP3    H226155   7.169   0.346   8.682 -0.9823  1.5845  0.2235
  654TIP3   OH226156   2.530   0.734   8.446  0.6406 -0.3618 -0.1786
  654TIP3    H126157   2.444   0.697   8.465  1.1141 -1.0745  0.6552
  654TIP3    H226158   2.511   0.821   8.409 -0.4085  0.0949  1.3381
  655TIP3   OH226159   6.870   6.715   7.214  0.4761  0.0031 -0.1090
  655TIP3    H126160   6.892   6.624   7.194  0.1208 -0.3670  1.0951
  655TIP3    H226161   6.792   6.733   7.162 -0.2914 -0.8561  0.6945
  656TIP3   OH226162   1.925   3.264   7.339 -0.3049 -0.6080 -0.1164
  656TIP3    H126163   1.833   3.283   7.320 -0.1209 -1.1367 -1.6197
  656TIP3    H226164   1.973   3.306   7.268  0.5971 -0.6223  0.4769
  657TIP3   OH226165   1.552   1.811   6.302 -0.4243  0.1221 -0.4404
  657TIP3    H126166   1.597   1.895   6.309  0.3251 -0.1051 -2.0306
  657TIP3    H226167   1.620   1.746   6.320 -1.2464 -0.1730  1.9137
  658TIP3   OH226168   2.466   0.117   6.800 -0.5906 -0.2350 -0.3609
  658TIP3    H126169   2.550   0.143   6.839 -0.7580 -1.7310  1.1407
  658TIP3    H226170   2.455   0.025   6.827 -1.9949 -0.5333 -1.8106
  659TIP3   OH226171   3.674   6.771   6.872 -0.4440 -0.8307  0.0187
  659TIP3    H126172   3.601   6.825   6.903 -0.2433  0.2025 -1.2276
  659TIP3    H226173   3.641   6.729   6.793 -0.5082 -2.3798  0.8413
  660TIP3   OH226174   0.590   1.792   8.246  0.2551  0.0051  0.3569
  660TIP3    H126175   0.673   1.832   8.273  1.1766 -1.9505  0.5569
  660TIP3    H226176   0.613   1.703   8.221 -0.8885  0.8563 -4.7775
  661TIP3   OH226177   4.155   7.386   7.456  0.2445  0.1891  0.1156
  661TIP3    H126178   4.065   7.418   7.445  0.0366 -0.8075 -1.5588
  661TIP3    H226179   4.200   7.456   7.503 -0.8928  1.6386 -0.8539
  662TIP3   OH226180   5.089   5.415   7.605 -0.3989 -0.5483 -0.0424
  662TIP3    H126181   5.023   5.484   7.606 -0.7722 -0.9112  0.2882
  662TIP3    H226182   5.129   5.421   7.517 -1.1463 -0.5968 -0.3891
  663TIP3   OH226183   5.601   3.928   8.204 -0.1881  0.0494 -0.6596
  663TIP3    H126184   5.616   3.919   8.110  0.6375  0.9302 -0.6304
  663TIP3    H226185   5.675   3.981   8.235 -0.5264 -0.1032  0.4592
  664TIP3   OH226186   4.691   3.259   7.747 -0.0455 -0.0866  0.1468
  664TIP3    H126187   4.754   3.318   7.706  0.6434 -0.6444  0.3783
  664TIP3    H226188   4.734   3.173   7.746 -0.1884 -0.2067  1.5986
  665TIP3   OH226189   0.667   1.237   8.918  0.2324 -0.1817  0.2824
  665TIP3    H126190   0.584   1.281   8.934  0.8683  0.1610  3.4154
  665TIP3    H226191   0.643   1.146   8.900 -0.8850  0.4341 -1.4894
  666TIP3   OH226192   3.853   0.182   6.976 -0.0668  0.4166  0.4979
  666TIP3    H126193   3.828   0.139   6.893 -0.4082 -0.4658  1.0383
  666TIP3    H226194   3.894   0.112   7.027 -2.7855  0.0057  2.3747
  667TIP3   OH226195   4.149   2.019   7.938 -1.1085  0.9226  0.1748
  667TIP3    H126196   4.123   2.099   7.893 -0.3891  0.6661 -0.7115
  667TIP3    H226197   4.102   2.023   8.022  0.5254  3.3454  1.1048
  668TIP3   OH226198   4.373   1.374   7.459  0.3430 -0.3249 -0.4371
  668TIP3    H126199   4.418   1.357   7.541 -0.1043 -1.3693 -0.3866
  668TIP3    H226200   4.418   1.318   7.395  0.5801  0.3491 -0.8715
  669TIP3   OH226201   2.448   6.590   7.053 -0.0689  0.0794 -0.2995
  669TIP3    H126202   2.513   6.581   6.983  0.8771 -0.7999  0.6505
  669TIP3    H226203   2.476   6.669   7.101  0.2065 -0.2047  0.0103
  670TIP3   OH226204   4.287   4.249   8.311 -0.0324  0.0900 -0.1910
  670TIP3    H126205   4.307   4.294   8.393  0.8697  0.2158 -0.4609
  670TIP3    H226206   4.192   4.239   8.311 -0.1491  1.0482  0.3766
  671TIP3   OH226207   4.040   5.778   7.998  0.4358 -0.5866 -0.1326
  671TIP3    H126208   4.133   5.797   7.983  0.4159  0.3009  0.7195
  671TIP3    H226209   4.040   5.692   8.039  0.9571 -0.2814  0.5339
  672TIP3   OH226210   7.316   6.833   6.719 -0.0616 -0.6895  0.0047
  672TIP3    H126211   7.302   6.865   6.630  0.9086 -0.4387 -0.0631
  672TIP3    H226212   7.262   6.754   6.724 -0.5933 -0.3759 -0.6051
  673TIP3   OH226213   7.516   3.736   6.865 -0.5689 -0.6224  0.0810
  673TIP3    H126214   7.467   3.674   6.812 -1.2287 -0.0250 -0.0250
  673TIP3    H226215   7.521   3.815   6.812  0.6532 -0.7124  0.0271
  674TIP3   OH226216   7.221   2.317   9.559  0.1796 -0.0019 -0.2078
  674TIP3    H126217   7.204   2.406   9.528 -2.0998  0.1372  1.2402
  674TIP3    H226218   7.316   2.308   9.554  0.3467  1.9345 -1.8619
  675TIP3   OH226219   3.707   2.545   9.514  0.4166 -0.4261  0.3559
  675TIP3    H126220   3.612   2.540   9.512  0.3818 -0.0536 -2.6432
  675TIP3    H226221   3.736   2.455   9.529 -0.4408 -1.0329 -1.3546
  676TIP3   OH226222   0.223   2.848   9.056 -0.2590  0.4278 -0.0657
  676TIP3    H126223   0.193   2.912   9.120 -1.5938  0.1562 -0.3905
  676TIP3    H226224   0.214   2.764   9.100 -1.8712  0.1716 -0.8169
  677TIP3   OH226225   6.637   6.791   7.421  0.0031 -0.0536 -0.3108
  677TIP3    H126226   6.566   6.853   7.438  0.1498  0.1749 -0.5317
  677TIP3    H226227   6.708   6.844   7.385  0.7017 -0.1079  0.9410
  678TIP3   OH226228   1.807   4.310   7.886 -0.1693 -0.1514 -0.3868
  678TIP3    H126229   1.853   4.230   7.911 -0.5449 -0.0594  0.6499
  678TIP3    H226230   1.870   4.358   7.833  0.3538 -0.7613 -0.3312
  679TIP3   OH226231   1.665   4.319   8.568 -0.4040  0.0077  0.5447
  679TIP3    H126232   1.752   4.294   8.599 -0.3528 -0.4000  0.0887
  679TIP3    H226233   1.604   4.266   8.620 -0.3454 -0.2378  0.3648
  680TIP3   OH226234   6.209   5.470   8.187  0.6845 -0.0787  0.6324
  680TIP3    H126235   6.251   5.552   8.163 -1.6301  0.7240 -1.0165
  680TIP3    H226236   6.269   5.402   8.154  2.0172  0.9335  0.8912
  681TIP3   OH226237   2.787   3.789   7.879  0.5477  0.0600 -0.0423
  681TIP3    H126238   2.778   3.694   7.888 -2.7880  0.4251  2.6646
  681TIP3    H226239   2.875   3.808   7.910  1.1150 -2.0654 -0.1707
  682TIP3   OH226240   3.247   5.711   9.264 -0.0549 -0.4338 -0.1889
  682TIP3    H126241   3.237   5.799   9.226 -1.9822 -1.6924 -2.9577
  682TIP3    H226242   3.165   5.666   9.242  0.4839 -2.6848  1.9612
  683TIP3   OH226243   2.757   3.613   9.766  0.0196 -0.9023 -0.3707
  683TIP3    H126244   2.677   3.610   9.820  0.4999 -1.3544  0.3407
  683TIP3    H226245   2.764   3.525   9.730  1.1556 -1.4131  1.0271
  684TIP3   OH226246   7.537   3.612   9.355  0.0794 -0.8369  0.2589
  684TIP3    H126247   7.464   3.617   9.293 -1.0061 -1.2780  1.4602
  684TIP3    H226248   7.582   3.696   9.345 -1.1294 -0.1877  0.1222
  685TIP3   OH226249   2.846   0.067   9.120  0.0561  0.7236  0.3525
  685TIP3    H126250   2.766   0.032   9.159 -1.1614 -0.3741 -2.8383
  685TIP3    H226251   2.906  -0.006   9.118  0.3868  0.9775  0.7994
  686TIP3   OH226252   7.456   2.343   7.548 -0.0624  0.5804 -0.4548
  686TIP3    H126253   7.525   2.282   7.576 -1.2685 -0.3229  0.6811
  686TIP3    H226254   7.458   2.339   7.452  0.2446 -0.8670 -0.4194
  687TIP3   OH226255   3.342   4.974   9.351 -0.3239  0.3011  0.0992
  687TIP3    H126256   3.322   4.881   9.362 -0.7340  0.5116  1.3180
  687TIP3    H226257   3.280   5.019   9.409 -0.9724  1.4272 -1.3963
  688TIP3   OH226258   4.805   6.334   8.290 -0.2736 -0.4215  0.2297
  688TIP3    H126259   4.755   6.300   8.216 -0.1459 -0.5331  0.1952
  688TIP3    H226260   4.739   6.356   8.355 -0.3115 -1.6894  0.6518
  689TIP3   OH226261   5.935   0.536   7.152 -0.2656  0.5135  0.3550
  689TIP3    H126262   5.915   0.559   7.061 -1.4679 -3.7373 -0.6856
  689TIP3    H226263   6.025   0.502   7.149 -0.9203 -1.3465  0.2487
  690TIP3   OH226264   2.984   5.277   7.138 -0.1129 -0.3906  0.0534
  690TIP3    H126265   3.065   5.327   7.149 -0.2178 -0.4716  1.3665
  690TIP3    H226266   3.007   5.207   7.077  1.2929 -1.3701  1.6069
  691TIP3   OH226267   2.818   3.507   7.982  0.5383 -0.3308  0.2511
  691TIP3    H126268   2.910   3.510   8.009 -0.0109 -0.6945  2.4301
  691TIP3    H226269   2.770   3.495   8.064 -1.3698 -1.6728 -0.9796
  692TIP3   OH226270   0.266   1.196   9.382  0.0771 -0.2894 -0.2698
  692TIP3    H126271   0.358   1.197   9.356 -0.4088 -0.0666 -2.0920
  692TIP3    H226272   0.258   1.120   9.440  1.5426  0.1334  0.5506
  693TIP3   OH226273   7.421   3.307   7.309 -0.9275 -0.4317  0.3714
  693TIP3    H126274   7.443   3.355   7.229 -1.5873  1.2749  1.1793
  693TIP3    H226275   7.438   3.216   7.287  0.8472  0.1778 -1.0771
  694TIP3   OH226276   4.526   2.853   7.821 -0.2505  0.1132  0.2440
  694TIP3    H126277   4.579   2.846   7.900 -2.2674  1.8026  1.8790
  694TIP3    H226278   4.588   2.844   7.749  1.6671 -1.5213  1.9926
  695TIP3   OH226279   2.600   1.088   8.964  0.2199 -0.4768  0.0595
  695TIP3    H126280   2.574   1.009   8.918 -1.2286  0.5665 -1.0067
  695TIP3    H226281   2.629   1.058   9.051 -0.4108 -2.1330 -0.2794
  696TIP3   OH226282   4.937   0.973   9.518  0.1040 -0.8984  0.1764
  696TIP3    H126283   4.870   1.040   9.532 -0.0583 -1.1743  0.7249
  696TIP3    H226284   4.891   0.899   9.479  0.4049 -0.4497 -1.0810
  697TIP3   OH226285   3.659   6.398   7.907  0.6431  0.2162  0.0682
  697TIP3    H126286   3.718   6.448   7.964 -0.3455  0.3668  0.9840
  697TIP3    H226287   3.708   6.387   7.825  3.1169 -2.1222  1.7196
  698TIP3   OH226288   4.352   3.933   7.028  0.5488  0.1218  0.2206
  698TIP3    H126289   4.338   4.024   7.055 -0.5701  0.0635 -0.1194
  698TIP3    H226290   4.437   3.910   7.067 -0.0489  0.6875  1.9859
  699TIP3   OH226291   7.514   7.258   7.575  0.3175  0.0707 -0.1495
  699TIP3    H126292   7.575   7.202   7.624  0.7371  1.0370  0.4766
  699TIP3    H226293   7.570   7.302   7.511  0.2799  0.9065  0.3774
  700TIP3   OH226294   0.986   0.404   6.649  0.5385 -0.3503  0.0983
  700TIP3    H126295   0.971   0.326   6.701 -1.0772  0.3243  0.6820
  700TIP3    H226296   0.935   0.473   6.692  3.4907  1.5847  0.8326
  701TIP3   OH226297   0.723   6.443   7.157 -0.2680  0.1805 -0.2919
  701TIP3    H126298   0.797   6.445   7.218 -1.7727  0.8168  1.6098
  701TIP3    H226299   0.759   6.475   7.075  1.5239  0.6656  0.6235
  702TIP3   OH226300   5.780   0.829   7.538 -0.0257 -0.0395  0.0220
  702TIP3    H126301   5.789   0.799   7.629  1.3418  1.3256  0.3791
  702TIP3    H226302   5.763   0.749   7.489  0.9825 -1.0778  1.2585
  703TIP3   OH226303   4.768   2.818   7.641 -0.9212 -0.3045  0.1514
  703TIP3    H126304   4.803   2.736   7.675 -0.1197  0.3998  1.0553
  703TIP3    H226305   4.742   2.797   7.551  0.3324 -1.2506 -0.0131
  704TIP3   OH226306   0.292   3.851   8.141 -0.4211  0.6302 -0.8180
  704TIP3    H126307   0.253   3.800   8.212 -0.5131  0.9405 -0.6435
  704TIP3    H226308   0.336   3.786   8.086  0.9456  0.5551  0.3352
  705TIP3   OH226309   2.694   1.985   9.241 -0.3089  1.0149 -0.7308
  705TIP3    H126310   2.786   1.965   9.258 -1.1134 -1.8601  0.8827
  705TIP3    H226311   2.675   2.062   9.295  0.4126 -0.3160  1.5435
  706TIP3   OH226312   2.497   2.577   8.720  0.2716 -0.4697 -0.0310
  706TIP3    H126313   2.410   2.539   8.707  0.4594 -0.5707 -1.0328
  706TIP3    H226314   2.557   2.503   8.720  0.3906 -0.3744  0.3529
  707TIP3   OH226315   0.428   7.197   7.965  0.3644  0.6540 -0.0348
  707TIP3    H126316   0.358   7.188   8.030  1.4801  0.5077  1.2053
  707TIP3    H226317   0.509   7.181   8.015  1.3011  1.0651 -1.3592
  708TIP3   OH226318   2.934   1.140   6.631 -0.4223 -0.2789 -0.1528
  708TIP3    H126319   2.965   1.089   6.706 -0.6474  1.6040  1.3251
  708TIP3    H226320   3.003   1.131   6.565 -0.2413 -2.0336  0.2495
  709TIP3   OH226321   4.415   2.724   8.532 -0.0599  0.2185  0.2848
  709TIP3    H126322   4.415   2.765   8.445  1.5839  1.2585  0.7323
  709TIP3    H226323   4.409   2.797   8.593  0.9773 -0.3412  1.0797
  710TIP3   OH226324   5.305   7.183   7.841 -0.0114 -0.3474  0.4291
  710TIP3    H126325   5.383   7.224   7.804  0.4329 -1.7757 -0.2914
  710TIP3    H226326   5.232   7.236   7.810  0.6143  0.4738  0.3568
  711TIP3   OH226327   0.707   6.885   8.532 -0.3167  0.4065 -0.7028
  711TIP3    H126328   0.676   6.888   8.623  0.0526  1.1085 -0.5935
  711TIP3    H226329   0.768   6.959   8.525  1.7431 -1.2289 -0.7715
  712TIP3   OH226330   6.522   6.694   7.946 -0.1775  0.0260  0.0337
  712TIP3    H126331   6.578   6.698   8.023 -0.6003  0.9834  0.3184
  712TIP3    H226332   6.581   6.674   7.874  0.1158 -1.6409  0.6929
  713TIP3   OH226333   5.155   3.812   7.061  0.2354 -0.6034  0.0798
  713TIP3    H126334   5.155   3.869   7.138 -0.1511 -0.5234  0.0214
  713TIP3    H226335   5.244   3.820   7.026  0.1605  0.0202  0.0270
  714TIP3   OH226336   6.015   2.917   9.362 -0.3685  0.7094  0.6895
  714TIP3    H126337   6.016   3.011   9.382  1.4994  0.7804  0.3943
  714TIP3    H226338   6.095   2.883   9.401 -0.1888 -0.4643 -0.6172
  715TIP3   OH226339   3.158   7.327   8.827 -0.3531  0.0992  0.4610
  715TIP3    H126340   3.186   7.409   8.867 -1.7777  1.4472 -1.1716
  715TIP3    H226341   3.240   7.279   8.811  0.6759  1.9615 -0.1527
  716TIP3   OH226342   2.469   2.885   7.441 -0.2192 -0.0727  0.3554
  716TIP3    H126343   2.461   2.790   7.448 -1.9750  0.0046 -0.1944
  716TIP3    H226344   2.511   2.899   7.357  1.6114 -0.3663  1.1596
  717TIP3   OH226345   3.719   5.007   7.828  0.9720  0.2579  0.3328
  717TIP3    H126346   3.807   5.030   7.856  0.3133  0.5366  2.3203
  717TIP3    H226347   3.691   4.938   7.887 -0.4537  0.7812  0.3197
  718TIP3   OH226348   3.127   6.354   8.353  0.1619  0.2326  0.0160
  718TIP3    H126349   3.112   6.391   8.266 -1.2151  0.3255  0.2822
  718TIP3    H226350   3.111   6.260   8.343 -0.6625  0.3326  0.3000
  719TIP3   OH226351   3.230   4.850   8.021  0.5973  0.4435 -0.4676
  719TIP3    H126352   3.237   4.928   8.077 -2.1759 -0.5404  1.4740
  719TIP3    H226353   3.318   4.811   8.024  1.0268  1.4106  1.8148
  720TIP3   OH226354   4.673   4.715   7.902  0.0249  0.5742 -0.2550
  720TIP3    H126355   4.689   4.675   7.817  2.5352 -1.9826  1.2111
  720TIP3    H226356   4.582   4.693   7.923 -0.1747 -0.0174 -1.6356
  721TIP3   OH226357   6.495   5.892   8.742  0.1284  0.2461 -0.2766
  721TIP3    H126358   6.411   5.937   8.749  0.5912  1.5233 -2.1743
  721TIP3    H226359   6.536   5.902   8.828 -1.7317 -0.6615  0.7831
  722TIP3   OH226360   3.771   3.269   9.450 -0.3779  0.0206 -0.4448
  722TIP3    H126361   3.726   3.321   9.383 -0.1247  1.9149  0.7636
  722TIP3    H226362   3.719   3.282   9.529 -1.5244 -3.3849 -0.4985
  723TIP3   OH226363   4.885   0.937   7.566 -0.0633 -0.3965  0.3184
  723TIP3    H126364   4.977   0.958   7.551  1.1400 -3.0152  2.9117
  723TIP3    H226365   4.854   0.901   7.483  0.7948  1.7051 -0.9822
  724TIP3   OH226366   5.038   1.192   7.826 -0.1149 -0.1035 -0.2627
  724TIP3    H126367   5.030   1.196   7.730 -1.1215  0.3425 -0.1764
  724TIP3    H226368   4.948   1.186   7.857  0.2468 -1.1089  0.6351
  725TIP3   OH226369   6.248   2.833   9.532 -0.1753 -0.3977  0.0782
  725TIP3    H126370   6.261   2.746   9.494 -0.3099 -1.0365  1.4241
  725TIP3    H226371   6.297   2.892   9.475 -0.2604 -1.3201 -0.9844
  726TIP3   OH226372   3.279   4.309   8.992 -0.6005  0.2857 -0.0526
  726TIP3    H126373   3.250   4.297   8.902 -0.9754  0.8158 -0.0112
  726TIP3    H226374   3.198   4.321   9.042 -0.4963 -1.6023  0.6287
  727TIP3   OH226375   3.918   6.672   9.228 -0.2544 -0.0243  0.5017
  727TIP3    H126376   3.970   6.701   9.303  0.6537 -1.1417  0.3292
  727TIP3    H226377   3.983   6.660   9.158 -0.7378 -1.3736  0.2600
  728TIP3   OH226378   3.916   2.546   8.443  0.3343  0.5976 -0.4009
  728TIP3    H126379   3.909   2.556   8.539 -2.2956  1.8918 -0.6123
  728TIP3    H226380   3.928   2.453   8.429 -2.2986 -0.1054  1.2065
  729TIP3   OH226381   5.401   5.047   8.999 -0.3341 -0.5592 -0.3870
  729TIP3    H126382   5.352   5.072   8.920  0.7169  0.9491 -0.6171
  729TIP3    H226383   5.473   5.110   9.002 -1.0752  0.2877  2.5092
  730TIP3   OH226384   2.504   2.746   8.424  0.1301 -0.2836  0.0142
  730TIP3    H126385   2.598   2.733   8.430  0.1426 -0.6590 -0.8331
  730TIP3    H226386   2.466   2.677   8.479  0.3547  0.0697  0.6131
  731TIP3   OH226387   0.536   0.387   8.815 -0.2770 -0.2749  0.3309
  731TIP3    H126388   0.510   0.315   8.757  2.8627 -0.3074 -1.2703
  731TIP3    H226389   0.629   0.371   8.833 -0.7463  0.5285  4.3588
  732TIP3   OH226390   1.088   3.804   9.348  0.2964 -0.4682 -0.7780
  732TIP3    H126391   1.081   3.876   9.286 -2.3610 -0.4364 -0.5653
  732TIP3    H226392   1.065   3.726   9.298  0.3936 -0.7676 -0.3672
  733TIP3   OH226393   5.590   2.532   8.910 -0.2274 -0.4768 -0.0383
  733TIP3    H126394   5.498   2.514   8.892 -0.5636 -1.0018  1.9873
  733TIP3    H226395   5.593   2.557   9.002  1.9728 -3.3015  0.8487
  734TIP3   OH226396   2.606   3.575   8.192 -0.7006 -0.6773  0.6677
  734TIP3    H126397   2.598   3.622   8.109  1.9920  1.1237  1.3148
  734TIP3    H226398   2.537   3.612   8.247 -0.6818  0.1911  0.1306
  735TIP3   OH226399   3.201   2.485   8.088  0.6643  0.0402  0.2830
  735TIP3    H126400   3.172   2.409   8.137 -0.5498  1.0514  1.1872
  735TIP3    H226401   3.277   2.518   8.136  1.5226 -0.8771 -0.4070
  736TIP3   OH226402   3.886   6.006   7.303  0.3044 -0.0990  0.0217
  736TIP3    H126403   3.914   6.021   7.212 -0.2428 -0.8352 -0.2704
  736TIP3    H226404   3.818   5.940   7.297  1.2429 -1.2232  1.0957
  737TIP3   OH226405   6.005   3.088   7.537  0.8785  0.2695  0.5054
  737TIP3    H126406   6.015   3.171   7.585 -1.3856  1.9606 -1.6725
  737TIP3    H226407   6.038   3.107   7.449 -1.6615 -0.3749 -0.6664
  738TIP3   OH226408   2.433   1.029   9.443 -0.5732 -0.4047 -0.0042
  738TIP3    H126409   2.386   1.070   9.370  0.5232 -1.3081 -1.2741
  738TIP3    H226410   2.398   0.940   9.447 -0.6612 -0.3463  0.6193
  739TIP3   OH226411   0.046   6.573   7.665 -0.0322  0.1645 -0.1227
  739TIP3    H126412   0.081   6.548   7.579 -0.3978 -0.2388 -0.1626
  739TIP3    H226413   0.028   6.666   7.658  1.3604  0.4707  0.0196
  740TIP3   OH226414   5.620   1.876   9.144 -0.2026 -0.4046  0.4195
  740TIP3    H126415   5.642   1.832   9.226 -0.0548  0.2256  0.7220
  740TIP3    H226416   5.541   1.927   9.165  0.8883  1.2409  0.7048
  741TIP3   OH226417   6.022   2.449   7.549 -0.5641  0.4345 -0.4462
  741TIP3    H126418   6.000   2.520   7.610 -2.8864 -0.9679  0.4927
  741TIP3    H226419   6.022   2.370   7.602 -2.0755 -0.7718 -2.0952
  742TIP3   OH226420   1.293   2.359   8.284  0.4668 -0.0497  0.1777
  742TIP3    H126421   1.218   2.417   8.297  0.2393 -0.2438 -0.2627
  742TIP3    H226422   1.347   2.373   8.362 -0.5041 -0.6440  0.9776
  743TIP3   OH226423   3.660   1.153   6.979 -0.0082 -0.0406  0.1784
  743TIP3    H126424   3.570   1.126   6.997 -0.0156  0.2132  0.5236
  743TIP3    H226425   3.681   1.217   7.048  0.0581  0.7185 -0.5227
  744TIP3   OH226426   0.228   5.620   7.561  0.0034 -0.3987  0.2113
  744TIP3    H126427   0.308   5.616   7.508 -0.3748 -0.0634 -0.4062
  744TIP3    H226428   0.157   5.610   7.497 -0.4343 -1.5206  0.8555
  745TIP3   OH226429   1.124   0.479   9.427  0.1746  0.2006 -0.0998
  745TIP3    H126430   1.081   0.404   9.384 -1.1496  0.3918  0.8393
  745TIP3    H226431   1.098   0.472   9.519  2.0835  0.4145  0.4856
  746TIP3   OH226432   6.581   7.473   8.945 -0.2563  0.1547 -0.0240
  746TIP3    H126433   6.548   7.529   8.875 -0.2927  0.1232 -0.0317
  746TIP3    H226434   6.555   7.385   8.920  1.6644 -0.1575 -1.1187
  747TIP3   OH226435   3.088   0.518   8.454 -0.0985  0.0727 -0.8157
  747TIP3    H126436   3.044   0.533   8.538  1.5804  1.2169 -0.1044
  747TIP3    H226437   3.063   0.428   8.430  0.0016 -0.5706  1.2874
  748TIP3   OH226438   6.141   6.672   8.207 -0.0363 -0.2535  0.3106
  748TIP3    H126439   6.206   6.724   8.158  0.0946  1.4477  2.1779
  748TIP3    H226440   6.193   6.623   8.270 -0.4273 -0.3759  0.5390
  749TIP3   OH226441   7.297   7.351   9.643 -0.0963 -0.1994 -0.0071
  749TIP3    H126442   7.318   7.315   9.729 -1.2323 -0.4306  0.1949
  749TIP3    H226443   7.315   7.445   9.651  2.1736 -0.5666 -0.3097
  750TIP3   OH226444   7.267   0.610   8.204 -0.1677 -0.0468 -0.2578
  750TIP3    H126445   7.230   0.695   8.227 -0.9764 -0.4568 -0.0017
  750TIP3    H226446   7.210   0.547   8.248  0.5745 -0.7140 -0.2332
  751TIP3   OH226447   6.887   0.913   8.603 -1.0436  0.3018 -0.4210
  751TIP3    H126448   6.971   0.943   8.638 -1.2509  0.9338 -0.4415
  751TIP3    H226449   6.848   0.862   8.674 -0.6837  0.0937 -0.3748
  752TIP3   OH226450   1.923   2.789   7.955  0.0663  0.4268  0.0773
  752TIP3    H126451   2.005   2.835   7.939  0.6077 -0.5383 -0.0082
  752TIP3    H226452   1.942   2.697   7.936 -0.1863 -0.3055  2.8556
  753TIP3   OH226453   4.109   1.980   9.242  0.1550 -0.0641 -0.2929
  753TIP3    H126454   4.147   1.936   9.166 -0.2731  0.0195 -0.5539
  753TIP3    H226455   4.015   1.969   9.232  0.1136 -0.5622  0.5343
  754TIP3   OH226456   1.023   1.084   9.504  0.2936 -0.6304  0.2472
  754TIP3    H126457   1.023   1.071   9.409  0.1087 -1.5151  0.3569
  754TIP3    H226458   1.115   1.073   9.529  0.3365 -0.4388  0.1724
  755TIP3   OH226459   3.776   0.159   8.526  0.2591  0.0968 -0.2443
  755TIP3    H126460   3.816   0.200   8.602 -1.1310  0.4196  0.3396
  755TIP3    H226461   3.691   0.127   8.557  0.9496 -2.6076 -0.8401
  756TIP3   OH226462   0.269   4.377   8.955  0.2417 -0.0051  0.5414
  756TIP3    H126463   0.347   4.421   8.990  1.2333 -1.1558 -0.1350
  756TIP3    H226464   0.238   4.435   8.886  0.3622  0.5789  0.9728
  757TIP3   OH226465   4.495   7.376   8.098  0.1295 -0.2970 -0.3690
  757TIP3    H126466   4.570   7.331   8.135  0.2785 -1.6353 -2.1480
  757TIP3    H226467   4.423   7.313   8.107 -0.9219  1.0508  1.5377
  758TIP3   OH226468   3.483   4.605   7.851 -0.5423 -0.1025  0.2193
  758TIP3    H126469   3.555   4.621   7.791 -0.1221  0.6333  0.9055
  758TIP3    H226470   3.460   4.513   7.837  0.0928 -0.1630 -0.4678
  759TIP3   OH226471   7.248   6.209   8.613  0.4276 -0.4585  0.3323
  759TIP3    H126472   7.312   6.277   8.594  0.9284 -0.9631  0.1667
  759TIP3    H226473   7.262   6.143   8.544 -0.2478 -0.5912  0.3115
  760TIP3   OH226474   0.884   4.061   7.287  0.3046 -0.2067 -0.0504
  760TIP3    H126475   0.885   4.076   7.382  3.8554  1.8418 -0.2034
  760TIP3    H226476   0.810   4.113   7.255  0.2185  0.6422  1.4513
  761TIP3   OH226477   0.456   5.092   8.430 -0.2023 -0.0124  0.4128
  761TIP3    H126478   0.408   5.095   8.347  0.7739  1.9831 -0.1551
  761TIP3    H226479   0.544   5.122   8.407 -0.0459  1.1009  2.2538
  762TIP3   OH226480   0.254   4.881   7.758 -0.5398 -0.5134  0.0822
  762TIP3    H126481   0.284   4.815   7.821  1.9584 -0.0780 -0.5540
  762TIP3    H226482   0.279   4.965   7.798 -1.5428 -0.0657 -0.2039
  763TIP3   OH226483   0.093   0.147   7.671  0.3554 -0.0591  0.3957
  763TIP3    H126484   0.178   0.109   7.651  0.6374  1.7975 -2.7794
  763TIP3    H226485   0.112   0.237   7.696 -0.5856 -0.1574  1.5316
  764TIP3   OH226486   4.018   4.467   8.178 -0.5693  0.0500 -0.9962
  764TIP3    H126487   4.095   4.507   8.138 -0.6072  0.9829 -0.1777
  764TIP3    H226488   3.952   4.537   8.177 -1.5341 -0.8490 -2.0167
  765TIP3   OH226489   0.764   4.542   7.568 -0.2562  0.9315 -0.5411
  765TIP3    H126490   0.683   4.511   7.526 -0.0837  2.1311 -1.8503
  765TIP3    H226491   0.776   4.631   7.534  2.1884  0.4120 -1.2916
  766TIP3   OH226492   1.389   5.802   9.506 -0.2465 -0.3308  0.4172
  766TIP3    H126493   1.483   5.807   9.521  0.0163 -0.4911 -1.0115
  766TIP3    H226494   1.378   5.826   9.414 -1.4664 -1.6718  0.1699
  767TIP3   OH226495   5.061   2.449   9.290 -0.1667  0.1730 -0.0162
  767TIP3    H126496   5.036   2.436   9.198  1.2308  1.9922 -0.7091
  767TIP3    H226497   5.151   2.481   9.286 -0.5102  1.5378  1.9270
  768TIP3   OH226498   1.775   3.840   9.697 -0.6002 -0.1786 -0.6531
  768TIP3    H126499   1.689   3.803   9.716 -0.4722 -1.1622 -1.8503
  768TIP3    H226500   1.825   3.767   9.661  0.7249  0.3925 -0.0302
  769TIP3   OH226501   1.845   4.686   7.691 -0.3128  0.0681 -0.4365
  769TIP3    H126502   1.839   4.715   7.782 -0.3216 -0.5041 -0.2502
  769TIP3    H226503   1.800   4.755   7.641  1.9691  1.7507 -0.3318
  770TIP3   OH226504   5.570   7.043   8.418 -0.2690  0.5797  0.0266
  770TIP3    H126505   5.534   7.042   8.329 -0.7733  1.0497  0.2200
  770TIP3    H226506   5.609   7.130   8.427  1.6610 -0.1628 -0.4544
  771TIP3   OH226507   4.962   2.685   8.267 -0.0710  0.6671 -0.6876
  771TIP3    H126508   4.959   2.621   8.195 -0.6778 -0.5557  0.3849
  771TIP3    H226509   5.047   2.671   8.308  0.6026  1.8980 -1.6005
  772TIP3   OH226510   5.712   3.850   7.680  0.1330 -0.0340  0.2988
  772TIP3    H126511   5.715   3.851   7.776  0.5777  1.3549  0.2871
  772TIP3    H226512   5.752   3.932   7.654 -2.1559  0.7309 -1.0321
  773TIP3   OH226513   1.924   2.391   8.402  0.2437 -0.0054  0.0055
  773TIP3    H126514   1.983   2.445   8.350 -1.8222  2.2173 -0.2174
  773TIP3    H226515   1.838   2.404   8.362 -0.4728 -3.2993  0.1481
  774TIP3   OH226516   6.452   6.035   6.894 -0.5100  0.4495 -0.0207
  774TIP3    H126517   6.533   6.014   6.848  0.6091  0.9381  1.6457
  774TIP3    H226518   6.471   6.016   6.986 -3.3417 -2.5760  0.1120
  775TIP3   OH226519   2.829   7.522   8.578  0.4617  0.0935  0.5196
  775TIP3    H126520   2.824   7.538   8.483  1.5041 -1.0622  0.2563
  775TIP3    H226521   2.796   7.603   8.617  1.1543  1.0540 -0.8146
  776TIP3   OH226522   3.136   1.285   9.504 -0.0533  0.2362  0.3946
  776TIP3    H126523   3.044   1.285   9.528 -0.2386  0.0447 -0.2843
  776TIP3    H226524   3.138   1.325   9.417  0.7129  1.8890  1.1284
  777TIP3   OH226525   3.868   0.313   7.623  0.2173  0.0267  0.2242
  777TIP3    H126526   3.826   0.390   7.583  0.1764  0.5443  1.2374
  777TIP3    H226527   3.799   0.247   7.624  0.1674  0.0595 -0.3910
  778TIP3   OH226528   0.413   2.361   9.147 -0.7100  0.3011 -0.3364
  778TIP3    H126529   0.427   2.349   9.053  0.2167  0.3048 -0.2119
  778TIP3    H226530   0.320   2.380   9.155 -0.6682  1.0449 -1.3338
  779TIP3   OH226531   2.996   3.928   7.550  0.1922  0.3833  0.5482
  779TIP3    H126532   2.931   3.945   7.618 -0.2238  1.3912 -0.0879
  779TIP3    H226533   3.080   3.936   7.595 -0.0895  0.3186  1.1029
  780TIP3   OH226534   3.359   2.277   9.682 -0.2738 -0.6611  0.0731
  780TIP3    H126535   3.335   2.368   9.662 -3.9809 -1.7669 -1.2383
  780TIP3    H226536   3.277   2.236   9.709  1.2603 -3.7103  0.5176
  781TIP3   OH226537   5.781   3.588   7.974 -0.4945 -0.3477 -0.3737
  781TIP3    H126538   5.695   3.548   7.958 -0.1813 -1.2260  0.0320
  781TIP3    H226539   5.835   3.557   7.902  0.0161 -1.5112  0.4803
  782TIP3   OH226540   5.930   3.991   8.773  0.1005  0.4986 -0.0612
  782TIP3    H126541   5.974   3.923   8.722 -0.3470  1.1582 -1.3733
  782TIP3    H226542   5.868   3.943   8.829  0.0508 -0.2023 -0.6970
  783TIP3   OH226543   7.421   6.827   7.816  0.3728 -0.4651  0.5186
  783TIP3    H126544   7.505   6.839   7.772  1.4983 -4.3076  1.2460
  783TIP3    H226545   7.362   6.798   7.746 -0.2386  1.5112  0.1501
  784TIP3   OH226546   0.226   1.824   7.544  0.5160 -0.2132 -0.3405
  784TIP3    H126547   0.199   1.826   7.636  1.9729  0.3905  0.0960
  784TIP3    H226548   0.143   1.823   7.495 -0.2872 -1.2865  0.9693
  785TIP3   OH226549   7.210   5.444   9.230 -0.6594 -0.3446  0.2396
  785TIP3    H126550   7.276   5.509   9.256 -2.0000 -0.2246  4.0368
  785TIP3    H226551   7.233   5.365   9.278 -0.8559 -1.7774 -1.8726
  786TIP3   OH226552   6.426   0.606   8.286  0.3536 -0.1538  0.3390
  786TIP3    H126553   6.410   0.512   8.272  0.9642  0.0709 -2.3092
  786TIP3    H226554   6.357   0.650   8.236  0.6115  0.8340  0.8235
  787TIP3   OH226555   0.955   2.920   9.621  0.0072  0.4146  0.3049
  787TIP3    H126556   0.962   2.931   9.716 -1.7777  1.6776  0.3603
  787TIP3    H226557   0.862   2.900   9.607  0.4172 -0.6167 -1.1235
  788TIP3   OH226558   3.937   0.303   8.696  0.0888 -0.1729  0.7506
  788TIP3    H126559   4.006   0.324   8.633 -1.8101 -2.4232 -2.3605
  788TIP3    H226560   3.909   0.388   8.729  1.1138  1.1808 -1.5769
  789TIP3   OH226561   0.679   6.579   8.818  0.6305 -0.1113  0.0222
  789TIP3    H126562   0.617   6.609   8.885  1.4580  0.6105  0.4816
  789TIP3    H226563   0.652   6.626   8.738 -0.8725 -1.5908 -0.4019
  790TIP3   OH226564   2.232   4.017   8.870 -0.3055  0.3424  0.2673
  790TIP3    H126565   2.254   4.110   8.875  0.0745  0.3512 -1.2506
  790TIP3    H226566   2.149   4.015   8.822 -1.3258 -0.0147  1.9251
  791TIP3   OH226567   2.150   6.847   8.629  0.0048 -0.7427  0.1218
  791TIP3    H126568   2.091   6.915   8.660 -0.3583 -1.0419  0.0915
  791TIP3    H226569   2.179   6.877   8.543  1.2097  0.2157  0.8231
  792TIP3   OH226570   5.512   2.150   8.784 -0.4933 -0.7123 -0.5450
  792TIP3    H126571   5.576   2.079   8.795  2.0744  1.6964  1.5897
  792TIP3    H226572   5.542   2.198   8.707 -1.7982 -1.4324 -1.5471
  793TIP3   OH226573   0.852   5.954   8.253 -0.2595 -0.0578  0.1602
  793TIP3    H126574   0.821   5.868   8.226  0.3576 -1.2590  2.9227
  793TIP3    H226575   0.809   5.969   8.337  0.0699  2.1186 -0.0087
  794TIP3   OH226576   2.347   6.876   9.624 -0.7640 -0.4157 -0.3922
  794TIP3    H126577   2.389   6.922   9.551 -0.8215 -0.6364 -0.5635
  794TIP3    H226578   2.375   6.785   9.614 -0.8251 -0.4582 -0.1763
  795TIP3   OH226579   3.252   3.592   7.377 -0.3214 -0.2281 -0.4241
  795TIP3    H126580   3.268   3.681   7.345 -1.6170  0.1583 -0.0617
  795TIP3    H226581   3.167   3.569   7.342  0.3435 -1.6699 -1.1817
  796TIP3   OH226582   4.253   7.386   9.223  0.0388  0.7859  0.0360
  796TIP3    H126583   4.269   7.297   9.192 -2.8541  0.3723 -0.5404
  796TIP3    H226584   4.276   7.442   9.149 -2.1216  0.1498 -1.2026
  797TIP3   OH226585   0.715   6.707   8.096 -0.6482  0.4205 -0.9268
  797TIP3    H126586   0.684   6.688   8.007 -0.4980 -2.0303 -0.5073
  797TIP3    H226587   0.772   6.634   8.118  0.0403  1.4500  0.8687
  798TIP3   OH226588   4.552   2.831   8.286 -0.0798  0.2767 -0.6276
  798TIP3    H126589   4.549   2.923   8.315 -1.1222  0.2651 -0.6787
  798TIP3    H226590   4.606   2.833   8.207  0.5837  0.7154 -0.1763
  799TIP3   OH226591   4.994   5.424   9.135 -0.3417  0.1701 -0.3020
  799TIP3    H126592   4.922   5.430   9.073 -0.4557 -0.2964 -0.2225
  799TIP3    H226593   5.066   5.385   9.084  0.0448  1.1592 -0.5367
  800TIP3   OH226594   2.280   2.784   9.289  0.7869  0.0365  0.3105
  800TIP3    H126595   2.299   2.710   9.347 -0.5831 -1.5385 -1.1118
  800TIP3    H226596   2.198   2.820   9.321  1.2072  0.6616  0.7099
  801TIP3   OH226597   6.753   1.928   8.135  0.4289 -0.3205  0.1996
  801TIP3    H126598   6.806   1.848   8.136 -0.7961 -1.1690  0.1412
  801TIP3    H226599   6.679   1.908   8.192 -0.2802  0.5006 -0.4041
  802TIP3   OH226600   0.430   3.052   8.720 -0.1668  0.1955  0.2767
  802TIP3    H126601   0.460   2.963   8.742 -0.5499 -0.6468 -2.3191
  802TIP3    H226602   0.335   3.044   8.712 -0.1868  0.8147 -0.1324
  803TIP3   OH226603   2.325   3.611   9.701 -0.6195 -0.0152 -0.2528
  803TIP3    H126604   2.300   3.695   9.664  0.0392 -0.4194 -1.6749
  803TIP3    H226605   2.280   3.608   9.786 -2.0683  0.9891 -0.9441
  804TIP3   OH226606   0.011   5.009   7.848  0.1625 -0.3506 -0.0285
  804TIP3    H126607   0.076   4.939   7.838 -0.0403 -0.2992 -2.0529
  804TIP3    H226608  -0.048   4.997   7.774 -1.2483  0.5653  0.9146
  805TIP3   OH226609   4.753   3.481   8.873  0.2100 -0.4810  0.1612
  805TIP3    H126610   4.678   3.423   8.864  0.6109 -1.4527  2.4719
  805TIP3    H226611   4.774   3.479   8.966  1.7972  1.4405 -0.0935
  806TIP3   OH226612   3.419   1.166   7.093 -0.3758  0.0165  0.3184
  806TIP3    H126613   3.399   1.084   7.139 -0.5391  0.0195  0.2525
  806TIP3    H226614   3.335   1.196   7.059 -0.2188 -0.1115 -0.1960
  807TIP3   OH226615   5.227   4.080   9.143 -0.0923  0.0953  0.3188
  807TIP3    H126616   5.215   4.005   9.085 -1.2316  0.3819  0.1632
  807TIP3    H226617   5.160   4.071   9.210  0.5402  0.3358  1.0030
  808TIP3   OH226618   4.285   6.593   9.257 -0.4121  0.0785 -0.5522
  808TIP3    H126619   4.231   6.657   9.303  0.0532  0.3047 -0.3172
  808TIP3    H226620   4.375   6.620   9.275 -0.2163 -0.4582 -0.7134
  809TIP3   OH226621   2.674   6.224   8.630  0.1026 -0.4680 -0.2322
  809TIP3    H126622   2.749   6.277   8.599 -0.3974 -0.0546 -0.7649
  809TIP3    H226623   2.634   6.190   8.549  0.1276 -1.2678  0.0863
  810TIP3   OH226624   5.928   4.912   9.286  0.2476 -0.1509 -0.1723
  810TIP3    H126625   5.897   4.885   9.200  2.8954 -4.3581 -0.1059
  810TIP3    H226626   6.000   4.971   9.268  0.0362 -0.0731 -0.7969
  811TIP3   OH226627   3.120   2.613   7.159  0.2407  0.0106  0.3120
  811TIP3    H126628   3.184   2.684   7.164  0.2275  0.0862 -0.5334
  811TIP3    H226629   3.169   2.536   7.190  0.2658  0.3605  1.1829
  812TIP3   OH226630   4.588   5.742   6.982  0.3994  0.1745 -0.5870
  812TIP3    H126631   4.551   5.658   7.009 -0.0631  1.0742  1.9020
  812TIP3    H226632   4.682   5.725   6.972  0.8998 -0.0833  3.1293
  813TIP3   OH226633   4.923   2.215   9.439 -0.6325 -0.2446  0.1314
  813TIP3    H126634   4.934   2.308   9.421 -0.3174 -0.2298  0.3969
  813TIP3    H226635   4.942   2.172   9.355  1.1996 -0.1982  0.4757
  814TIP3   OH226636   2.419   5.590   7.261 -0.1203 -0.1761 -0.0282
  814TIP3    H126637   2.447   5.517   7.315 -0.8608 -0.0618  0.5224
  814TIP3    H226638   2.487   5.657   7.273  0.6960 -0.8638 -0.7482
  815TIP3   OH226639   1.388   1.570   7.970  0.3764  0.7253 -0.3047
  815TIP3    H126640   1.296   1.593   7.984  0.4658  1.0319 -0.2197
  815TIP3    H226641   1.431   1.593   8.053  0.3282 -0.5004  0.0825
  816TIP3   OH226642   5.887   0.935   6.878  0.2528  0.2239  0.1246
  816TIP3    H126643   5.848   0.948   6.791 -0.3213  1.2782  0.5229
  816TIP3    H226644   5.851   1.006   6.931  0.9870 -0.1167  1.1009
  817TIP3   OH226645   2.301   1.623   7.280 -0.4562 -0.3204 -0.3189
  817TIP3    H126646   2.385   1.580   7.298  0.3661  0.8542 -1.2218
  817TIP3    H226647   2.325   1.712   7.253 -1.8283 -0.5635 -2.6062
  818TIP3   OH226648   5.753   6.459   8.218  0.2431  0.7577  0.7847
  818TIP3    H126649   5.691   6.423   8.155  0.6260 -2.0499  1.8649
  818TIP3    H226650   5.721   6.430   8.303  2.6263 -0.2976  1.4266
  819TIP3   OH226651   3.783   5.186   8.600  0.6788 -0.2256 -0.0223
  819TIP3    H126652   3.731   5.250   8.551  0.5099 -1.1053 -1.0511
  819TIP3    H226653   3.740   5.179   8.685  0.0352  0.1854 -0.3059
  820TIP3   OH226654   1.209   6.123   7.648  0.2570 -0.3559 -0.0026
  820TIP3    H126655   1.268   6.050   7.666  1.3318  0.3134 -0.7077
  820TIP3    H226656   1.262   6.185   7.598 -0.1029  1.7057  2.0351
  821TIP3   OH226657   4.077   3.096   9.162  0.2629  0.1217 -1.1021
  821TIP3    H126658   4.159   3.143   9.143  1.4148 -0.9410  0.8528
  821TIP3    H226659   4.059   3.046   9.083  2.2907 -0.6727 -1.1356
  822TIP3   OH226660   4.607   0.186   9.314  0.1536  0.0426  0.2514
  822TIP3    H126661   4.692   0.215   9.346 -0.8285  1.0713  2.0644
  822TIP3    H226662   4.569   0.137   9.386 -0.4217 -1.2550 -0.8845
  823TIP3   OH226663   4.802   3.126   9.170  0.2996  0.4868 -0.5210
  823TIP3    H126664   4.826   3.054   9.229 -0.0518  1.0165  0.2874
  823TIP3    H226665   4.884   3.150   9.126  1.0535  1.4529  1.2890
  824TIP3   OH226666   4.430   5.496   7.022 -0.1243  0.3519  0.0766
  824TIP3    H126667   4.351   5.539   6.989  0.4648  0.9369 -0.6219
  824TIP3    H226668   4.417   5.404   7.002 -1.5691  0.1034  1.9257
  825TIP3   OH226669   1.196   4.381   8.799  0.0045  0.1455 -0.1396
  825TIP3    H126670   1.133   4.418   8.861 -2.6309 -0.8807 -2.0299
  825TIP3    H226671   1.182   4.430   8.718  0.6729 -0.9996 -0.9722
  826TIP3   OH226672   1.873   2.106   8.883  0.0581 -0.2118 -0.4701
  826TIP3    H126673   1.966   2.130   8.885 -0.5078  2.3925  1.2424
  826TIP3    H226674   1.835   2.161   8.814 -0.5321  0.4928  0.3815
  827TIP3   OH226675   2.035   1.082   9.011  0.2899 -0.0273  0.0025
  827TIP3    H126676   1.966   1.143   9.036 -0.4775 -2.3800  4.6578
  827TIP3    H226677   1.988   1.002   8.986  1.3407 -0.5832 -0.2714
  828TIP3   OH226678   2.488   7.113   8.828 -0.2009 -0.1213  0.3992
  828TIP3    H126679   2.535   7.169   8.890 -0.1109  0.8371 -0.5057
  828TIP3    H226680   2.398   7.112   8.860  0.1359 -0.8231  1.3521
  829TIP3   OH226681   6.221   5.029   7.917 -0.0456 -0.2370 -0.4011
  829TIP3    H126682   6.238   5.109   7.967  1.9948 -1.2313  0.6624
  829TIP3    H226683   6.308   4.990   7.905 -1.0571 -2.9528  0.2841
  830TIP3   OH226684   5.239   6.740   7.830  0.1203 -0.3762 -0.1650
  830TIP3    H126685   5.306   6.806   7.817  0.8038 -1.1450 -0.6882
  830TIP3    H226686   5.242   6.720   7.923  0.0673  0.1585 -0.0471
  831TIP3   OH226687   3.819   7.112   8.867  0.4718  0.0856 -0.2162
  831TIP3    H126688   3.749   7.137   8.927 -0.4437 -0.1899 -1.1417
  831TIP3    H226689   3.788   7.138   8.780  0.1724 -2.6190 -1.0408
  832TIP3   OH226690   5.545   2.902   9.007  0.4771  0.3921  0.0985
  832TIP3    H126691   5.452   2.908   9.027  0.1084 -0.4374 -1.2641
  832TIP3    H226692   5.584   2.977   9.053 -0.9363  1.0927  0.2124
  833TIP3   OH226693   6.567   2.519   8.008 -0.2898  0.1775  0.0282
  833TIP3    H126694   6.483   2.564   7.998  1.1393  3.3063  0.8637
  833TIP3    H226695   6.591   2.532   8.100 -0.8540 -4.6736  1.1305
  834TIP3   OH226696   5.420   2.552   8.264  0.3872  0.7315 -0.5155
  834TIP3    H126697   5.336   2.564   8.309 -0.4157  1.3541 -2.1079
  834TIP3    H226698   5.476   2.621   8.299 -0.4448  1.6498 -0.9513
  835TIP3   OH226699   2.338   0.335   8.560 -0.2662  0.4101  0.4126
  835TIP3    H126700   2.365   0.291   8.640  0.3182  0.4130  0.2188
  835TIP3    H226701   2.332   0.266   8.494  1.7564  0.7483 -0.1767
  836TIP3   OH226702   2.242   3.431   8.830 -0.3172  0.0602  0.0106
  836TIP3    H126703   2.248   3.359   8.892  0.9294 -0.8029 -1.0616
  836TIP3    H226704   2.280   3.506   8.876 -0.6949 -0.2027  0.7708
  837TIP3   OH226705   2.669   2.705   7.054 -0.2150 -0.0975  0.1049
  837TIP3    H126706   2.741   2.666   7.103  0.5611  1.1238 -0.0223
  837TIP3    H226707   2.590   2.678   7.101  0.4153 -0.2186  1.1168
  838TIP3   OH226708   7.222   4.536   7.902  0.3544 -0.0364 -0.3389
  838TIP3    H126709   7.247   4.627   7.890  2.0446 -0.2480  1.0426
  838TIP3    H226710   7.144   4.539   7.957  1.1670  0.5924  0.8210
  839TIP3   OH226711   3.240   6.253   9.097 -0.1968 -0.1096  0.0457
  839TIP3    H126712   3.288   6.322   9.144 -1.1803  0.5385  0.1447
  839TIP3    H226713   3.214   6.295   9.014  2.1310 -1.4531 -1.4706
  840TIP3   OH226714   2.555   4.059   8.930 -0.0435 -0.6144  0.4900
  840TIP3    H126715   2.651   4.067   8.928  0.0232 -1.2623  0.6203
  840TIP3    H226716   2.528   4.113   9.004  0.3490 -1.4044  1.2422
  841TIP3   OH226717   5.708   1.665   7.919  0.0422 -0.3669 -0.1293
  841TIP3    H126718   5.760   1.585   7.929 -0.2491 -1.0462 -2.9901
  841TIP3    H226719   5.620   1.633   7.899 -0.1526  0.6465 -0.9757
  842TIP3   OH226720   4.126   6.748   9.410 -1.1833  0.3502 -0.0226
  842TIP3    H126721   4.205   6.795   9.438  0.6162 -2.7913  0.6936
  842TIP3    H226722   4.095   6.706   9.490 -2.3719 -0.1498 -0.7364
  843TIP3   OH226723   4.771   4.898   7.668 -0.5410 -0.1665  0.0369
  843TIP3    H126724   4.849   4.898   7.613 -1.2934  0.5564 -1.0756
  843TIP3    H226725   4.750   4.806   7.681 -0.6395 -0.3541 -1.3428
  844TIP3   OH226726   1.885   0.876   7.141  0.6518  0.6355  0.4995
  844TIP3    H126727   1.974   0.888   7.176  0.6778  0.4873  0.4823
  844TIP3    H226728   1.898   0.864   7.047  0.5166  1.9692  0.2864
  845TIP3   OH226729   3.732   6.718   9.030  0.1218  0.1702  0.3660
  845TIP3    H126730   3.699   6.771   9.103  0.7981  0.3331  0.5545
  845TIP3    H226731   3.826   6.713   9.044 -0.1133 -3.0585  1.6995
  846TIP3   OH226732   7.249   1.588   7.924 -0.8314  0.2082 -0.1596
  846TIP3    H126733   7.216   1.676   7.944 -1.3334 -0.0198  0.0364
  846TIP3    H226734   7.246   1.542   8.008  2.3570  0.8917  0.4522
  847TIP3   OH226735   0.271   0.743   6.754 -0.0827  0.0714 -0.7575
  847TIP3    H126736   0.320   0.806   6.702 -0.8111  1.1551 -0.1648
  847TIP3    H226737   0.327   0.665   6.756  0.7595  0.6252 -1.6327
  848TIP3   OH226738   6.997   3.511   7.355 -0.5639  0.6944 -0.0606
  848TIP3    H126739   7.027   3.600   7.337  1.7707 -0.2210 -1.1762
  848TIP3    H226740   7.032   3.459   7.282  0.1481 -1.4885  1.7063
  849TIP3   OH226741   5.470   4.183   8.310  0.6204  0.2062  0.2200
  849TIP3    H126742   5.381   4.215   8.294  1.3057  1.9467 -0.3281
  849TIP3    H226743   5.466   4.091   8.285 -0.7062  0.5695 -1.1084
  850TIP3   OH226744   6.991   0.610   8.906  0.9447  0.1821  0.0995
  850TIP3    H126745   7.072   0.580   8.864  1.2319 -1.6214  1.8003
  850TIP3    H226746   6.943   0.530   8.925 -0.5404  1.1330  0.5003
  851TIP3   OH226747   1.135   0.399   8.217  0.1050  0.0121 -0.1163
  851TIP3    H126748   1.228   0.400   8.195  0.0021 -1.1490 -0.6519
  851TIP3    H226749   1.090   0.397   8.133 -0.3511 -1.3598  0.1363
  852TIP3   OH226750   2.691   3.322   8.228 -0.2674 -0.0927 -0.1143
  852TIP3    H126751   2.647   3.407   8.226 -0.7273 -0.1573  2.8643
  852TIP3    H226752   2.708   3.306   8.321 -0.1291 -3.2300 -0.5826
  853TIP3   OH226753   1.681   2.433   7.575 -0.4852 -0.3283  0.3050
  853TIP3    H126754   1.617   2.501   7.597 -1.5747 -1.2061 -0.0267
  853TIP3    H226755   1.752   2.480   7.531 -0.8273  0.6965  0.8184
  854TIP3   OH226756   3.969   3.716   8.477  0.3570  0.2312  0.4045
  854TIP3    H126757   4.025   3.642   8.453  0.3962  0.3752  0.0443
  854TIP3    H226758   4.029   3.787   8.495  0.3447  0.0065  1.3555
  855TIP3   OH226759   5.944   4.580   8.840 -0.1675 -0.7696  0.5179
  855TIP3    H126760   5.956   4.582   8.935  0.3524  3.2509  0.5200
  855TIP3    H226761   6.021   4.625   8.805 -2.2725  1.5691 -1.4531
  856TIP3   OH226762   6.230   1.439   7.202 -0.1773  0.5804 -0.2217
  856TIP3    H126763   6.264   1.433   7.291 -1.0608  0.9723  0.1525
  856TIP3    H226764   6.148   1.390   7.205  0.1843 -0.1132 -1.0388
  857TIP3   OH226765   7.381   3.711   8.398 -0.4163  0.4469  0.3796
  857TIP3    H126766   7.463   3.760   8.397  0.1297 -0.3030 -2.4703
  857TIP3    H226767   7.405   3.623   8.425 -0.2891  0.2981 -0.1908
  858TIP3   OH226768   2.682   2.766   8.719  0.4271 -0.4105  0.2145
  858TIP3    H126769   2.627   2.690   8.702  1.0838 -0.7308 -0.4877
  858TIP3    H226770   2.688   2.770   8.815  0.0080 -0.9574  0.2663
  859TIP3   OH226771   5.636   4.160   9.185 -0.3655 -0.2025  0.4735
  859TIP3    H126772   5.559   4.150   9.240 -0.3931  1.2668  0.7309
  859TIP3    H226773   5.648   4.073   9.145 -1.5689 -0.7118  1.1610
  860TIP3   OH226774   5.088   4.707   8.702  0.3678 -0.1351 -0.1006
  860TIP3    H126775   5.010   4.668   8.662  0.4409  0.1847 -0.5634
  860TIP3    H226776   5.111   4.780   8.644  0.2780  0.5531  0.7083
  861TIP3   OH226777   1.906   6.641   7.642  0.1066 -0.5609  0.4352
  861TIP3    H126778   1.877   6.725   7.677 -0.5676 -0.5578 -0.1076
  861TIP3    H226779   1.945   6.596   7.717  1.3788  0.6220  0.5039
  862TIP3   OH226780   4.189   6.422   8.716 -0.1883  0.4382 -0.4210
  862TIP3    H126781   4.259   6.479   8.747 -0.8140  0.2566  1.4930
  862TIP3    H226782   4.115   6.481   8.702 -0.3845  0.3073  0.0508
  863TIP3   OH226783   1.855   2.749   8.619  0.3240 -0.4748  0.7813
  863TIP3    H126784   1.881   2.774   8.531  1.8623 -1.1440  1.0248
  863TIP3    H226785   1.815   2.828   8.656 -0.4419 -0.2212 -0.5238
  864TIP3   OH226786   7.038   1.793   9.034  0.0236  0.3412 -0.3797
  864TIP3    H126787   7.082   1.864   8.986 -0.5643  0.4013 -0.8377
  864TIP3    H226788   7.053   1.715   8.981  0.0873  0.2475 -0.2242
  865TIP3   OH226789   0.038   2.408   8.307  0.3673  0.3849 -0.8371
  865TIP3    H126790  -0.017   2.424   8.384  0.0025  0.9764 -1.2117
  865TIP3    H226791   0.111   2.469   8.316  1.4706 -1.0275  0.1258
  866TIP3   OH226792   4.643   0.894   7.985  0.4385  0.2207 -0.3178
  866TIP3    H126793   4.737   0.898   8.000  0.4773 -0.7549 -0.2182
  866TIP3    H226794   4.631   0.821   7.924 -0.2715  0.1066 -0.0588
  867TIP3   OH226795   4.684   7.159   8.139  0.5433  0.2143 -0.0668
  867TIP3    H126796   4.616   7.100   8.108  0.9972 -0.1553 -0.3812
  867TIP3    H226797   4.706   7.127   8.226 -0.6072  1.1453  0.5994
  868TIP3   OH226798   7.030   7.139   7.457  0.6162 -0.0444  0.1638
  868TIP3    H126799   6.968   7.207   7.485  0.3266  1.1135 -2.9217
  868TIP3    H226800   6.975   7.063   7.439  0.2197  0.5242 -1.1593
  869TIP3   OH226801   4.368   5.783   8.623  0.6014  0.4919 -0.9015
  869TIP3    H126802   4.310   5.717   8.584  0.3907  0.9022 -1.2933
  869TIP3    H226803   4.417   5.735   8.690  0.4539 -0.0653 -1.1809
  870TIP3   OH226804   1.712   2.833   9.054  0.7516  0.6455  0.1430
  870TIP3    H126805   1.655   2.775   9.002 -0.9717  0.2641  2.3210
  870TIP3    H226806   1.686   2.921   9.029  0.0027  0.4634  0.2517
  871TIP3   OH226807   3.956   1.804   9.627 -0.0195 -0.2140 -0.0192
  871TIP3    H126808   3.895   1.803   9.553  1.6541  3.6922 -1.7302
  871TIP3    H226809   3.970   1.897   9.645  2.6986 -0.9916  2.6459
  872TIP3   OH226810   3.201   6.536   7.764 -0.2186  0.4801  0.2577
  872TIP3    H126811   3.281   6.538   7.712  0.6448  0.2420  1.5507
  872TIP3    H226812   3.183   6.443   7.777 -1.4137  0.4921 -1.0461
  873TIP3   OH226813   0.099   6.825   8.882 -0.3323 -0.5910  0.4964
  873TIP3    H126814   0.125   6.866   8.964 -0.9947  0.0754  0.3825
  873TIP3    H226815   0.121   6.732   8.894 -0.1241 -0.4471  1.2994
  874TIP3   OH226816   0.850   0.296   8.817  0.1047 -0.6163  0.0163
  874TIP3    H126817   0.814   0.242   8.887  1.5120 -2.3074 -0.4912
  874TIP3    H226818   0.932   0.332   8.853  0.8251 -1.4767 -0.7049
  875TIP3   OH226819   1.201   5.036   7.143  0.2662  0.6720 -0.3923
  875TIP3    H126820   1.157   5.121   7.156 -1.7125 -0.3858  0.3058
  875TIP3    H226821   1.140   4.987   7.087  0.4293 -0.9432  0.7772
  876TIP3   OH226822   5.384   4.161   7.629  0.1361  0.6554 -0.2824
  876TIP3    H126823   5.347   4.129   7.546 -0.3346 -0.3745  0.3113
  876TIP3    H226824   5.308   4.168   7.687  0.3640  2.0258 -0.1204
  877TIP3   OH226825   3.582   3.812   7.681 -0.0847  0.4632 -0.0360
  877TIP3    H126826   3.609   3.723   7.657 -1.5119  0.1473 -0.5995
  877TIP3    H226827   3.515   3.799   7.748 -1.1642  1.0435 -0.9695
  878TIP3   OH226828   5.506   2.396   6.991  0.1388 -0.7793 -0.2757
  878TIP3    H126829   5.599   2.422   6.988  0.1391 -0.8688 -2.4401
  878TIP3    H226830   5.484   2.397   7.085  2.6651 -1.9978  0.4192
  879TIP3   OH226831   5.286   2.891   9.073 -0.0347  0.0273 -0.3502
  879TIP3    H126832   5.283   2.856   9.163 -0.8053 -0.8975 -0.7152
  879TIP3    H226833   5.275   2.985   9.084  2.2478  0.2441  0.6754
  880TIP3   OH226834   0.049   6.298   8.897  0.2983 -0.0887  0.0098
  880TIP3    H126835   0.142   6.288   8.878  0.2025 -1.5052  0.1462
  880TIP3    H226836   0.027   6.222   8.951 -1.0692 -0.1577 -0.5839
  881TIP3   OH226837   7.012   1.737   8.143  0.7725 -0.3495 -0.2311
  881TIP3    H126838   7.037   1.811   8.198  0.3442  1.2405 -2.0635
  881TIP3    H226839   7.061   1.663   8.179  0.2162  0.4873  2.4807
  882TIP3   OH226840   1.981   0.058   6.769 -0.0269 -0.7559  0.1475
  882TIP3    H126841   1.950   0.074   6.858 -0.0359 -0.5737  0.1136
  882TIP3    H226842   2.053  -0.004   6.779  0.1816 -0.4901  0.3119
  883TIP3   OH226843   1.736   2.110   8.456  0.0542 -0.4234  0.0009
  883TIP3    H126844   1.806   2.059   8.415  1.9050  0.6942  1.5634
  883TIP3    H226845   1.682   2.140   8.383  0.9084 -1.7632 -1.2266
  884TIP3   OH226846   0.549   1.507   9.154  0.4275  0.0019  0.3786
  884TIP3    H126847   0.560   1.572   9.224  1.0571  1.8929 -1.3614
  884TIP3    H226848   0.593   1.546   9.078 -0.5606 -1.7694 -1.2006
  885TIP3   OH226849   6.771   2.009   7.076  0.4153  0.2449  0.3239
  885TIP3    H126850   6.792   1.953   7.001  1.4753  0.8871  0.1120
  885TIP3    H226851   6.844   2.071   7.080 -1.2531  2.3614 -0.1771
  886TIP3   OH226852   3.837   5.262   7.559  0.1958  0.2172 -0.2411
  886TIP3    H126853   3.903   5.328   7.584 -0.1591  0.0753  1.1858
  886TIP3    H226854   3.754   5.299   7.591  0.1277 -1.3769  1.5712
  887TIP3   OH226855   5.737   1.052   8.564  0.0777  0.2091 -0.0942
  887TIP3    H126856   5.767   1.138   8.590 -0.4325 -0.1562  1.8272
  887TIP3    H226857   5.717   1.007   8.646 -0.7945 -1.3252 -1.0909
  888TIP3   OH226858   6.800   7.329   9.058 -0.2913 -0.0186  0.0216
  888TIP3    H126859   6.733   7.386   9.019  0.5509  1.5611  0.7779
  888TIP3    H226860   6.785   7.243   9.018 -2.3168  0.4517 -0.3343
  889TIP3   OH226861   4.850   4.006   7.546 -0.6073  0.2111  0.6103
  889TIP3    H126862   4.797   4.026   7.469 -1.1005 -0.7018  0.7061
  889TIP3    H226863   4.932   4.055   7.532 -0.9683  0.6148 -0.1442
  890TIP3   OH226864   3.851   0.755   8.116 -0.6181  0.3144 -0.3182
  890TIP3    H126865   3.907   0.815   8.166 -1.1125  0.0000  0.6541
  890TIP3    H226866   3.762   0.775   8.146 -0.8767 -0.2702 -0.6677
  891TIP3   OH226867   7.452   5.255   7.926  0.1844  0.7154  0.4930
  891TIP3    H126868   7.463   5.162   7.904 -0.0046  0.8449 -0.1497
  891TIP3    H226869   7.406   5.293   7.851  1.7025  1.6661 -0.0060
  892TIP3   OH226870   5.976   2.307   8.065  0.0826 -0.3359  0.1251
  892TIP3    H126871   5.924   2.382   8.038  0.0444  0.0794  1.2735
  892TIP3    H226872   5.944   2.286   8.153 -0.3672 -2.1247 -0.4395
  893TIP3   OH226873   6.422   0.087   9.091 -0.0354  0.4231 -0.1480
  893TIP3    H126874   6.454   0.104   9.180  0.4788 -0.6993 -0.0901
  893TIP3    H226875   6.483   0.021   9.056 -0.9887 -0.1208 -0.8541
  894TIP3   OH226876   1.845   6.690   8.541 -0.2754  0.3498 -0.0068
  894TIP3    H126877   1.879   6.723   8.624 -2.3412  2.2164  0.1599
  894TIP3    H226878   1.921   6.691   8.482  0.1705  4.0584  0.4147
  895TIP3   OH226879   5.862   4.946   8.268 -0.1307  0.7163 -0.0090
  895TIP3    H126880   5.940   4.919   8.219  0.6448  1.0104  1.0221
  895TIP3    H226881   5.882   5.036   8.297  0.4509 -0.2007  2.7514
  896TIP3   OH226882   6.357   0.297   8.687  0.2728  0.8722  0.0301
  896TIP3    H126883   6.404   0.378   8.705  1.6239  0.4186 -1.2339
  896TIP3    H226884   6.300   0.319   8.614  0.7746  0.6574 -0.4342
  897TIP3   OH226885   6.203   0.273   7.612 -0.2396 -0.3095  0.5301
  897TIP3    H126886   6.258   0.245   7.686  1.7446 -0.3784 -0.9108
  897TIP3    H226887   6.115   0.245   7.637  0.6130 -1.7461  2.1900
  898TIP3   OH226888   2.008   3.568   7.307 -0.8117  0.6211  0.5331
  898TIP3    H126889   1.958   3.556   7.226  0.4117 -0.4833 -0.0877
  898TIP3    H226890   2.072   3.497   7.307  0.7306  1.9400  1.3280
  899TIP3   OH226891   0.059   5.170   9.070 -0.4374 -0.2342 -0.3335
  899TIP3    H126892   0.046   5.104   9.002 -3.2954 -2.6095  2.2157
  899TIP3    H226893  -0.008   5.236   9.052 -0.3853 -0.2293 -0.5090
  900TIP3   OH226894   0.481   5.737   7.998 -0.2072 -0.1336 -0.2410
  900TIP3    H126895   0.465   5.831   7.988 -0.4745 -0.3006 -1.4833
  900TIP3    H226896   0.429   5.696   7.929  1.7898 -1.0426 -1.2737
  901TIP3   OH226897   2.700   3.283   9.065 -0.6503 -0.0439  0.2278
  901TIP3    H126898   2.649   3.320   9.136 -2.2067 -1.5244 -0.0609
  901TIP3    H226899   2.658   3.316   8.985 -1.5459 -1.7054 -0.0193
  902TIP3   OH226900   0.699   2.989   6.555 -0.0826  0.3493 -0.3841
  902TIP3    H126901   0.642   2.935   6.500 -0.0096  0.5844 -0.6927
  902TIP3    H226902   0.776   2.934   6.570 -1.0204 -0.5954  1.3278
  903TIP3   OH226903   1.153   5.123   7.735  0.2202 -0.1532  0.1537
  903TIP3    H126904   1.245   5.149   7.735  0.4233 -0.7503 -1.6479
  903TIP3    H226905   1.147   5.052   7.671 -1.5621  0.1545 -0.0945
  904TIP3   OH226906   3.404   3.812   8.997 -0.1326 -0.5772  0.7961
  904TIP3    H126907   3.468   3.742   8.983  0.8412  0.5877 -1.0603
  904TIP3    H226908   3.423   3.845   9.084  1.3833 -0.6899  0.5324
  905TIP3   OH226909   0.726   5.977   9.215  0.3232 -0.0269 -0.3577
  905TIP3    H126910   0.691   5.890   9.229  0.4442  0.0499  0.4553
  905TIP3    H226911   0.782   5.968   9.138  1.2188 -0.9261  0.3690
  906TIP3   OH226912   4.602   6.796   8.709 -0.4517  0.0443  0.0188
  906TIP3    H126913   4.682   6.745   8.720  0.7598  1.8836  0.0067
  906TIP3    H226914   4.600   6.818   8.616 -0.6564  0.5330  0.1348
  907TIP3   OH226915   7.155   6.883   7.077  0.7026  0.2855  0.4266
  907TIP3    H126916   7.122   6.799   7.045  0.6868  0.3390  0.3025
  907TIP3    H226917   7.077   6.939   7.083  1.1281  1.5589 -3.2398
  908TIP3   OH226918   1.044   0.156   6.794 -0.5810 -0.1973 -1.0058
  908TIP3    H126919   1.021   0.172   6.885  0.2360 -0.2782 -0.7714
  908TIP3    H226920   1.006   0.070   6.774  2.9030 -2.3556  0.6773
  909TIP3   OH226921   4.646   1.237   7.958  0.2152 -0.2609 -0.0819
  909TIP3    H126922   4.672   1.170   7.895  1.1349  0.2588 -0.2805
  909TIP3    H226923   4.612   1.188   8.033 -1.4479 -0.8804 -1.1875
  910TIP3   OH226924   0.791   0.266   6.916  0.5114 -0.0777  0.5082
  910TIP3    H126925   0.711   0.214   6.922 -1.2739  2.2625 -0.7889
  910TIP3    H226926   0.761   0.350   6.881  3.4755  1.1591  0.6727
  911TIP3   OH226927   2.836   3.398   7.739  0.7539  0.6307 -0.0557
  911TIP3    H126928   2.852   3.469   7.676 -0.7114  1.0089 -0.0178
  911TIP3    H226929   2.809   3.443   7.819 -0.5097  0.0296 -0.1337
  912TIP3   OH226930   1.049   4.824   9.924  0.4053 -0.2202  0.2820
  912TIP3    H126931   0.982   4.778   9.874  1.5991  0.1794 -1.8198
  912TIP3    H226932   1.121   4.761   9.931  1.3573  0.6386 -1.0779
  913TIP3   OH226933   6.959   0.187   9.564  0.7770  0.4925  0.1397
  913TIP3    H126934   7.000   0.110   9.526  0.3715 -0.1382  0.9430
  913TIP3    H226935   7.024   0.257   9.554  0.4152  0.5471 -2.3011
  914TIP3   OH226936   1.930   6.456   8.273  0.0655 -0.0073 -0.3322
  914TIP3    H126937   1.852   6.399   8.270 -1.9433  2.4272  1.3419
  914TIP3    H226938   1.979   6.424   8.349 -0.4634 -0.2016 -0.0663
  915TIP3   OH226939   5.243   2.892   7.260 -0.1213 -0.3761 -0.0807
  915TIP3    H126940   5.237   2.870   7.167  1.4930  0.1445 -0.3410
  915TIP3    H226941   5.321   2.846   7.290  0.3344  0.7985  0.5908
  916TIP3   OH226942   5.289   0.235   8.595  0.2284 -0.0525 -0.4544
  916TIP3    H126943   5.202   0.217   8.558  0.7014  2.4734 -3.1166
  916TIP3    H226944   5.271   0.270   8.682 -1.3037 -0.8214 -0.4227
  917TIP3   OH226945   0.377   4.504   7.528  0.1311  0.7403  0.2492
  917TIP3    H126946   0.296   4.546   7.556 -0.6774 -0.5248 -0.1003
  917TIP3    H226947   0.440   4.525   7.598 -0.3883  2.0162  0.3554
  918TIP3   OH226948   1.179   3.010   8.801 -0.0476 -0.3291 -0.1118
  918TIP3    H126949   1.258   3.038   8.755 -0.9003 -1.5813 -2.5325
  918TIP3    H226950   1.156   2.927   8.759 -2.5259 -0.1023  0.6547
  919TIP3   OH226951   6.992   1.000   6.696  0.0467  0.0171 -0.4311
  919TIP3    H126952   6.950   1.084   6.682  1.5705  0.7589 -0.7387
  919TIP3    H226953   7.083   1.021   6.718  0.7025 -1.5532 -1.4118
  920TIP3   OH226954   6.723   1.099   8.494  0.2759  0.1242  0.2562
  920TIP3    H126955   6.763   1.149   8.422  1.0837  1.3285  1.4976
  920TIP3    H226956   6.778   1.022   8.503  0.3254  0.0987 -0.2502
  921TIP3   OH226957   4.436   5.555   8.203 -0.0162 -0.1068  0.7661
  921TIP3    H126958   4.442   5.467   8.241  0.1591  0.9792  3.5069
  921TIP3    H226959   4.366   5.597   8.253 -0.8631  0.9963 -1.2542
  922TIP3   OH226960   5.708   6.850   7.817 -0.0975  0.1249 -0.0082
  922TIP3    H126961   5.750   6.928   7.781 -0.1236  0.2928  0.3239
  922TIP3    H226962   5.780   6.791   7.838  0.0083  0.5740  0.9415
  923TIP3   OH226963   4.778   4.213   8.155  0.0883 -0.1836  0.0821
  923TIP3    H126964   4.749   4.253   8.237 -1.1899 -0.2655 -0.3007
  923TIP3    H226965   4.743   4.124   8.159 -0.7540  0.0799 -0.9153
  924TIP3   OH226966   1.637   5.363   8.862 -0.0144  0.2899  0.0641
  924TIP3    H126967   1.561   5.345   8.806  0.3933  3.3139 -1.7256
  924TIP3    H226968   1.709   5.376   8.801  0.6543  2.8938  1.2439
  925TIP3   OH226969   1.912   4.837   9.233 -0.1122 -0.3521  0.1884
  925TIP3    H126970   1.884   4.761   9.283 -0.5017  0.7849  1.7900
  925TIP3    H226971   1.849   4.905   9.255  1.0670  0.8625 -0.0213
  926TIP3   OH226972   0.277   5.812   8.397  0.4743 -0.3101 -0.0681
  926TIP3    H126973   0.345   5.774   8.453 -0.2612 -1.9870 -0.2400
  926TIP3    H226974   0.196   5.798   8.446  0.1431  0.9824 -0.2043
  927TIP3   OH226975   4.329   3.782   8.410 -0.2934  0.7238 -0.1521
  927TIP3    H126976   4.306   3.819   8.495 -1.6309 -0.0595 -0.1477
  927TIP3    H226977   4.362   3.694   8.430  0.7604  1.0670 -0.3378
  928TIP3   OH226978   6.383   3.664   8.819 -0.0784  0.3685  0.5280
  928TIP3    H126979   6.440   3.739   8.836  0.5034  0.2231 -0.6586
  928TIP3    H226980   6.297   3.702   8.804  0.3393  0.8706 -0.6852
  929TIP3   OH226981   1.793   5.738   8.742  0.5860 -0.5802  0.0398
  929TIP3    H126982   1.884   5.754   8.718  0.6398 -3.1692 -1.8593
  929TIP3    H226983   1.798   5.678   8.816  0.4300 -0.7537 -0.0899
  930TIP3   OH226984   5.293   5.887   9.301 -0.1876  0.2525  0.1571
  930TIP3    H126985   5.326   5.811   9.252  0.5864  0.3472  0.5251
  930TIP3    H226986   5.351   5.894   9.377 -1.6301 -0.1659  1.3482
  931TIP3   OH226987   0.399   1.529   8.307  0.6723 -0.0103 -0.1013
  931TIP3    H126988   0.355   1.556   8.227 -1.0574 -0.0242  0.8013
  931TIP3    H226989   0.400   1.608   8.362  0.6811 -0.3179  0.3516
  932TIP3   OH226990   4.635   0.729   8.936 -0.2442  0.1653  0.2594
  932TIP3    H126991   4.647   0.645   8.891 -0.6751  0.1060  0.2505
  932TIP3    H226992   4.571   0.711   9.005 -1.7527  0.8760 -0.8868
  933TIP3   OH226993   3.057   5.615   7.504 -0.8159  0.3415 -0.2419
  933TIP3    H126994   2.963   5.626   7.485 -0.4390  1.3603 -1.6805
  933TIP3    H226995   3.098   5.608   7.418  0.1799 -2.8343  0.3836
  934TIP3   OH226996   2.521   5.387   8.378 -0.0908 -0.2246 -0.6653
  934TIP3    H126997   2.533   5.418   8.468 -1.5469 -0.3995 -0.3920
  934TIP3    H226998   2.562   5.300   8.377 -0.0489 -0.2117 -0.1841
  935TIP3   OH226999   7.556   3.344   9.380  0.0528 -0.0426 -0.3170
  935TIP3    H127000   7.571   3.433   9.349  1.5416  0.2198  0.9987
  935TIP3    H227001   7.641   3.301   9.372 -0.4184 -1.0612 -0.0673
  936TIP3   OH227002   2.477   4.775   9.393 -0.0631  0.2063 -0.2920
  936TIP3    H127003   2.415   4.848   9.403 -2.9094 -2.1844  1.3202
  936TIP3    H227004   2.538   4.785   9.466 -0.3416  1.0586 -0.1649
  937TIP3   OH227005   2.424   4.343   8.809  0.1247 -0.3441  0.4043
  937TIP3    H127006   2.505   4.354   8.859 -0.5410 -1.1719  1.7328
  937TIP3    H227007   2.362   4.304   8.872 -1.1570 -0.1842 -0.7101
  938TIP3   OH227008   4.229   7.230   9.583 -0.0425 -0.1937  0.0821
  938TIP3    H127009   4.234   7.323   9.560 -2.2119 -0.0672 -0.0578
  938TIP3    H227010   4.141   7.204   9.556  0.3703 -2.1825  0.5651
  939TIP3   OH227011   3.874   7.052   7.109  0.3097 -0.0847  0.0418
  939TIP3    H127012   3.912   7.104   7.180  0.4778 -0.4046  0.1889
  939TIP3    H227013   3.794   7.014   7.146  0.3775 -0.2206  0.0519
  940TIP3   OH227014   3.526   4.575   8.724  0.0342  1.0401 -0.1401
  940TIP3    H127015   3.595   4.604   8.784 -0.4917  1.0562  0.4754
  940TIP3    H227016   3.544   4.619   8.642  1.2288  0.4100 -0.2367
  941TIP3   OH227017   0.443   2.162   6.481 -0.0033 -0.2734  0.2578
  941TIP3    H127018   0.430   2.068   6.468 -0.8343 -0.1888  0.4261
  941TIP3    H227019   0.495   2.168   6.561  1.0595 -0.6241 -0.3881
  942TIP3   OH227020   0.946   0.182   9.663 -0.2449 -0.2429  0.4131
  942TIP3    H127021   0.948   0.087   9.667  0.2835 -0.3246 -1.1876
  942TIP3    H227022   0.870   0.202   9.608  0.0975  0.2200  0.0991
  943TIP3   OH227023   5.916   0.239   7.662  0.0991 -0.0407 -0.2723
  943TIP3    H127024   5.866   0.158   7.655 -1.0185  0.6753 -1.0131
  943TIP3    H227025   5.901   0.269   7.751  1.4255 -1.1870  0.3677
  944TIP3   OH227026   2.288   3.614   7.509 -0.3432 -0.0291  0.7288
  944TIP3    H127027   2.274   3.520   7.511 -1.6488  0.1445  0.7739
  944TIP3    H227028   2.373   3.627   7.550  0.7243 -1.3245 -0.9542
  945TIP3   OH227029   6.032   4.223   8.270  0.0336  0.1259 -0.0092
  945TIP3    H127030   6.018   4.248   8.361  1.1835  1.9271 -0.2824
  945TIP3    H227031   5.965   4.272   8.222 -0.2718 -0.4668 -0.2085
  946TIP3   OH227032   4.106   0.077   9.151  0.0614  0.5602  0.6383
  946TIP3    H127033   4.092   0.029   9.232  1.4705 -1.3406 -0.1881
  946TIP3    H227034   4.153   0.016   9.094 -1.4985  1.5588 -1.8918
  947TIP3   OH227035   7.470   1.720   7.678  0.0006  0.0738 -0.3111
  947TIP3    H127036   7.519   1.638   7.675 -0.1002 -0.1642  2.3963
  947TIP3    H227037   7.408   1.713   7.605  0.9014 -1.6243 -0.9823
  948TIP3   OH227038   1.422   1.489   8.741  0.2410  0.5485 -0.0232
  948TIP3    H127039   1.441   1.416   8.682  1.8560  0.2093  0.8639
  948TIP3    H227040   1.328   1.485   8.755  0.1380 -0.6369 -0.9312
  949TIP3   OH227041   6.544   4.675   8.853  0.7316  0.0058 -0.2232
  949TIP3    H127042   6.611   4.726   8.899 -0.3034  0.4840  0.8054
  949TIP3    H227043   6.493   4.633   8.922  0.0226 -0.4249 -0.9807
  950TIP3   OH227044   0.872   6.170   8.506 -0.5412  0.0951  0.1702
  950TIP3    H127045   0.915   6.250   8.537  0.5007 -0.3881  0.0062
  950TIP3    H227046   0.801   6.155   8.568  0.5033  0.0424  1.3774
  951TIP3   OH227047   6.297   4.087   8.486  0.0161  0.4695  0.6452
  951TIP3    H127048   6.207   4.113   8.504 -0.2020 -0.6702  1.3635
  951TIP3    H227049   6.339   4.087   8.572  0.7366  1.0947  0.3026
  952TIP3   OH227050   2.249   5.050   7.930 -0.6240  0.0384 -0.2873
  952TIP3    H127051   2.320   5.048   7.866 -1.6688  0.2281 -1.4923
  952TIP3    H227052   2.188   5.114   7.894 -0.5763  1.2230  1.6406
  953TIP3   OH227053   0.739   1.748   7.633 -0.1111  0.3721  0.2505
  953TIP3    H127054   0.745   1.821   7.572  1.9755 -0.6570 -0.8939
  953TIP3    H227055   0.645   1.733   7.643 -0.5497  1.5137 -1.5792
  954TIP3   OH227056   3.992   4.241   8.315 -0.0961 -0.1689  0.0026
  954TIP3    H127057   4.007   4.319   8.262 -0.8811  0.4029  0.5885
  954TIP3    H227058   3.909   4.259   8.360 -0.8990 -1.8379 -0.7403
  955TIP3   OH227059   0.355   2.944   9.410  0.1116  0.7801  0.0486
  955TIP3    H127060   0.300   2.936   9.332 -0.1270 -1.4442  0.3766
  955TIP3    H227061   0.412   2.868   9.407 -0.3258  0.2948  2.3543
  956TIP3   OH227062   7.395   5.469   7.477 -0.0962 -0.1954 -0.1429
  956TIP3    H127063   7.483   5.434   7.462  0.4386  0.9221  0.2690
  956TIP3    H227064   7.389   5.546   7.420 -0.7317 -0.1482 -0.0223
  957TIP3   OH227065   6.992   2.404   7.843 -0.0539 -0.9735  0.7077
  957TIP3    H127066   7.045   2.373   7.916  1.5740 -0.0287 -0.0213
  957TIP3    H227067   7.047   2.392   7.766 -1.7341 -1.9677 -0.4074
  958TIP3   OH227068   6.277   3.239   7.437 -0.5255 -0.0334 -0.0191
  958TIP3    H127069   6.366   3.212   7.457 -1.1296 -0.5214  2.3623
  958TIP3    H227070   6.247   3.178   7.370  0.8642  0.1144 -0.8250
  959TIP3   OH227071   5.445   2.266   7.802  0.0669 -0.0360 -0.8592
  959TIP3    H127072   5.415   2.290   7.890  0.2088  1.4166 -1.1862
  959TIP3    H227073   5.458   2.171   7.806 -0.2330 -0.0330  0.5915
  960TIP3   OH227074   0.432   7.145   8.353  0.3499 -0.0377  0.2946
  960TIP3    H127075   0.501   7.122   8.290 -0.8303 -1.2938 -0.6172
  960TIP3    H227076   0.389   7.062   8.372 -2.2095  0.9586 -0.7692
  961TIP3   OH227077   5.793   5.611   7.073  0.7578 -0.2314 -0.5062
  961TIP3    H127078   5.748   5.587   7.153 -0.5287  1.7443 -0.5605
  961TIP3    H227079   5.749   5.559   7.004  1.4038 -1.4095 -0.0547
  962TIP3   OH227080   3.700   3.200   8.130  0.2249  0.7029  0.1137
  962TIP3    H127081   3.706   3.264   8.201 -0.6875 -0.1889  1.0190
  962TIP3    H227082   3.789   3.166   8.120 -0.1442 -1.3483  2.9169
  963TIP3   OH227083   3.126   1.060   7.312  0.1098  0.0873 -0.0946
  963TIP3    H127084   3.190   1.019   7.253 -0.8854  0.7896 -1.7512
  963TIP3    H227085   3.042   1.025   7.283 -0.4630  0.8940  0.5492
  964TIP3   OH227086   3.086   7.470   8.606  0.3684 -0.3270 -0.1881
  964TIP3    H127087   3.001   7.513   8.616  1.2257  1.2720  0.5516
  964TIP3    H227088   3.101   7.426   8.689 -0.4231 -1.9687 -0.8791
  965TIP3   OH227089   3.186   3.912   7.730  0.1827 -0.2972  0.3286
  965TIP3    H127090   3.179   4.007   7.722  0.3739 -0.2304  0.8645
  965TIP3    H227091   3.276   3.892   7.703  0.8427 -0.0670  2.1768
  966TIP3   OH227092   0.990   1.888   9.031  0.4470 -0.0557  0.0934
  966TIP3    H127093   0.976   1.796   9.052  2.1242 -0.2948  0.2739
  966TIP3    H227094   0.990   1.892   8.935 -1.4071  0.0908  0.0539
  967TIP3   OH227095   2.597   4.697   7.073 -0.6665  0.1186  0.2932
  967TIP3    H127096   2.565   4.607   7.070  1.3640 -0.6418 -0.0345
  967TIP3    H227097   2.599   4.719   7.166 -3.3689  0.7232  0.2905
  968TIP3   OH227098   4.890   3.473   7.978  0.0451  0.3721 -0.5473
  968TIP3    H127099   4.899   3.526   8.058 -1.9963  2.0428 -1.3379
  968TIP3    H227100   4.876   3.384   8.009 -2.3853  1.2359  1.0779
  969TIP3   OH227101   4.994   0.724   9.311  0.2505  0.0848 -0.3683
  969TIP3    H127102   5.032   0.732   9.398 -0.3766  1.7757 -0.2240
  969TIP3    H227103   5.058   0.766   9.253 -0.4868  1.2084 -0.3801
  970TIP3   OH227104   3.161   0.161   7.128  0.0780 -0.6901 -0.1775
  970TIP3    H127105   3.075   0.135   7.161  0.5186 -1.3964  0.4680
  970TIP3    H227106   3.150   0.252   7.100 -0.2548  0.0765  2.2284
  971TIP3   OH227107   4.219   2.170   8.794 -0.3241 -0.1669 -0.0236
  971TIP3    H127108   4.258   2.209   8.716 -0.2009 -0.1573  0.0438
  971TIP3    H227109   4.125   2.174   8.777 -0.3456  0.6833  0.2276
  972TIP3   OH227110   1.265   0.714   7.060 -0.1002 -0.1117 -1.0322
  972TIP3    H127111   1.220   0.630   7.057 -0.9107  0.3353 -1.7384
  972TIP3    H227112   1.317   0.711   7.141 -0.3083 -1.1832 -0.9296
  973TIP3   OH227113   0.189   3.298   7.422  0.1258 -0.2787  0.5980
  973TIP3    H127114   0.179   3.355   7.498 -0.5597 -0.3985  0.6021
  973TIP3    H227115   0.261   3.337   7.373 -0.7730  0.9967  0.2466
  974TIP3   OH227116   3.495   6.719   7.316  0.4480 -0.0241  0.2945
  974TIP3    H127117   3.552   6.679   7.250  2.4819 -0.3817  2.1450
  974TIP3    H227118   3.466   6.801   7.276  2.3048  0.1808 -0.7696
  975TIP3   OH227119   2.257   1.258   8.971 -0.1205 -0.3371 -0.1378
  975TIP3    H127120   2.268   1.242   8.877 -0.2483 -1.9243  0.0759
  975TIP3    H227121   2.163   1.247   8.985 -0.3973  1.7093 -0.0873
  976TIP3   OH227122   3.538   6.773   8.055  0.1754 -0.2846 -0.0032
  976TIP3    H127123   3.517   6.826   7.978  0.4826 -0.8930 -0.5107
  976TIP3    H227124   3.501   6.687   8.035 -2.3882  0.2741  1.7861
  977TIP3   OH227125   3.535   4.357   7.156 -0.6388 -0.1374  0.1616
  977TIP3    H127126   3.579   4.272   7.163 -0.3845 -0.0239 -0.0512
  977TIP3    H227127   3.449   4.336   7.119  0.5514  0.0006 -2.9842
  978TIP3   OH227128   2.310   3.329   9.866  0.0326  0.2674 -0.4545
  978TIP3    H127129   2.219   3.310   9.890  0.4247  0.6013  1.4192
  978TIP3    H227130   2.331   3.265   9.798 -1.4006 -0.2024 -0.4821
  979TIP3   OH227131   1.578   5.101   8.925 -0.1151 -0.1265 -0.2718
  979TIP3    H127132   1.501   5.133   8.971  0.2588 -1.2044  1.1963
  979TIP3    H227133   1.633   5.179   8.914 -0.4071  0.2420  0.7557
  980TIP3   OH227134   7.217   5.923   8.289 -0.1425 -0.1160  0.2756
  980TIP3    H127135   7.125   5.940   8.268  0.0094 -0.0900 -0.4031
  980TIP3    H227136   7.250   6.007   8.320 -0.6465 -0.4149  1.7157
  981TIP3   OH227137   5.969   1.589   6.574 -0.0832  0.5269 -0.2242
  981TIP3    H127138   5.949   1.518   6.513  1.6033 -0.1003 -0.0856
  981TIP3    H227139   5.896   1.589   6.635 -0.0336 -1.2250 -0.1103
  982TIP3   OH227140   5.359   3.403   7.054  0.0892 -0.5322 -0.1763
  982TIP3    H127141   5.313   3.343   7.114  1.3532  0.4486  1.9053
  982TIP3    H227142   5.289   3.451   7.010 -0.9272 -0.8510  1.0057
  983TIP3   OH227143   3.309   5.283   8.206 -0.3515  0.0616 -0.1899
  983TIP3    H127144   3.293   5.377   8.209  0.6101  0.2138  1.9770
  983TIP3    H227145   3.221   5.244   8.206 -0.7792  0.9524  1.0062
  984TIP3   OH227146   2.017   1.135   6.586  0.0631  0.2379  0.4376
  984TIP3    H127147   2.026   1.228   6.564 -0.4269 -0.2790 -2.4188
  984TIP3    H227148   1.923   1.119   6.581  0.0739 -0.2853  1.6689
  985TIP3   OH227149   4.042   3.858   8.757 -0.1478  0.2387  0.1127
  985TIP3    H127150   3.990   3.799   8.812  1.3027 -1.5253 -0.2842
  985TIP3    H227151   4.110   3.801   8.720  2.4849  2.4932  1.1329
  986TIP3   OH227152   1.401   5.247   7.669  0.1491 -0.4253  0.7378
  986TIP3    H127153   1.441   5.320   7.623 -0.9054 -0.0752  0.3435
  986TIP3    H227154   1.473   5.186   7.684  1.2841  1.1425  2.0497
  987TIP3   OH227155   5.567   4.541   8.850 -0.0762 -0.4549 -0.1729
  987TIP3    H127156   5.591   4.448   8.859 -1.7243 -1.1070 -1.9363
  987TIP3    H227157   5.516   4.545   8.769 -1.8132  1.6332  0.9196
  988TIP3   OH227158   0.916   5.566   9.376  0.0015 -0.0927 -0.2172
  988TIP3    H127159   0.963   5.511   9.313  0.8150 -2.4063  2.1839
  988TIP3    H227160   0.985   5.597   9.435 -0.8730  0.9588  0.2721
  989TIP3   OH227161   4.728   7.064   8.387 -0.0026 -0.1098  0.4576
  989TIP3    H127162   4.670   6.990   8.373 -0.3258  0.2104  0.1005
  989TIP3    H227163   4.701   7.099   8.472 -1.2683  0.8669 -0.3068
  990TIP3   OH227164   5.024   4.789   7.580  0.1211  0.2291 -0.2719
  990TIP3    H127165   4.982   4.710   7.547 -0.6019  0.0630  0.9818
  990TIP3    H227166   5.086   4.814   7.511  1.5226 -2.3058 -0.0702
  991TIP3   OH227167   5.011   2.107   9.169  0.2847  0.1914 -0.5042
  991TIP3    H127168   5.005   2.013   9.150  1.0850 -0.0624  0.4349
  991TIP3    H227169   5.053   2.144   9.092  0.5476 -0.3236 -0.6144
  992TIP3   OH227170   0.610   5.518   8.119 -0.3364 -0.2700 -0.3379
  992TIP3    H127171   0.696   5.558   8.105 -0.0003 -1.2170 -1.0731
  992TIP3    H227172   0.552   5.564   8.058  0.2332 -1.4624 -1.8381
  993TIP3   OH227173   3.636   3.444   9.029  0.9086  0.4271  0.7371
  993TIP3    H127174   3.639   3.390   9.109 -0.8277  0.4322  0.8394
  993TIP3    H227175   3.705   3.407   8.974 -0.0464 -1.8024  0.8990
  994TIP3   OH227176   0.382   7.397   9.039 -0.0870 -0.2806  0.2884
  994TIP3    H127177   0.373   7.405   9.134 -0.1810 -0.1489  0.2687
  994TIP3    H227178   0.476   7.388   9.024 -0.2119 -3.0416  0.6144
  995TIP3   OH227179   5.054   6.363   6.757  0.4698  0.1943 -0.4583
  995TIP3    H127180   5.102   6.293   6.803  1.6727 -0.1557 -2.1589
  995TIP3    H227181   4.962   6.337   6.762  0.7877 -0.9190 -0.0812
  996TIP3   OH227182   3.114   6.967   8.602 -0.3422  0.0588  0.1122
  996TIP3    H127183   3.102   6.962   8.507  0.0518 -1.9851  0.1073
  996TIP3    H227184   3.032   7.002   8.636  0.1171  2.4360 -1.0742
  997TIP3   OH227185   2.281   2.894   8.397  0.5103  0.0345 -0.1403
  997TIP3    H127186   2.291   2.951   8.320 -1.9526 -1.0699 -1.3967
  997TIP3    H227187   2.358   2.837   8.394  2.3065  2.2405  0.3492
  998TIP3   OH227188   3.209   1.874   9.517 -0.1131 -0.2736 -0.1447
  998TIP3    H127189   3.288   1.881   9.571 -0.3533 -1.3494  0.3608
  998TIP3    H227190   3.216   1.789   9.475 -1.0208 -0.3882 -0.0791
  999TIP3   OH227191   7.145   0.365   9.523 -0.1196  0.1760 -0.1366
  999TIP3    H127192   7.107   0.389   9.439  0.1554  0.4033 -0.1959
  999TIP3    H227193   7.237   0.392   9.517 -0.1732  0.4774  0.3502
 1000TIP3   OH227194   7.231   5.463   6.793 -0.3653  0.3408  0.2875
 1000TIP3    H127195   7.175   5.512   6.733 -0.7044 -1.3486 -0.8496
 1000TIP3    H227196   7.270   5.395   6.738 -0.4530 -1.0785  1.9118
 1001TIP3   OH227197   6.526   6.848   8.802  0.1153 -0.1047  0.2761
 1001TIP3    H127198   6.593   6.877   8.740  0.0180  0.1489  0.2876
 1001TIP3    H227199   6.549   6.891   8.884  1.0810 -1.5634  0.8133
 1002TIP3   OH227200   0.198   4.605   7.957  0.1461 -0.7037  0.0263
 1002TIP3    H127201   0.231   4.523   7.993  1.6277  0.0721  0.4984
 1002TIP3    H227202   0.104   4.590   7.947 -0.0118 -1.6545  2.3183
 1003TIP3   OH227203   4.069   0.425   9.128  0.4232  0.0070 -0.1900
 1003TIP3    H127204   3.997   0.369   9.099  0.4645 -0.1085 -0.0713
 1003TIP3    H227205   4.148   0.378   9.101  0.4502  0.9443 -1.8455
 1004TIP3   OH227206   3.844   4.686   8.273 -0.4195  0.0071  0.6950
 1004TIP3    H127207   3.789   4.612   8.297  0.4614 -0.6532  0.7614
 1004TIP3    H227208   3.829   4.751   8.342 -0.1642 -0.6703  1.4048
 1005TIP3   OH227209   4.771   7.079   7.419  0.3554  0.1638  0.1628
 1005TIP3    H127210   4.807   7.000   7.460  0.7513 -0.1968 -0.8364
 1005TIP3    H227211   4.817   7.085   7.335 -0.7920  0.5799 -0.4627
 1006TIP3   OH227212   1.136   6.087   9.488  0.1806  0.2449 -0.0482
 1006TIP3    H127213   1.087   6.018   9.445 -2.0874  1.9409 -0.3591
 1006TIP3    H227214   1.170   6.046   9.568 -0.9384 -1.2683 -0.2997
 1007TIP3   OH227215   4.031   5.137   8.521  0.6443 -0.3745  0.2437
 1007TIP3    H127216   4.080   5.179   8.592  0.3515 -1.5991  1.1898
 1007TIP3    H227217   3.940   5.161   8.537  0.6987  0.3065 -0.4078
 1008TIP3   OH227218   3.667   4.869   7.582  0.2932 -0.3441 -0.4102
 1008TIP3    H127219   3.699   4.914   7.660 -0.5754 -0.9268  0.2971
 1008TIP3    H227220   3.622   4.938   7.532 -1.0239 -0.3688  0.6593
 1009TIP3   OH227221   0.840   6.221   9.262  0.3670 -0.0834  0.0400
 1009TIP3    H127222   0.845   6.238   9.168  1.2847  0.2090  0.1318
 1009TIP3    H227223   0.810   6.130   9.268  0.5255 -0.1768 -0.5353
 1010TIP3   OH227224   4.438   1.987   8.817  0.0808  0.1794  0.0501
 1010TIP3    H127225   4.406   1.898   8.831  1.7470 -0.2862  1.3064
 1010TIP3    H227226   4.362   2.037   8.787 -0.8106 -1.7237 -1.0061
 1011TIP3   OH227227   1.108   5.446   8.893  0.4424  0.1318 -0.0351
 1011TIP3    H127228   1.174   5.511   8.867  0.0678  0.0541 -1.2238
 1011TIP3    H227229   1.031   5.468   8.841  0.3255 -1.3063 -0.4999
 1012TIP3   OH227230   2.620   7.351   7.552  0.0973  0.1508  0.2927
 1012TIP3    H127231   2.533   7.369   7.589  0.3601 -0.6760  1.3814
 1012TIP3    H227232   2.607   7.355   7.458 -1.3310 -0.8402  0.4154
 1013TIP3   OH227233   1.544   6.010   8.340 -0.0186 -0.2787  0.3183
 1013TIP3    H127234   1.532   6.066   8.417 -1.4002 -0.5381  0.3041
 1013TIP3    H227235   1.617   5.953   8.364  0.3316  0.4183  0.9743
 1014TIP3   OH227236   5.177   6.897   8.568 -0.0311 -0.2407 -0.2502
 1014TIP3    H127237   5.115   6.969   8.564  0.5100  0.2119 -0.5826
 1014TIP3    H227238   5.123   6.818   8.555 -0.7982 -0.0136  1.2625
 1015TIP3   OH227239   4.866   1.644   8.879 -0.3396 -0.0459 -0.3503
 1015TIP3    H127240   4.886   1.733   8.908 -3.7418  0.7213  0.0779
 1015TIP3    H227241   4.880   1.646   8.785 -0.7742  1.1000 -0.4137
 1016TIP3   OH227242   2.949   7.409   9.112  0.1529  0.5646  0.5428
 1016TIP3    H127243   2.915   7.355   9.184  1.1736 -0.0324  0.6027
 1016TIP3    H227244   2.973   7.345   9.044 -0.1041  1.0688 -0.0324
 1017TIP3   OH227245   0.049   2.971   7.603 -0.4706 -0.2589  0.2512
 1017TIP3    H127246   0.070   2.948   7.693 -1.3234  0.6205  0.7024
 1017TIP3    H227247   0.000   3.053   7.610  1.7576  1.3147 -1.1913
 1018TIP3   OH227248   2.571   0.497   8.606  0.7174  0.0732 -0.3154
 1018TIP3    H127249   2.534   0.438   8.541  1.1208  0.1964 -0.6586
 1018TIP3    H227250   2.604   0.572   8.556 -0.9336  1.2123  0.2270
 1019TIP3   OH227251   3.604   3.778   9.605 -0.2955 -0.2444 -0.0096
 1019TIP3    H127252   3.563   3.704   9.562  0.1209  0.2577 -1.3191
 1019TIP3    H227253   3.546   3.852   9.588  0.3974  0.1749 -0.6472
 1020TIP3   OH227254   1.345   2.131   7.070  0.5955 -1.1327  0.0759
 1020TIP3    H127255   1.347   2.169   6.982  0.5045 -1.7406 -0.1920
 1020TIP3    H227256   1.257   2.093   7.077  0.4389 -0.6870  0.6023
 1021TIP3   OH227257   4.866   0.494   7.240  0.1939 -0.4425 -0.4240
 1021TIP3    H127258   4.906   0.437   7.175  0.0487  0.1157 -1.0133
 1021TIP3    H227259   4.826   0.565   7.189  0.6766  0.3772  0.2953
 1022TIP3   OH227260   5.999   1.330   7.069  0.7214  0.6316 -0.1916
 1022TIP3    H127261   5.952   1.408   7.039 -0.8777 -0.0610  0.3547
 1022TIP3    H227262   6.041   1.295   6.991 -1.3191  0.2217 -1.1958
 1023TIP3   OH227263   3.806   2.028   7.783  0.1710  0.1052  0.5943
 1023TIP3    H127264   3.800   1.934   7.796  0.5891 -0.5237 -2.8719
 1023TIP3    H227265   3.734   2.049   7.723  1.1660  1.6175 -0.1380
 1024TIP3   OH227266   1.656   6.406   9.064  0.0867  0.4960  0.2038
 1024TIP3    H127267   1.588   6.457   9.107 -0.3107  1.9758 -2.0166
 1024TIP3    H227268   1.734   6.462   9.069  0.2138  0.3726 -0.3588
 1025TIP3   OH227269   5.706   6.904   8.759 -0.0849 -0.2832 -0.0149
 1025TIP3    H127270   5.749   6.863   8.684  0.7827 -0.5664  0.6246
 1025TIP3    H227271   5.613   6.903   8.737  0.1318 -0.6041 -0.9642
 1026TIP3   OH227272   4.508   4.359   7.696  0.3767 -0.0524 -0.6808
 1026TIP3    H127273   4.432   4.321   7.652 -1.7307  3.4753 -0.4617
 1026TIP3    H227274   4.550   4.412   7.628  1.6156 -0.5184 -0.3034
 1027TIP3   OH227275   6.500   3.071   8.499 -0.4402 -0.0133 -0.0261
 1027TIP3    H127276   6.449   3.132   8.553  0.1137 -0.5842  1.1922
 1027TIP3    H227277   6.437   3.003   8.475 -0.5043 -0.2044  0.6486
 1028TIP3   OH227278   2.088   6.796   9.708  0.3031 -0.1467  0.5520
 1028TIP3    H127279   2.130   6.787   9.793  0.1928  1.8860  0.8725
 1028TIP3    H227280   2.150   6.847   9.656 -0.3003 -0.0532 -0.0864
 1029TIP3   OH227281   0.620   1.124   6.593 -0.1178 -0.4103  0.5579
 1029TIP3    H127282   0.532   1.159   6.578 -0.8578 -1.5101  2.0358
 1029TIP3    H227283   0.679   1.189   6.554 -1.5816  0.1445 -0.8401
 1030TIP3   OH227284   1.113   3.602   7.965 -0.0408  0.1912 -0.4944
 1030TIP3    H127285   1.141   3.668   7.901 -0.7903 -0.2748 -1.3215
 1030TIP3    H227286   1.104   3.651   8.047 -0.5273  1.1225 -1.0846
 1031TIP3   OH227287   1.845   5.913   9.394 -0.3834 -0.1459 -0.1950
 1031TIP3    H127288   1.924   5.934   9.346 -0.8581  0.6283 -0.6607
 1031TIP3    H227289   1.808   5.998   9.419 -1.9391 -0.4113 -1.4281
 1032TIP3   OH227290   6.241   4.390   8.890  0.6904 -0.1191 -0.0350
 1032TIP3    H127291   6.228   4.465   8.949  0.4505  1.0324 -1.4959
 1032TIP3    H227292   6.153   4.354   8.878  0.7911 -0.5927  0.5815
 1033TIP3   OH227293   2.770   1.580   6.749 -0.1026  0.6219 -0.3349
 1033TIP3    H127294   2.677   1.557   6.740 -0.2249  1.1230 -0.3656
 1033TIP3    H227295   2.770   1.673   6.771  0.3636  0.4528  0.4287
 1034TIP3   OH227296   7.113   4.844   7.034  0.2257 -0.0726  0.0198
 1034TIP3    H127297   7.204   4.868   7.016  0.1616  1.2872  1.3639
 1034TIP3    H227298   7.064   4.924   7.019 -0.8230 -0.8697 -0.9692
 1035TIP3   OH227299   2.355   4.328   8.418 -0.5977  0.3648 -0.0497
 1035TIP3    H127300   2.336   4.420   8.398 -1.8877 -0.0541 -0.8769
 1035TIP3    H227301   2.299   4.279   8.359 -0.6788 -0.9673  1.0873
 1036TIP3   OH227302   0.480   3.329   9.439 -0.3362  0.2777  0.3163
 1036TIP3    H127303   0.431   3.409   9.421  2.0587  2.0389  1.0143
 1036TIP3    H227304   0.503   3.295   9.352 -0.2952  1.0928 -0.0034
 1037TIP3   OH227305   2.142   1.671   8.625  0.0407  0.1487  0.7090
 1037TIP3    H127306   2.051   1.700   8.625 -0.1934 -0.5682  0.9438
 1037TIP3    H227307   2.193   1.751   8.638 -0.4467  0.8592 -1.4127
 1038TIP3   OH227308   0.914   1.818   6.471 -0.2685  0.3994 -0.5665
 1038TIP3    H127309   0.844   1.873   6.437 -0.7662 -0.6119 -1.2178
 1038TIP3    H227310   0.870   1.740   6.505  0.4609  0.1936 -0.0515
 1039TIP3   OH227311   3.235   2.028   7.520  0.5762  0.2326  0.0923
 1039TIP3    H127312   3.143   2.041   7.498  1.1255  0.9652 -2.0768
 1039TIP3    H227313   3.238   1.942   7.562 -1.0734  0.1671  0.1508
 1040TIP3   OH227314   0.987   2.894   8.571 -0.0207 -0.1501  0.7760
 1040TIP3    H127315   0.921   2.951   8.532 -0.2911 -0.7137  0.3983
 1040TIP3    H227316   0.961   2.805   8.544  0.7638 -0.3924  0.8119
 1041TIP3   OH227317   3.059   4.194   7.374  0.1991 -0.7650  0.4631
 1041TIP3    H127318   3.069   4.245   7.455 -0.2190 -0.3349  0.2461
 1041TIP3    H227319   2.979   4.144   7.388 -1.3715  1.2860 -0.7173
 1042TIP3   OH227320   1.687   1.719   9.328 -0.5331 -0.1920 -0.1347
 1042TIP3    H127321   1.783   1.720   9.332 -0.5011  1.3627 -0.6198
 1042TIP3    H227322   1.659   1.765   9.407 -0.8640 -0.0945 -0.3058
 1043TIP3   OH227323   4.936   2.483   8.085  0.3030 -0.5655  0.3730
 1043TIP3    H127324   4.998   2.453   8.018 -1.2119 -1.7478 -0.5685
 1043TIP3    H227325   4.926   2.408   8.144  0.9427  0.1676  1.4601
 1044TIP3   OH227326   2.629   1.876   8.359 -0.3769  0.5647  0.2704
 1044TIP3    H127327   2.633   1.781   8.355  2.5320  0.6621 -0.8624
 1044TIP3    H227328   2.666   1.898   8.444  0.6156  0.7245 -0.1954
 1045TIP3   OH227329   5.209   2.790   8.783  0.0449 -0.1911 -0.0320
 1045TIP3    H127330   5.231   2.697   8.780  0.6315 -0.0601  0.0343
 1045TIP3    H227331   5.269   2.827   8.848  1.1199  0.5510 -1.3738
 1046TIP3   OH227332   4.089   3.722   7.944 -1.0931  0.3538 -0.0664
 1046TIP3    H127333   4.071   3.801   7.894 -2.7268 -0.2913 -0.5882
 1046TIP3    H227334   4.176   3.694   7.916 -0.8342  1.5197 -0.4595
 1047TIP3   OH227335   6.414   0.929   8.186 -0.0446  0.5672  0.5398
 1047TIP3    H127336   6.366   0.960   8.263  0.1078  0.8509  0.5256
 1047TIP3    H227337   6.350   0.928   8.116 -0.2575  0.0149  0.7393
 1048TIP3   OH227338   6.679   0.132   8.448 -0.3310  0.1356 -0.1497
 1048TIP3    H127339   6.756   0.080   8.471  0.6656  2.2293  1.5578
 1048TIP3    H227340   6.709   0.187   8.375 -0.9691 -0.6841 -1.0534
 1049TIP3   OH227341   0.359   3.851   9.385 -0.1078  0.1223  0.2204
 1049TIP3    H127342   0.426   3.900   9.337 -0.9533  0.5433 -0.5610
 1049TIP3    H227343   0.402   3.824   9.466  1.2628 -0.3235 -0.6180
 1050TIP3   OH227344   1.195   5.137   8.200 -0.5821  0.3402  0.2644
 1050TIP3    H127345   1.176   5.059   8.147 -3.0320  0.4014  0.9351
 1050TIP3    H227346   1.136   5.130   8.275  1.2527  1.3748  1.8877
 1051TIP3   OH227347   0.661   5.105   7.740  0.0441 -0.4097  0.5169
 1051TIP3    H127348   0.718   5.161   7.687  0.2211  0.0687  1.2117
 1051TIP3    H227349   0.587   5.085   7.682  1.0333 -1.2643 -0.4865
 1052TIP3   OH227350   2.170   3.938   8.083  0.1101  0.1515 -0.4132
 1052TIP3    H127351   2.117   3.879   8.135  0.1377  1.4891  1.2236
 1052TIP3    H227352   2.210   3.882   8.016 -0.8639 -1.4176  0.2615
 1053TIP3   OH227353   2.226   4.822   6.914 -0.0088 -0.2584 -0.1213
 1053TIP3    H127354   2.185   4.795   6.832  1.8869  0.6482 -1.4502
 1053TIP3    H227355   2.238   4.740   6.962  1.0067 -1.1785 -1.8362
 1054TIP3   OH227356   3.964   2.953   8.955  0.3594 -0.1419  0.4834
 1054TIP3    H127357   3.906   2.890   8.998 -0.5531 -0.9218 -1.7562
 1054TIP3    H227358   3.908   3.003   8.897  1.6598  0.1389 -0.5977
 1055TIP3   OH227359   0.430   4.284   9.651  0.1428 -0.0787 -0.0595
 1055TIP3    H127360   0.425   4.380   9.654  0.6107 -0.0542  0.1034
 1055TIP3    H227361   0.348   4.257   9.611  0.0899  0.4022 -0.2843
 1056TIP3   OH227362   4.168   1.647   6.803 -0.5203 -0.4817  0.0123
 1056TIP3    H127363   4.086   1.603   6.783 -0.6019 -0.4087  0.1757
 1056TIP3    H227364   4.176   1.715   6.737 -1.0157  0.0543  0.4883
 1057TIP3   OH227365   6.278   6.681   7.294  0.1570  0.1616 -0.0848
 1057TIP3    H127366   6.269   6.731   7.375  0.3250  0.0995 -0.0281
 1057TIP3    H227367   6.197   6.628   7.290 -0.3399  0.9381 -0.4982
 1058TIP3   OH227368   4.437   6.532   8.081 -0.2486  0.0237 -0.0612
 1058TIP3    H127369   4.467   6.442   8.078  1.8123  0.6585 -0.1149
 1058TIP3    H227370   4.347   6.529   8.049  0.0940 -1.8669 -0.9529
 1059TIP3   OH227371   3.507   5.054   8.133  0.2141  0.1871 -0.4565
 1059TIP3    H127372   3.513   4.965   8.098  1.5448 -0.2134  0.7112
 1059TIP3    H227373   3.596   5.076   8.159 -0.1039  1.8615 -0.6866
 1060TIP3   OH227374   5.055   0.190   8.442 -0.0027 -0.2898 -0.5090
 1060TIP3    H127375   4.978   0.244   8.457  1.0625  0.4586  3.3581
 1060TIP3    H227376   5.040   0.111   8.494  1.1448 -0.8843 -1.0401
 1061TIP3   OH227377   0.705   5.675   9.219 -0.0338 -0.7612 -0.1884
 1061TIP3    H127378   0.732   5.636   9.136  0.3754  0.0617 -0.4431
 1061TIP3    H227379   0.776   5.655   9.279  0.9514  0.9362 -0.7219
 1062TIP3   OH227380   0.459   0.976   7.187 -0.1355  0.2537  0.0546
 1062TIP3    H127381   0.534   1.034   7.201 -0.0200 -0.3351  2.2045
 1062TIP3    H227382   0.493   0.904   7.135  0.8083 -0.0099  1.0202
 1063TIP3   OH227383   1.066   1.385   7.209 -0.3744  0.0345 -0.3438
 1063TIP3    H127384   0.992   1.362   7.152 -0.9743  1.1170 -0.0275
 1063TIP3    H227385   1.077   1.309   7.265 -0.0426 -0.8913 -1.6074
 1064TIP3   OH227386   5.517   0.080   8.518 -0.1300 -0.0982 -0.4239
 1064TIP3    H127387   5.592   0.135   8.496  0.3957 -0.4571  0.4439
 1064TIP3    H227388   5.458   0.138   8.567  0.7115 -0.4416  1.0476
 1065TIP3   OH227389   0.348   6.571   7.384 -0.5497 -0.4043 -0.1364
 1065TIP3    H127390   0.259   6.535   7.381 -0.2037 -1.2209 -1.3924
 1065TIP3    H227391   0.340   6.658   7.345 -0.6133 -0.9521 -1.4010
 1066TIP3   OH227392   6.136   5.757   8.448 -0.3530 -0.0862  0.1159
 1066TIP3    H127393   6.090   5.788   8.527  1.6211 -0.2048  1.3913
 1066TIP3    H227394   6.160   5.667   8.468  1.7627  0.4432  0.1954
 1067TIP3   OH227395   2.531   4.142   7.987 -0.5649  0.2379 -0.0146
 1067TIP3    H127396   2.580   4.216   7.951  0.3330  0.3659  1.3842
 1067TIP3    H227397   2.470   4.181   8.049  0.0727 -0.1741  0.9035
 1068TIP3   OH227398   1.790   4.520   8.055 -0.0985 -0.5824 -0.0451
 1068TIP3    H127399   1.865   4.550   8.003  0.3457 -0.2409  0.7756
 1068TIP3    H227400   1.770   4.433   8.020  1.8716 -1.5054  0.9009
 1069TIP3   OH227401   0.894   2.270   9.394 -1.2236 -0.6037 -0.4180
 1069TIP3    H127402   0.839   2.243   9.468 -1.8866 -2.7556 -1.5980
 1069TIP3    H227403   0.835   2.268   9.318  0.0798 -1.4856 -1.4761
 1070TIP3   OH227404   0.126   1.123   6.841 -0.1970  0.2876  0.3946
 1070TIP3    H127405   0.139   1.198   6.900 -0.6568 -1.1132  2.4106
 1070TIP3    H227406   0.044   1.084   6.871 -1.5724  0.6675 -2.5912
 1071TIP3   OH227407   0.494   0.994   8.292 -0.0690  0.3628 -0.0557
 1071TIP3    H127408   0.459   0.925   8.236 -0.4084  0.6638 -0.2169
 1071TIP3    H227409   0.536   1.056   8.231 -0.3182  0.6194  0.0287
 1072TIP3   OH227410   3.932   7.044   9.115 -0.0085 -0.0534  0.1450
 1072TIP3    H127411   3.912   7.063   9.023  1.0825  2.0022  0.2762
 1072TIP3    H227412   4.011   6.990   9.112  0.0104 -0.0102 -0.1280
 1073TIP3   OH227413   1.313   3.476   7.596  0.0109  0.0106 -0.4659
 1073TIP3    H127414   1.342   3.416   7.665  1.1906 -0.6351 -1.4960
 1073TIP3    H227415   1.219   3.461   7.589 -0.0681 -0.1719  0.7402
 1074TIP3   OH227416   2.234   0.270   6.775 -0.0615  0.1214 -0.2123
 1074TIP3    H127417   2.315   0.219   6.783 -0.2602 -0.5201 -1.8944
 1074TIP3    H227418   2.166   0.215   6.813  0.0957  0.1255  0.0746
 1075TIP3   OH227419   5.287   5.724   8.297  0.3454  0.1830 -0.4107
 1075TIP3    H127420   5.363   5.768   8.335 -1.4529  1.4518  1.8847
 1075TIP3    H227421   5.222   5.793   8.286 -0.8551 -1.0595 -1.3754
 1076TIP3   OH227422   2.589   7.284   9.015  0.2816  0.0918  0.7125
 1076TIP3    H127423   2.683   7.269   9.007 -0.0338 -1.6719 -0.4337
 1076TIP3    H227424   2.570   7.273   9.108  1.1564  0.0478  0.8876
 1077TIP3   OH227425   3.779   4.788   8.031 -0.6023 -0.0635  0.7438
 1077TIP3    H127426   3.796   4.751   8.118 -1.2777 -0.6045  0.6572
 1077TIP3    H227427   3.863   4.782   7.985  0.3569  2.1946  2.0341
 1078TIP3   OH227428   1.047   2.310   8.912  0.2132  0.1508  0.2088
 1078TIP3    H127429   1.050   2.242   8.844  0.0103  0.0292  0.3205
 1078TIP3    H227430   0.962   2.297   8.955  0.5857 -0.1427  0.8661
 1079TIP3   OH227431   4.104   2.802   7.848  0.5364 -0.0114 -0.2926
 1079TIP3    H127432   4.095   2.833   7.758  0.0175 -0.6290 -0.4550
 1079TIP3    H227433   4.155   2.871   7.891 -1.8409  1.8457 -0.2558
 1080TIP3   OH227434   2.036   2.904   9.340 -0.2667  0.0774  0.9176
 1080TIP3    H127435   1.975   2.969   9.374 -0.5432  0.5249 -0.3890
 1080TIP3    H227436   1.982   2.847   9.285  0.1944 -0.5661  1.1102
 1081TIP3   OH227437   6.892   6.973   7.030 -0.5606 -0.5309 -0.4803
 1081TIP3    H127438   6.888   7.065   7.055 -1.5616 -0.7813  0.3545
 1081TIP3    H227439   6.808   6.936   7.058  0.3823 -2.0332  0.5677
 1082TIP3   OH227440   4.507   1.164   8.844 -0.4030 -0.6629  0.7763
 1082TIP3    H127441   4.599   1.183   8.829 -0.7222 -0.6824 -1.6714
 1082TIP3    H227442   4.479   1.227   8.910  0.9083  0.6587  0.1145
 1083TIP3   OH227443   1.730   7.148   9.212 -0.1303 -0.0553 -0.0462
 1083TIP3    H127444   1.707   7.081   9.276  1.0837 -1.9159 -1.4304
 1083TIP3    H227445   1.719   7.230   9.259 -0.5426 -1.2548  2.1326
 1084TIP3   OH227446   2.816   6.511   9.300 -0.4530  0.0511 -0.5583
 1084TIP3    H127447   2.788   6.594   9.338  0.3018 -0.7792  2.0510
 1084TIP3    H227448   2.911   6.521   9.288 -0.5261 -0.0648 -1.2308
 1085TIP3   OH227449   0.810   0.971   8.703  0.1667  0.2709  0.0578
 1085TIP3    H127450   0.735   1.005   8.752 -0.6497  2.7258 -2.6345
 1085TIP3    H227451   0.772   0.903   8.647  0.0379  1.0291 -0.7996
 1086TIP3   OH227452   7.544   7.317   7.838 -0.4923  0.6256  0.7103
 1086TIP3    H127453   7.509   7.396   7.881 -3.3022 -0.1502  0.0462
 1086TIP3    H227454   7.513   7.324   7.748  0.1016 -0.7612  0.3831
 1087TIP3   OH227455   5.297   0.504   8.814  0.7930 -0.3589 -0.2428
 1087TIP3    H127456   5.316   0.437   8.879  2.2466  1.2353  1.0848
 1087TIP3    H227457   5.367   0.568   8.825 -0.7889  1.6316 -1.1059
 1088TIP3   OH227458   3.717   7.431   9.211  0.2671 -0.1237  0.5918
 1088TIP3    H127459   3.688   7.519   9.234 -1.0967  0.6473 -3.4705
 1088TIP3    H227460   3.775   7.443   9.136 -0.6481 -2.7163 -0.6509
 1089TIP3   OH227461   0.985   0.398   7.657 -0.5531 -0.2486 -0.8266
 1089TIP3    H127462   1.010   0.405   7.564  0.1453 -1.3800 -0.7404
 1089TIP3    H227463   1.024   0.316   7.686 -3.7880 -1.8200 -0.4737
 1090TIP3   OH227464   6.727   0.151   7.742 -0.6387 -0.1891  0.4519
 1090TIP3    H127465   6.646   0.130   7.695 -0.4665 -1.7502  0.8019
 1090TIP3    H227466   6.757   0.068   7.778  1.7840  0.0936 -0.6810
 1091TIP3   OH227467   0.895   3.295   9.588 -0.2680  0.6472  0.4461
 1091TIP3    H127468   0.872   3.377   9.543  2.6867  0.3820 -1.8402
 1091TIP3    H227469   0.863   3.226   9.530  1.5416  0.2810 -0.1792
 1092TIP3   OH227470   5.980   2.068   7.932 -0.5168  0.1614 -0.0540
 1092TIP3    H127471   5.893   2.030   7.942 -0.8754  0.9308 -0.1145
 1092TIP3    H227472   5.977   2.149   7.984  0.1242  0.2558 -0.1492
 1093TIP3   OH227473   0.403   2.243   8.555 -0.3737 -0.0031 -0.1603
 1093TIP3    H127474   0.434   2.329   8.584 -2.8327  1.1787 -0.6855
 1093TIP3    H227475   0.317   2.261   8.517 -0.8169 -2.6790 -0.6226
 1094TIP3   OH227476   1.628   5.393   7.411  0.1436  0.6463  0.1064
 1094TIP3    H127477   1.715   5.393   7.451 -0.0972  0.7344  0.6434
 1094TIP3    H227478   1.623   5.477   7.365 -0.3721  1.5510  1.7132
 1095TIP3   OH227479   5.200   1.765   7.603 -0.1642 -0.0503  0.2887
 1095TIP3    H127480   5.158   1.690   7.646  2.0651 -1.7664 -0.3615
 1095TIP3    H227481   5.183   1.752   7.510 -0.3464  0.6727  0.2128
 1096TIP3   OH227482   2.049   4.260   8.320  0.3753 -0.0315  0.8092
 1096TIP3    H127483   1.972   4.203   8.322 -1.4634  2.1631 -1.0381
 1096TIP3    H227484   2.028   4.330   8.381  0.9198  0.5564  0.3317
 1097TIP3   OH227485   6.130   1.647   8.547 -0.4619 -0.1482 -0.3156
 1097TIP3    H127486   6.170   1.733   8.557 -0.7995  0.2760 -2.2097
 1097TIP3    H227487   6.147   1.623   8.455 -2.8342 -0.8207 -0.6455
 1098TIP3   OH227488   0.531   4.866   8.023  0.9175 -0.8592 -0.1775
 1098TIP3    H127489   0.568   4.937   8.075  1.3193 -1.3755  0.2537
 1098TIP3    H227490   0.439   4.862   8.049  1.1350 -1.1685  0.5669
 1099TIP3   OH227491   2.591   0.078   8.118  0.0294  0.4413 -0.4050
 1099TIP3    H127492   2.518   0.140   8.124  0.9687  1.6241 -0.8840
 1099TIP3    H227493   2.576   0.032   8.036 -0.3334  0.4673 -0.3588
 1100TIP3   OH227494   4.522   7.019   7.906  0.4652 -0.2265  0.0735
 1100TIP3    H127495   4.576   6.959   7.956 -1.5138  0.4964  3.3773
 1100TIP3    H227496   4.441   6.970   7.889 -0.4335  0.8117  1.1593
 1101TIP3   OH227497   1.301   2.596   8.623  0.2401  0.1548  0.3966
 1101TIP3    H127498   1.311   2.566   8.713 -2.8829  0.1935  0.8821
 1101TIP3    H227499   1.367   2.665   8.613  0.5449  0.2704  2.7095
 1102TIP3   OH227500   4.018   1.185   7.415  0.3754  0.0721  0.2952
 1102TIP3    H127501   4.074   1.136   7.356 -0.4737  0.4814 -0.8834
 1102TIP3    H227502   4.037   1.277   7.395 -0.5620  0.2136  0.0185
 1103TIP3   OH227503   7.411   3.813   7.206 -0.0122  0.9076 -0.0503
 1103TIP3    H127504   7.469   3.741   7.181  1.1897  1.6571  0.4771
 1103TIP3    H227505   7.323   3.784   7.180  0.2440 -1.3173  1.3200
 1104TIP3   OH227506   3.969   0.472   8.290 -0.6297  0.3494  0.2522
 1104TIP3    H127507   3.982   0.378   8.279 -1.6167  0.3489 -1.0411
 1104TIP3    H227508   4.050   0.511   8.258  0.0172 -0.0594  1.3226
 1105TIP3   OH227509   6.689   4.772   7.889 -0.1090 -0.3944 -0.6209
 1105TIP3    H127510   6.698   4.677   7.892  3.5532 -0.2056 -0.4443
 1105TIP3    H227511   6.645   4.795   7.971 -0.9961 -1.9069 -0.6438
 1106TIP3   OH227512   1.977   2.995   7.651 -0.7306 -0.3203  0.6567
 1106TIP3    H127513   2.009   2.983   7.561 -1.3119  0.1107  0.3831
 1106TIP3    H227514   2.055   3.018   7.701 -0.7007  1.5217 -0.1574
 1107TIP3   OH227515   2.016   7.328   9.222 -0.0759  0.1070  0.5789
 1107TIP3    H127516   2.093   7.337   9.278  0.7588 -1.4349 -0.2650
 1107TIP3    H227517   1.977   7.245   9.247 -1.3384  0.7480  0.8129
 1108TIP3   OH227518   2.924   6.609   8.212  0.4036  0.4854  0.2448
 1108TIP3    H127519   2.955   6.616   8.302  2.8746 -0.7076 -0.4482
 1108TIP3    H227520   2.958   6.525   8.181  0.5089  1.3280 -2.1269
 1109TIP3   OH227521   4.155   0.934   9.111  0.3765  0.3783 -0.1022
 1109TIP3    H127522   4.238   0.971   9.080  0.6487 -0.3400 -0.2484
 1109TIP3    H227523   4.176   0.844   9.135 -0.2470  0.3533  0.3855
 1110TIP3   OH227524   6.433   3.091   7.817 -0.3592  0.6798 -0.0725
 1110TIP3    H127525   6.523   3.086   7.786  0.0811  0.6800  1.1450
 1110TIP3    H227526   6.430   3.032   7.892 -1.4312  0.5192 -0.2334
 1111TIP3   OH227527   4.783   2.424   7.736 -0.4200  0.0802  0.3133
 1111TIP3    H127528   4.846   2.487   7.770  0.0844 -0.4438  0.3796
 1111TIP3    H227529   4.792   2.348   7.794  0.1656 -0.6797 -0.7361
 1112TIP3   OH227530   4.545   4.068   8.457  0.2805  0.1467 -0.3819
 1112TIP3    H127531   4.494   4.118   8.393  1.6891  1.2354 -0.7073
 1112TIP3    H227532   4.603   4.133   8.497  0.8837 -0.9137  0.5062
 1113TIP3   OH227533   1.110   0.846   8.641  0.5892 -0.0441  0.3993
 1113TIP3    H127534   1.073   0.844   8.729  2.3625 -0.3234  1.1702
 1113TIP3    H227535   1.093   0.759   8.605  0.9385 -0.3458  0.9477
 1114TIP3   OH227536   0.559   3.674   8.817  0.1636  0.0535  0.2117
 1114TIP3    H127537   0.496   3.742   8.791 -0.8643 -0.7865  0.4577
 1114TIP3    H227538   0.643   3.720   8.821 -0.3549  1.1069 -0.5296
 1115TIP3   OH227539   4.264   5.818   9.239 -0.6492 -0.6082  0.2036
 1115TIP3    H127540   4.254   5.772   9.322 -0.8119  0.6001  0.8730
 1115TIP3    H227541   4.186   5.874   9.232  0.6662  1.3654  0.5978
 1116TIP3   OH227542   5.730   0.341   8.468 -0.6049 -0.2800  0.4795
 1116TIP3    H127543   5.708   0.389   8.388 -0.5886  0.5617  0.9609
 1116TIP3    H227544   5.825   0.328   8.461 -0.7979 -1.3674 -0.2439
 1117TIP3   OH227545   2.140   0.760   8.580  0.0959  0.0086  0.2524
 1117TIP3    H127546   2.218   0.815   8.587 -1.2120  2.0856 -0.4727
 1117TIP3    H227547   2.166   0.687   8.524  1.8203  0.0088  0.9985
 1118TIP3   OH227548   6.876   4.812   7.322 -0.2015  0.0537  0.2407
 1118TIP3    H127549   6.825   4.877   7.274  0.6171 -0.0979 -0.8557
 1118TIP3    H227550   6.948   4.861   7.361  0.2844 -0.1406 -0.3940
 1119TIP3   OH227551   4.663   0.070   6.470  0.5576  0.1981  0.2383
 1119TIP3    H127552   4.584   0.056   6.417  0.3812 -1.1081  0.7867
 1119TIP3    H227553   4.727   0.010   6.433  1.5842  1.8154 -0.7059
 1120TIP3   OH227554   7.242   4.297   7.742  0.0389 -0.2820  0.1558
 1120TIP3    H127555   7.165   4.249   7.772 -0.0344  0.6297  1.5037
 1120TIP3    H227556   7.232   4.385   7.779  1.5260 -0.0263  0.0277
 1121TIP3   OH227557   4.349   2.636   8.261 -0.3893  0.6295  0.5012
 1121TIP3    H127558   4.306   2.633   8.175  1.5187 -0.3918 -0.4795
 1121TIP3    H227559   4.432   2.679   8.244 -0.4525  1.4453  2.1056
 1122TIP3   OH227560   3.094   5.194   7.902  0.2535  0.3289  0.1412
 1122TIP3    H127561   3.077   5.184   7.995 -0.0294 -1.4201 -0.0636
 1122TIP3    H227562   3.091   5.288   7.887 -4.3480  0.5585  1.0474
 1123TIP3   OH227563   2.330   0.718   9.148  0.4303 -0.6939  0.2091
 1123TIP3    H127564   2.315   0.778   9.075  0.7059  2.5880  2.6488
 1123TIP3    H227565   2.244   0.681   9.167 -0.1416  0.4377 -0.1285
 1124TIP3   OH227566   7.521   1.875   9.005 -0.3699 -0.0763  0.3224
 1124TIP3    H127567   7.464   1.889   8.930 -1.1570  0.9716  1.0870
 1124TIP3    H227568   7.468   1.823   9.066 -0.2476  0.2736  0.7327
 1125TIP3   OH227569   1.495   6.608   9.193  1.0154  0.4085 -0.0578
 1125TIP3    H127570   1.567   6.623   9.253 -0.8128  0.6319  2.2192
 1125TIP3    H227571   1.420   6.653   9.232 -0.4227  0.0951 -2.2362
 1126TIP3   OH227572   3.368   0.220   7.669  0.2706 -0.4238  0.1030
 1126TIP3    H127573   3.395   0.305   7.634 -0.7861 -0.5092 -0.9844
 1126TIP3    H227574   3.272   0.224   7.670  0.2362 -0.9405  1.7705
 1127TIP3   OH227575   0.754   0.346   8.569 -0.5106  0.0745  0.6158
 1127TIP3    H127576   0.794   0.347   8.656  1.5416 -2.1465 -0.1915
 1127TIP3    H227577   0.826   0.369   8.510 -1.4441 -0.1351 -0.6276
 1128TIP3   OH227578   6.004   6.930   9.662 -0.2826 -1.0665 -0.2217
 1128TIP3    H127579   5.994   6.965   9.751 -2.3724 -0.1421 -0.7498
 1128TIP3    H227580   6.057   6.852   9.673 -0.9708 -1.3002  1.9511
 1129TIP3   OH227581   5.910   4.330   8.013 -0.5212  0.4593  0.1756
 1129TIP3    H127582   5.945   4.282   7.938  0.5451  0.8836  0.3765
 1129TIP3    H227583   5.835   4.377   7.979 -0.1202  0.5482 -0.6057
 1130TIP3   OH227584   3.671   2.880   7.902 -0.0884 -0.3488  0.1425
 1130TIP3    H127585   3.740   2.908   7.963  0.7865  1.3455 -1.5140
 1130TIP3    H227586   3.647   2.960   7.855 -0.0217 -1.7275 -2.4221
 1131TIP3   OH227587   0.093   3.219   7.834 -0.1313  0.2146 -0.3296
 1131TIP3    H127588   0.008   3.256   7.857  0.2130  0.7868  0.0468
 1131TIP3    H227589   0.152   3.250   7.903  0.7757  1.3609 -1.5650
 1132TIP3   OH227590   5.360   3.499   9.245 -0.4465 -0.1027  0.0186
 1132TIP3    H127591   5.406   3.517   9.163  2.1078  1.5036  1.6440
 1132TIP3    H227592   5.338   3.406   9.240  1.9129 -0.6821 -1.4523
 1133TIP3   OH227593   4.944   0.877   7.959  0.2538  0.0016  0.0015
 1133TIP3    H127594   4.920   0.787   7.981  2.3456 -0.5716  0.1413
 1133TIP3    H227595   5.001   0.869   7.883  1.2921  1.1155  0.6387
 1134TIP3   OH227596   6.683   6.556   8.750  0.4726 -0.0353  0.3313
 1134TIP3    H127597   6.702   6.640   8.791 -0.3604  0.6186 -0.5764
 1134TIP3    H227598   6.640   6.505   8.818 -3.3196  1.9592 -0.3333
 1135TIP3   OH227599   1.827   3.247   8.820 -0.5471  0.0389  0.4759
 1135TIP3    H127600   1.771   3.201   8.882  1.2669 -0.2791  1.9593
 1135TIP3    H227601   1.892   3.182   8.794 -0.0539  0.7766 -0.1631
 1136TIP3   OH227602   0.519   7.422   8.469  0.0153  0.0026 -0.1066
 1136TIP3    H127603   0.512   7.436   8.564 -1.7433  0.5264 -0.2916
 1136TIP3    H227604   0.565   7.499   8.437  0.0286  0.1381  0.2361
 1137TIP3   OH227605   3.207   3.027   8.374 -0.0697 -0.0737 -0.1293
 1137TIP3    H127606   3.219   2.978   8.293  0.6316  0.7987 -0.5753
 1137TIP3    H227607   3.289   3.075   8.385 -0.2334 -0.0370  0.9998
 1138TIP3   OH227608   1.000   2.011   7.920  0.0009 -0.0944  0.0110
 1138TIP3    H127609   0.912   2.033   7.950 -0.6148 -1.1387 -0.9256
 1138TIP3    H227610   1.045   1.981   7.999 -0.3971  0.7081  0.5479
 1139TIP3   OH227611   1.915   0.712   8.315 -0.4272  0.0002  0.4277
 1139TIP3    H127612   1.841   0.661   8.282  0.0149 -0.4216  0.0716
 1139TIP3    H227613   1.879   0.760   8.389 -0.8257 -0.9257  0.8554
 1140TIP3   OH227614   2.812   2.766   7.972  0.0906  0.3759 -0.5746
 1140TIP3    H127615   2.906   2.758   7.986  0.1619 -2.2857 -1.9338
 1140TIP3    H227616   2.774   2.695   8.023 -0.9813  0.2132 -1.5656
 1141TIP3   OH227617   6.074   5.169   8.358  0.5235  0.2179 -0.0929
 1141TIP3    H127618   6.064   5.103   8.427 -1.2352  1.5685  1.0455
 1141TIP3    H227619   6.040   5.250   8.398  3.5861  2.1221 -1.0193
 1142TIP3   OH227620   1.912   2.247   9.173  0.8312  0.2863  0.2170
 1142TIP3    H127621   1.862   2.292   9.241 -0.0813  1.1873 -1.0100
 1142TIP3    H227622   1.931   2.314   9.108  2.7883 -0.2685  0.1447
 1143TIP3   OH227623   4.411   7.101   8.466 -0.2989  0.1134 -0.1691
 1143TIP3    H127624   4.358   7.083   8.544 -0.5454  0.0497 -0.3535
 1143TIP3    H227625   4.443   7.190   8.480  0.6728 -0.3339  0.5959
 1144TIP3   OH227626   3.459   1.615   7.672 -0.0435  0.1894  0.6575
 1144TIP3    H127627   3.373   1.581   7.696 -0.3421  0.1258 -0.4687
 1144TIP3    H227628   3.498   1.547   7.618 -0.0204  0.9591 -0.3193
 1145TIP3   OH227629   1.723   4.103   8.133 -0.0007  0.2805 -0.7398
 1145TIP3    H127630   1.695   4.178   8.186 -2.6638 -0.7611 -0.5131
 1145TIP3    H227631   1.667   4.031   8.161  1.9955 -1.6618 -1.4438
 1146TIP3   OH227632   4.939   6.711   7.371 -0.1298 -0.0720 -0.1004
 1146TIP3    H127633   5.014   6.771   7.377  0.7377 -1.0658 -0.5181
 1146TIP3    H227634   4.948   6.671   7.284 -2.6241  1.6182 -1.2494
 1147TIP3   OH227635   7.115   5.616   8.978  0.4430 -1.0400  0.3343
 1147TIP3    H127636   7.136   5.564   9.056 -0.3557 -0.5372  0.8990
 1147TIP3    H227637   7.026   5.647   8.993  0.8736  0.4519 -0.0027
 1148TIP3   OH227638   1.333   1.962   7.625 -0.1463  0.6034 -0.4637
 1148TIP3    H127639   1.347   1.880   7.672 -0.1494  0.8195 -0.0809
 1148TIP3    H227640   1.278   1.938   7.550  0.6249  0.0956 -0.8821
 1149TIP3   OH227641   5.739   4.360   7.036 -0.5090  0.2028  0.1969
 1149TIP3    H127642   5.708   4.390   6.950 -1.7121  1.1554  0.9184
 1149TIP3    H227643   5.826   4.398   7.044 -0.0448 -0.5650 -0.9194
 1150TIP3   OH227644   6.198   5.506   8.496 -0.1377 -0.6243 -0.2045
 1150TIP3    H127645   6.103   5.495   8.498 -0.1700 -0.6366 -1.3650
 1150TIP3    H227646   6.225   5.474   8.410  1.0464 -1.5131  0.4641
 1151TIP3   OH227647   4.446   5.660   8.843 -0.0423 -0.8388  0.2407
 1151TIP3    H127648   4.392   5.635   8.918  0.6369  1.0295  1.4135
 1151TIP3    H227649   4.505   5.586   8.830  0.2253 -0.9567  1.9586
 1152TIP3   OH227650   3.435   6.189   8.355  0.5214 -0.4159  0.4794
 1152TIP3    H127651   3.506   6.227   8.303  0.2751 -1.4917 -0.6794
 1152TIP3    H227652   3.377   6.263   8.374 -0.5485 -0.2958 -2.6838
 1153TIP3   OH227653   0.864   6.942   9.344 -0.5367  0.1818 -0.2521
 1153TIP3    H127654   0.959   6.931   9.354 -0.7847 -0.2880  2.2323
 1153TIP3    H227655   0.840   6.879   9.276  1.0268  1.0260 -1.6736
 1154TIP3   OH227656   4.566   0.132   7.277 -0.2860  0.5088  0.4521
 1154TIP3    H127657   4.580   0.128   7.182  0.5914 -2.1796  0.6262
 1154TIP3    H227658   4.536   0.045   7.300 -0.0437  0.9827  2.7427
 1155TIP3   OH227659   2.182   2.106   7.591 -0.0885 -0.1801 -0.2626
 1155TIP3    H127660   2.268   2.082   7.558  0.0603  0.2225 -0.1635
 1155TIP3    H227661   2.130   2.025   7.583  0.3923 -0.5172 -0.0017
 1156TIP3   OH227662   3.486   4.878   7.174 -0.7321 -1.0712 -0.0820
 1156TIP3    H127663   3.511   4.917   7.090 -2.2584  1.4150  0.5026
 1156TIP3    H227664   3.569   4.857   7.216  0.2037  0.7945 -0.8661
 1157TIP3   OH227665   3.554   6.459   6.831  0.1290 -0.3193  0.5080
 1157TIP3    H127666   3.489   6.398   6.867  0.5454 -0.6079  0.7731
 1157TIP3    H227667   3.510   6.498   6.755 -0.4232 -0.3765  0.7937
 1158TIP3   OH227668   3.562   5.030   6.954 -0.0827  0.0396 -0.4853
 1158TIP3    H127669   3.535   5.029   6.862  1.1612  0.0470 -0.8820
 1158TIP3    H227670   3.654   5.004   6.951 -0.3761 -1.2616  0.8913
 1159TIP3   OH227671   3.247   0.795   7.983 -0.2584  0.0775 -0.1176
 1159TIP3    H127672   3.184   0.858   7.949  0.0239  0.8356  0.7118
 1159TIP3    H227673   3.333   0.832   7.960 -0.0924 -0.1293  0.1628
 1160TIP3   OH227674   4.042   6.681   8.709  0.0886 -0.5099 -0.7608
 1160TIP3    H127675   3.979   6.621   8.669  0.0422 -0.0627 -1.3770
 1160TIP3    H227676   4.046   6.755   8.648 -0.0311  0.2201  0.1014
 1161TIP3   OH227677   3.032   2.147   9.836  0.1231 -0.0412 -0.0291
 1161TIP3    H127678   3.098   2.202   9.877  2.5808 -2.4639 -0.4917
 1161TIP3    H227679   3.001   2.197   9.761  0.5556  1.5987  0.8446
 1162TIP3   OH227680   5.235   6.312   9.524 -0.4246  0.1046  0.4276
 1162TIP3    H127681   5.223   6.217   9.531  1.5786 -0.6817 -3.7888
 1162TIP3    H227682   5.147   6.345   9.504 -1.1742 -0.7592  2.0869
 1163TIP3   OH227683   7.205   2.399   8.344  0.0875 -0.0157  0.2949
 1163TIP3    H127684   7.173   2.475   8.392 -0.9645  0.6343 -1.3609
 1163TIP3    H227685   7.188   2.325   8.402 -2.7074  0.5326  0.3027
 1164TIP3   OH227686   1.335   2.676   9.355  0.7512 -0.1364  0.2712
 1164TIP3    H127687   1.380   2.657   9.437  2.6349 -1.9754 -1.0890
 1164TIP3    H227688   1.347   2.598   9.302  1.1705  1.6156 -2.4221
 1165TIP3   OH227689   7.336   1.804   6.868 -0.1242 -0.2772  0.0809
 1165TIP3    H127690   7.360   1.740   6.801 -0.0927  0.8931 -1.0787
 1165TIP3    H227691   7.263   1.764   6.915 -2.0606 -0.0371 -2.4877
 1166TIP3   OH227692   1.453   2.623   7.611 -0.0727 -0.4202  0.0631
 1166TIP3    H127693   1.454   2.715   7.635 -0.0482 -0.4172  0.0511
 1166TIP3    H227694   1.364   2.607   7.580  0.4790  0.1407 -1.9762
 1167TIP3   OH227695   7.506   0.855   7.910  0.2761  0.0910 -0.2073
 1167TIP3    H127696   7.583   0.905   7.940  0.9740 -0.1422 -1.5683
 1167TIP3    H227697   7.536   0.765   7.907 -0.5758 -0.2540  0.8633
 1168TIP3   OH227698   5.230   4.358   9.262 -0.2318  0.1159 -0.0999
 1168TIP3    H127699   5.321   4.382   9.245 -0.4071  0.6678 -0.2817
 1168TIP3    H227700   5.217   4.276   9.215  0.5222 -0.6155  0.9287
 1169TIP3   OH227701   0.932   4.546   7.808 -0.4944  0.0026  0.1319
 1169TIP3    H127702   0.868   4.572   7.742 -1.1622 -2.9538 -0.5315
 1169TIP3    H227703   1.016   4.573   7.772 -1.0047 -0.0268 -1.1148
 1170TIP3   OH227704   7.356   3.534   6.759 -0.5781 -0.3226  0.0758
 1170TIP3    H127705   7.265   3.511   6.741 -0.2050 -1.1982 -0.7448
 1170TIP3    H227706   7.391   3.458   6.806 -0.5734  0.4926  1.4466
 1171TIP3   OH227707   5.795   5.228   8.295  0.6780 -0.1345  0.3189
 1171TIP3    H127708   5.752   5.311   8.272  0.8732 -0.3758 -0.9873
 1171TIP3    H227709   5.725   5.163   8.290  0.6205 -0.1222  0.9078
 1172TIP3   OH227710   0.187   4.151   7.977  0.4240  0.2993  0.4309
 1172TIP3    H127711   0.228   4.086   7.920  0.0006  0.3094  0.1092
 1172TIP3    H227712   0.098   4.160   7.943  0.5454  1.2115  0.3342
 1173TIP3   OH227713   2.317   5.262   7.346 -0.1462 -0.3953  0.4099
 1173TIP3    H127714   2.378   5.309   7.402  0.5072 -0.2080 -0.4387
 1173TIP3    H227715   2.372   5.221   7.279 -0.4970 -3.7583  1.9886
 1174TIP3   OH227716   1.596   6.895   8.873 -0.1315 -0.0437  0.3375
 1174TIP3    H127717   1.605   6.988   8.857  0.3924 -0.0083  0.7979
 1174TIP3    H227718   1.606   6.886   8.968 -1.6386 -0.4048  0.4818
 1175TIP3   OH227719   2.049   6.310   8.483  0.5443 -0.4763  0.3914
 1175TIP3    H127720   1.960   6.314   8.519  0.3266 -0.1463 -0.1609
 1175TIP3    H227721   2.071   6.217   8.484  0.3796 -0.5115  0.9782
 1176TIP3   OH227722   1.129   7.329   8.870  0.2485  0.1397  0.2815
 1176TIP3    H127723   1.064   7.361   8.807  1.3668 -0.7420 -1.4087
 1176TIP3    H227724   1.212   7.367   8.840  0.9084 -0.7942  0.8491
 1177TIP3   OH227725   4.261   0.394   8.485  0.6712  0.5988 -0.4372
 1177TIP3    H127726   4.257   0.407   8.390  0.2578 -0.2500 -0.5446
 1177TIP3    H227727   4.252   0.482   8.521  0.3787  0.8817 -1.1790
 1178TIP3   OH227728   2.340   0.062   9.376 -0.1288 -0.5647 -0.1854
 1178TIP3    H127729   2.277   0.081   9.445  1.2043  1.0541  0.6606
 1178TIP3    H227730   2.330   0.134   9.314 -0.1387 -1.1027 -0.8207
 1179TIP3   OH227731   6.279   1.878   7.356  0.3397  0.0970  0.4303
 1179TIP3    H127732   6.301   1.808   7.418 -0.4211  1.2952  2.1490
 1179TIP3    H227733   6.362   1.925   7.344  0.6732 -0.6136 -0.1165
 1180TIP3   OH227734   1.412   1.310   7.961  0.4079  0.3822  0.1347
 1180TIP3    H127735   1.502   1.294   7.989 -0.3193 -0.9232  1.9464
 1180TIP3    H227736   1.407   1.404   7.951  2.4404  0.3656 -1.7985
 1181TIP3   OH227737   7.524   2.713   7.553 -0.2055  0.3719  0.4869
 1181TIP3    H127738   7.554   2.803   7.546 -0.7699  0.4361 -1.5110
 1181TIP3    H227739   7.603   2.663   7.573  0.4759  1.0618 -0.4094
 1182TIP3   OH227740   2.994   3.825   8.432 -0.0789 -0.1460  0.0322
 1182TIP3    H127741   3.067   3.799   8.488  0.1924  1.6958  0.6040
 1182TIP3    H227742   2.941   3.746   8.424  0.4417 -0.7735  2.0197
 1183TIP3   OH227743   3.379   6.556   9.620  0.4464 -0.3830 -0.4190
 1183TIP3    H127744   3.384   6.593   9.708 -0.6605  0.5380 -0.7225
 1183TIP3    H227745   3.430   6.617   9.566  0.4816 -0.5249 -0.5473
 1184TIP3   OH227746   5.522   1.191   7.341  0.5484 -0.5902 -1.0782
 1184TIP3    H127747   5.528   1.194   7.246  1.5795 -1.1030 -1.0394
 1184TIP3    H227748   5.505   1.282   7.367 -0.1650 -0.5208 -1.7648
 1185TIP3   OH227749   0.343   6.373   9.136 -0.3569 -0.5265 -0.6878
 1185TIP3    H127750   0.280   6.348   9.203 -0.0674 -0.3332 -0.3394
 1185TIP3    H227751   0.415   6.311   9.146 -0.3375 -0.5327 -0.8577
 1186TIP3   OH227752   3.403   1.065   9.475  0.0741  0.4893 -0.2350
 1186TIP3    H127753   3.437   1.154   9.479 -0.8126  0.8055  1.1812
 1186TIP3    H227754   3.346   1.058   9.552  2.0265 -2.0785  1.1425
 1187TIP3   OH227755   4.809   0.935   8.850 -0.5391 -0.7691 -0.1337
 1187TIP3    H127756   4.759   0.858   8.879 -2.0537 -0.0838 -0.7881
 1187TIP3    H227757   4.755   1.009   8.878  2.5545  0.3306  3.7468
 1188TIP3   OH227758   1.790   4.607   9.327  0.4428  0.3248 -0.0787
 1188TIP3    H127759   1.711   4.662   9.326  0.8297  0.9164 -1.7793
 1188TIP3    H227760   1.757   4.518   9.339 -0.3077  0.7607  1.3249
 1189TIP3   OH227761   4.181   0.310   7.119  0.3063  1.0128  0.5029
 1189TIP3    H127762   4.235   0.387   7.102  0.1416  1.1126  0.4295
 1189TIP3    H227763   4.185   0.259   7.039  0.4037  0.9541  0.5462
 1190TIP3   OH227764   4.945   0.351   7.941  0.3839  0.2870  0.3472
 1190TIP3    H127765   4.903   0.307   8.015 -1.8820  0.4508 -0.7481
 1190TIP3    H227766   5.003   0.284   7.903 -0.0942 -0.5068  0.9753
 1191TIP3   OH227767   7.094   0.144   7.716  0.0818 -0.3909 -0.5810
 1191TIP3    H127768   7.103   0.167   7.809  1.2118  0.2854 -0.8351
 1191TIP3    H227769   7.026   0.203   7.684 -0.2123 -0.5266 -0.2141
 1192TIP3   OH227770   2.910   4.860   7.549 -0.2227  0.1574  0.1787
 1192TIP3    H127771   2.948   4.872   7.636  0.2742  1.5055 -0.2007
 1192TIP3    H227772   2.930   4.942   7.503  1.1671 -1.2417 -1.8275
 1193TIP3   OH227773   4.718   5.386   8.145 -0.2710 -0.3775  0.3830
 1193TIP3    H127774   4.640   5.341   8.177  1.8439 -3.3955  1.8416
 1193TIP3    H227775   4.767   5.320   8.097  2.5770  0.5640  1.7254
 1194TIP3   OH227776   7.320   2.070   9.109  0.2623  0.2695 -0.3117
 1194TIP3    H127777   7.331   2.007   9.180  1.1058  0.5595 -0.1802
 1194TIP3    H227778   7.297   2.152   9.153  0.7828  0.4496 -0.3723
 1195TIP3   OH227779   2.274   5.467   7.799  0.2752  0.1534  0.3412
 1195TIP3    H127780   2.193   5.497   7.840  0.4892  0.2832  0.6815
 1195TIP3    H227781   2.253   5.458   7.706 -0.0923  0.3123  0.4085
 1196TIP3   OH227782   0.552   0.942   9.501  0.2732 -0.0967  0.4781
 1196TIP3    H127783   0.646   0.943   9.479 -0.0471  0.7163 -1.0011
 1196TIP3    H227784   0.544   1.008   9.570  0.7221  0.2459  0.2153
 1197TIP3   OH227785   6.321   7.381   7.639 -0.6318 -0.0642  0.2194
 1197TIP3    H127786   6.319   7.290   7.671 -1.6590 -0.2198 -0.2512
 1197TIP3    H227787   6.236   7.417   7.664  0.6815  1.5959  2.6368
 1198TIP3   OH227788   2.462   6.370   8.692 -0.7852  1.0989 -0.1968
 1198TIP3    H127789   2.540   6.315   8.681 -2.0154 -1.0690  1.2202
 1198TIP3    H227790   2.408   6.350   8.615 -0.2111  2.1934 -0.9033
 1199TIP3   OH227791   6.621   2.271   7.381  0.2744  0.1482 -0.4190
 1199TIP3    H127792   6.526   2.273   7.380  0.2134 -0.8822  0.5983
 1199TIP3    H227793   6.643   2.207   7.449  1.6931  0.6046 -0.4071
 1200TIP3   OH227794   6.450   1.843   8.076  0.2782  0.0945 -0.1519
 1200TIP3    H127795   6.485   1.757   8.099 -1.4971 -0.7538 -0.4728
 1200TIP3    H227796   6.444   1.842   7.981  0.0627  0.4998 -0.1469
 1201TIP3   OH227797   5.991   1.266   6.788 -0.1938 -0.1284 -0.2210
 1201TIP3    H127798   5.900   1.276   6.759 -0.2752  1.2207  0.4107
 1201TIP3    H227799   6.013   1.175   6.768 -1.2699 -0.1294 -1.5250
 1202TIP3   OH227800   1.930   4.251   8.595 -0.3295 -0.5630 -0.2681
 1202TIP3    H127801   1.932   4.156   8.607  1.6276 -0.5537 -0.1299
 1202TIP3    H227802   2.015   4.281   8.629  0.0803  0.9495 -2.4324
 1203TIP3   OH227803   3.740   4.684   9.259  0.2244  0.4131  0.4843
 1203TIP3    H127804   3.711   4.614   9.317 -0.5665  1.3061  1.1910
 1203TIP3    H227805   3.662   4.737   9.244  1.0267  1.7324  0.8029
 1204TIP3   OH227806   1.973   6.729   8.216  0.1132 -0.0664 -0.0948
 1204TIP3    H127807   2.060   6.748   8.251  0.3035  0.3592 -0.7735
 1204TIP3    H227808   1.951   6.643   8.252  0.5625  0.0798  0.5501
 1205TIP3   OH227809   0.809   6.189   8.064  0.8502 -0.2815 -0.1273
 1205TIP3    H127810   0.815   6.101   8.101  0.0462 -0.0795  0.5273
 1205TIP3    H227811   0.808   6.176   7.970 -2.4551 -1.2771 -0.0837
 1206TIP3   OH227812   7.499   2.259   9.304  0.0371 -0.8429 -0.1592
 1206TIP3    H127813   7.550   2.198   9.249  1.9257  0.1779  0.3561
 1206TIP3    H227814   7.510   2.225   9.393 -0.5074 -0.8046 -0.0760
 1207TIP3   OH227815   3.059   4.349   9.150  0.4243  0.6416  0.6188
 1207TIP3    H127816   2.996   4.406   9.194 -0.6898 -0.5324  0.6305
 1207TIP3    H227817   3.023   4.261   9.162  1.1029  0.1029 -0.9790
 1208TIP3   OH227818   4.062   1.645   9.305  0.0141  0.2867  0.0160
 1208TIP3    H127819   4.009   1.651   9.225  0.8583 -1.3216 -0.7121
 1208TIP3    H227820   4.102   1.732   9.312  0.9500  0.1047 -2.0948
 1209TIP3   OH227821   0.412   0.637   7.253 -0.1567 -0.0241  0.4021
 1209TIP3    H127822   0.496   0.683   7.255  1.3913 -2.4712 -1.5001
 1209TIP3    H227823   0.423   0.571   7.184 -2.5177 -2.5486  2.2214
 1210TIP3   OH227824   2.239   1.903   8.430 -0.1516  0.3092  0.4797
 1210TIP3    H127825   2.282   1.895   8.515 -0.9116 -2.0856  0.7047
 1210TIP3    H227826   2.301   1.866   8.368 -0.5315 -0.0767  0.3263
 1211TIP3   OH227827   1.698   5.831   6.955  0.1340  0.4983  0.1344
 1211TIP3    H127828   1.771   5.799   6.901 -0.5451  1.0673 -1.1540
 1211TIP3    H227829   1.652   5.751   6.983  0.6007  0.1932  0.0446
 1212TIP3   OH227830   0.364   6.209   8.410  0.4520 -0.4832  0.1528
 1212TIP3    H127831   0.451   6.246   8.395  0.2606 -0.5018 -1.1010
 1212TIP3    H227832   0.349   6.153   8.334  0.5498 -2.8439  1.7717
 1213TIP3   OH227833   0.119   7.196   8.113 -0.1386 -0.4385  0.1119
 1213TIP3    H127834   0.069   7.133   8.164 -0.7878 -0.0063  0.0188
 1213TIP3    H227835   0.075   7.198   8.028  2.0598 -2.6257 -1.2438
 1214TIP3   OH227836   7.341   2.622   8.608  0.1823  0.4951 -0.1430
 1214TIP3    H127837   7.264   2.599   8.556 -1.5676  0.7821  2.1852
 1214TIP3    H227838   7.326   2.714   8.632  1.8039  0.8786 -0.5019
 1215TIP3   OH227839   1.030   6.874   9.073  0.2257 -0.2301  0.7503
 1215TIP3    H127840   1.000   6.852   8.985  0.7706  0.9496  0.2433
 1215TIP3    H227841   1.104   6.815   9.088  0.8187  0.2948 -0.0338
 1216TIP3   OH227842   1.185   4.644   8.289  0.4177 -0.5080 -0.3640
 1216TIP3    H127843   1.182   4.739   8.298 -0.4400 -0.6385  1.0488
 1216TIP3    H227844   1.208   4.629   8.198  1.3959  1.0564 -0.4105
 1217TIP3   OH227845   5.554   2.739   8.401  0.5937  0.3071  0.1028
 1217TIP3    H127846   5.617   2.711   8.467  1.3583  0.9077 -0.3503
 1217TIP3    H227847   5.504   2.809   8.443  2.7196  2.4202 -0.6948
 1218TIP3   OH227848   0.214   3.413   8.712 -0.0112 -0.1709 -0.4422
 1218TIP3    H127849   0.300   3.435   8.677 -0.9138  0.5823 -2.3638
 1218TIP3    H227850   0.209   3.318   8.703  0.2207 -0.1096 -1.3975
 1219TIP3   OH227851   3.651   4.361   8.990  0.1970  0.1872  0.2095
 1219TIP3    H127852   3.732   4.310   8.997 -0.0741 -0.4138 -0.7244
 1219TIP3    H227853   3.678   4.444   8.951  0.7357  1.0566  2.2974
 1220TIP3   OH227854   0.504   6.984   7.705 -0.2747  0.4908  0.2336
 1220TIP3    H127855   0.486   7.039   7.780  0.7683 -0.0250  0.8839
 1220TIP3    H227856   0.555   7.040   7.645 -1.8452  1.1766 -0.5125
 1221TIP3   OH227857   6.171   0.711   8.226 -0.3420  0.3050  0.0830
 1221TIP3    H127858   6.147   0.800   8.201 -0.3200 -0.2287 -2.0760
 1221TIP3    H227859   6.136   0.700   8.314 -1.7334  1.9168 -0.2227
 1222TIP3   OH227860   2.725   2.125   9.455  0.3440 -0.0209  0.4225
 1222TIP3    H127861   2.761   2.161   9.536 -0.5175 -1.3290  1.4350
 1222TIP3    H227862   2.784   2.053   9.432  1.6574  1.4877 -1.1995
 1223TIP3   OH227863   2.630   2.664   9.332  0.3052  0.1676  0.0382
 1223TIP3    H127864   2.722   2.658   9.306  0.2100  0.3965 -0.3481
 1223TIP3    H227865   2.606   2.574   9.356  1.2134  0.4220  2.1715
 1224TIP3   OH227866   3.328   2.326   7.781  0.2630  0.6474  0.1570
 1224TIP3    H127867   3.246   2.303   7.739 -0.5539 -0.6361  2.2919
 1224TIP3    H227868   3.367   2.242   7.805  1.5198  1.2821  0.4413
 1225TIP3   OH227869   2.061   0.474   8.609  0.1811  0.2468 -0.4718
 1225TIP3    H127870   2.120   0.466   8.684 -0.0591 -2.6514 -0.4666
 1225TIP3    H227871   2.119   0.475   8.533  0.3537 -1.4321 -0.4078
 1226TIP3   OH227872   4.224   0.756   7.210  0.2440  0.1362 -0.4325
 1226TIP3    H127873   4.292   0.690   7.198  0.4081  0.1211  0.5023
 1226TIP3    H227874   4.205   0.787   7.122  0.8470 -0.4773 -0.7867
 1227TIP3   OH227875   1.407   6.703   9.443  0.4133 -0.2855 -0.2012
 1227TIP3    H127876   1.480   6.720   9.504  1.0900  1.4278 -1.4148
 1227TIP3    H227877   1.349   6.779   9.453 -1.1289 -1.5146  0.5634
 1228TIP3   OH227878   2.711   3.648   9.349  0.0746 -0.3814 -0.2543
 1228TIP3    H127879   2.639   3.650   9.412  0.0024 -0.3607 -0.3362
 1228TIP3    H227880   2.788   3.624   9.401 -0.0801 -0.8833 -0.2473
 1229TIP3   OH227881   3.275   0.862   9.147  0.2331  0.2067  0.0619
 1229TIP3    H127882   3.276   0.818   9.062 -0.5508 -0.0000  0.1502
 1229TIP3    H227883   3.216   0.937   9.134 -0.9874 -0.5842  0.7722
 1230TIP3   OH227884   5.647   3.784   7.412 -0.5636  0.1394  0.2273
 1230TIP3    H127885   5.564   3.737   7.406  0.5379 -2.2021  1.6479
 1230TIP3    H227886   5.661   3.797   7.505  1.0595 -0.3794  0.0924
 1231TIP3   OH227887   1.190   0.974   7.462  0.1717  0.1468  0.2735
 1231TIP3    H127888   1.138   0.899   7.432  1.3047  0.1240 -1.8240
 1231TIP3    H227889   1.248   0.938   7.529 -0.7939 -0.3477  0.8685
 1232TIP3   OH227890   3.330   0.955   7.480 -0.3600  0.9109  0.7611
 1232TIP3    H127891   3.270   0.966   7.406  0.5746  2.4562  0.1903
 1232TIP3    H227892   3.397   1.022   7.467  3.0804 -2.3615 -0.1373
 1233TIP3   OH227893   5.466   7.559   6.596 -0.0607  0.3838 -0.1929
 1233TIP3    H127894   5.458   7.481   6.541  1.4105  1.0842 -1.5049
 1233TIP3    H227895   5.548   7.599   6.567 -0.1566  1.7459  1.3219
 1234TIP3   OH227896   3.274   1.531   9.730  0.0612  0.8736 -0.0562
 1234TIP3    H127897   3.271   1.575   9.645  0.3305  1.4765  0.2425
 1234TIP3    H227898   3.230   1.447   9.715 -1.7972  1.8188 -0.2877
 1235TIP3   OH227899   2.586   6.668   9.025 -1.0003 -0.2948  0.1575
 1235TIP3    H127900   2.596   6.675   8.930 -0.5734 -2.0730  0.0233
 1235TIP3    H227901   2.562   6.755   9.054  0.2470  0.6293 -1.4189
 1236TIP3   OH227902   0.615   1.981   7.346  0.2110  0.2159  0.6199
 1236TIP3    H127903   0.586   2.066   7.314  1.0377 -0.2793 -1.6346
 1236TIP3    H227904   0.557   1.962   7.420 -0.9717  2.0510  0.2299
 1237TIP3   OH227905   4.224   2.557   7.986 -0.0577  0.3074  0.0735
 1237TIP3    H127906   4.157   2.489   7.993 -0.8249  0.3566 -4.0284
 1237TIP3    H227907   4.189   2.619   7.921  1.7786  3.2217  1.6215
 1238TIP3   OH227908   2.438   3.499   6.825  0.2137 -0.2126 -0.6432
 1238TIP3    H127909   2.523   3.531   6.795  0.2289 -0.4764 -0.8844
 1238TIP3    H227910   2.379   3.516   6.751 -0.2215  1.0972 -0.0362
 1239TIP3   OH227911   3.768   2.217   7.991 -0.2258 -0.3229 -0.2399
 1239TIP3    H127912   3.676   2.244   7.994  0.0117  0.8292 -1.8965
 1239TIP3    H227913   3.772   2.153   7.920  0.2792 -0.2597 -0.2719
 1240TIP3   OH227914   2.548   3.467   9.877 -0.2802 -0.1686  0.1011
 1240TIP3    H127915   2.576   3.377   9.895 -1.0395 -0.2123  1.1085
 1240TIP3    H227916   2.453   3.465   9.884 -0.3491  0.5902 -0.4865
 1241TIP3   OH227917   5.039   6.358   8.086 -0.2776 -0.2370  0.3416
 1241TIP3    H127918   5.018   6.451   8.078 -2.1773 -0.6050  0.4104
 1241TIP3    H227919   5.042   6.342   8.180 -0.9410 -0.4123  0.3425
 1242TIP3   OH227920   6.958   7.159   9.211  0.4366 -0.4857 -0.4925
 1242TIP3    H127921   7.013   7.203   9.276  1.4567 -1.6889 -0.4928
 1242TIP3    H227922   6.914   7.230   9.164 -0.1023  0.4094  1.3082
 1243TIP3   OH227923   5.372   7.324   6.465  0.3769 -0.6915 -0.5523
 1243TIP3    H127924   5.413   7.267   6.399 -0.5567 -1.2450 -0.6648
 1243TIP3    H227925   5.393   7.283   6.549 -0.0974 -1.0796 -0.6203
 1244TIP3   OH227926   6.625   2.561   6.488  0.4813  0.2204  0.0667
 1244TIP3    H127927   6.672   2.487   6.450  1.9660  0.5566  1.1787
 1244TIP3    H227928   6.609   2.535   6.578  1.5230  1.4524  0.6389
 1245TIP3   OH227929   5.042   5.857   8.159 -0.1772  0.3680 -0.3870
 1245TIP3    H127930   5.118   5.911   8.138 -0.8269  1.6339  0.3065
 1245TIP3    H227931   4.981   5.919   8.200 -1.2683 -0.7673 -0.2503
 1246TIP3   OH227932   6.214   0.386   9.062 -0.1819  0.6523  0.0723
 1246TIP3    H127933   6.272   0.317   9.028  0.4065  0.6453  1.0474
 1246TIP3    H227934   6.128   0.364   9.026 -0.1581 -1.0066  0.9011
 1247TIP3   OH227935   6.973   4.725   7.794  0.0246  0.2120 -0.5109
 1247TIP3    H127936   6.890   4.773   7.785  0.7800  1.5853 -0.4474
 1247TIP3    H227937   6.967   4.684   7.880 -1.2405 -1.0447 -1.1647
 1248TIP3   OH227938   2.519   5.353   7.853  0.2650  0.1178 -0.4441
 1248TIP3    H127939   2.426   5.369   7.837  0.7510  2.4071 -1.4617
 1248TIP3    H227940   2.521   5.273   7.906 -2.3098  0.4052  0.2463
 1249TIP3   OH227941   4.083   3.159   7.565 -0.5457 -0.1492  0.2628
 1249TIP3    H127942   4.150   3.224   7.587 -0.2280  0.0017 -1.0660
 1249TIP3    H227943   4.017   3.169   7.633  1.6801 -1.7452  2.8671
 1250TIP3   OH227944   5.392   4.156   8.939 -0.3993 -0.0127  0.1370
 1250TIP3    H127945   5.327   4.140   9.008 -0.5657  0.9199  0.2102
 1250TIP3    H227946   5.355   4.229   8.888  0.1513 -0.0971 -0.3863
 1251TIP3   OH227947   0.861   3.516   9.431 -0.5517 -0.0940 -0.1462
 1251TIP3    H127948   0.859   3.472   9.346  1.4895  0.8162 -0.7288
 1251TIP3    H227949   0.811   3.597   9.416 -3.1878 -1.4621  0.5694
 1252TIP3   OH227950   6.308   0.290   7.338  0.0241  0.3067 -0.1360
 1252TIP3    H127951   6.268   0.305   7.424  0.7681  0.7901  0.1376
 1252TIP3    H227952   6.357   0.370   7.321  0.3938 -0.0415 -0.7286
 1253TIP3   OH227953   2.864   0.341   7.506  0.2516 -0.2088  0.5915
 1253TIP3    H127954   2.919   0.354   7.428  2.5449  0.6144  2.2419
 1253TIP3    H227955   2.840   0.429   7.533 -0.8337 -0.5115  0.6626
 1254TIP3   OH227956   4.877   1.658   8.598 -0.1174 -0.1464 -0.1639
 1254TIP3    H127957   4.919   1.705   8.525 -0.3489  0.7180  0.2403
 1254TIP3    H227958   4.785   1.651   8.573 -0.2555  0.4142  0.1635
 1255TIP3   OH227959   7.564   0.591   9.431  0.0657 -0.3290 -0.1897
 1255TIP3    H127960   7.540   0.563   9.342 -1.7796  0.6912 -0.0445
 1255TIP3    H227961   7.498   0.550   9.487  0.1008  0.5601  0.5055
 1256TIP3   OH227962   3.302   2.244   8.505  0.1673 -0.0043  0.0161
 1256TIP3    H127963   3.324   2.300   8.430  1.6022 -1.5227 -0.7540
 1256TIP3    H227964   3.344   2.288   8.580  0.3297  0.5250 -0.3755
 1257TIP3   OH227965   1.708   2.267   6.601 -0.1617 -0.1968 -0.1340
 1257TIP3    H127966   1.683   2.316   6.522 -0.0502 -0.0425 -0.0736
 1257TIP3    H227967   1.712   2.333   6.670  2.6759  0.2144 -0.5859
 1258TIP3   OH227968   1.613   1.752   9.685  0.1644 -0.3394 -0.5441
 1258TIP3    H127969   1.537   1.808   9.673  0.1396 -0.5171 -1.2774
 1258TIP3    H227970   1.688   1.811   9.684  0.1520 -0.3301 -1.4979
 1259TIP3   OH227971   6.854   6.963   7.316  0.0679  0.1276 -0.6137
 1259TIP3    H127972   6.888   6.903   7.249 -1.4511 -0.0018 -1.2957
 1259TIP3    H227973   6.795   7.021   7.268 -0.7857  0.2616  0.5633
 1260TIP3   OH227974   5.558   3.022   7.818  0.5040  0.4800 -0.2760
 1260TIP3    H127975   5.623   2.966   7.777  1.6584  0.2275  1.7433
 1260TIP3    H227976   5.478   2.969   7.820  0.4042  0.5233 -2.1487
 1261TIP3   OH227977   6.897   6.607   8.238 -0.5808 -0.1254  0.2080
 1261TIP3    H127978   6.898   6.553   8.317  0.3748  0.3751  0.5428
 1261TIP3    H227979   6.978   6.657   8.241 -1.3259  1.1562 -0.2262
 1262TIP3   OH227980   5.495   5.049   7.641  0.1131  0.0565 -0.5183
 1262TIP3    H127981   5.404   5.077   7.649  0.0904  0.5566 -2.0297
 1262TIP3    H227982   5.545   5.130   7.655  0.1920  0.2685 -1.8596
 1263TIP3   OH227983   3.609   0.733   8.801  0.5306 -0.7035  0.5944
 1263TIP3    H127984   3.589   0.723   8.894  0.7320  2.6836  1.1314
 1263TIP3    H227985   3.525   0.722   8.757 -0.4687  1.7733  1.6822
 1264TIP3   OH227986   2.296   4.983   8.352 -0.7593 -0.4808  0.0072
 1264TIP3    H127987   2.338   5.069   8.356 -0.5836 -0.5770  0.2525
 1264TIP3    H227988   2.329   4.936   8.428 -1.4862 -0.4838  0.3324
 1265TIP3   OH227989   6.013   6.085   8.976  0.3359 -0.3744 -0.3093
 1265TIP3    H127990   6.026   6.025   8.903 -1.5332  0.0944 -1.0980
 1265TIP3    H227991   5.919   6.105   8.973 -0.0819 -1.2776  2.9653
 1266TIP3   OH227992   4.292   1.745   8.790 -0.2115  0.1281 -0.1235
 1266TIP3    H127993   4.346   1.762   8.713  0.6179  0.2271  0.4629
 1266TIP3    H227994   4.239   1.669   8.767 -0.4497  0.5595 -1.0234
 1267TIP3   OH227995   1.331   7.344   9.261 -0.3761 -0.5635  0.0950
 1267TIP3    H127996   1.253   7.396   9.275 -0.2225 -0.6376  1.3557
 1267TIP3    H227997   1.301   7.253   9.265 -0.3468 -0.5881 -0.2115
 1268TIP3   OH227998   0.589   0.834   7.995 -0.2676  0.5686 -0.4957
 1268TIP3    H127999   0.503   0.823   8.037 -0.5746 -0.8492 -1.4140
 1268TIP3    H228000   0.574   0.900   7.927 -0.4597  0.8401 -0.1908
 1269TIP3   OH228001   6.271   3.840   8.360 -0.3565  0.1761 -0.4901
 1269TIP3    H128002   6.274   3.912   8.423 -0.4800  0.3272 -0.6549
 1269TIP3    H228003   6.197   3.786   8.389 -0.2993  0.1474 -0.3991
 1270TIP3   OH228004   2.337   2.418   8.204  0.1825  0.2298 -0.1975
 1270TIP3    H128005   2.431   2.438   8.206  0.3520 -0.4955  1.9727
 1270TIP3    H228006   2.332   2.325   8.229 -1.1276  0.3973  0.2408
 1271TIP3   OH228007   6.544   3.231   9.377 -0.0581  0.2795  0.3807
 1271TIP3    H128008   6.620   3.287   9.364  1.7884 -1.1425  3.8393
 1271TIP3    H228009   6.562   3.154   9.323 -1.0197  1.4590 -1.7745
 1272TIP3   OH228010   4.749   1.210   7.426 -0.3365  0.5132 -0.2353
 1272TIP3    H128011   4.751   1.232   7.332 -1.4774 -0.2470 -0.4593
 1272TIP3    H228012   4.828   1.159   7.440 -0.8487 -0.5893 -1.1384
 1273TIP3   OH228013   0.953   1.145   6.677 -0.0705  0.5967 -0.2040
 1273TIP3    H128014   0.941   1.113   6.588 -0.8351 -0.9056  0.3895
 1273TIP3    H228015   0.877   1.111   6.725  0.3386  1.3361  1.0255
 1274TIP3   OH228016   1.142   7.100   9.222 -0.5250 -0.1294 -0.0753
 1274TIP3    H128017   1.088   7.176   9.199 -0.0713 -0.3747 -2.0692
 1274TIP3    H228018   1.098   7.026   9.181  0.2915 -0.6143 -0.0823
 1275TIP3   OH228019   5.980   1.639   8.085 -0.1055  0.5288 -0.0153
 1275TIP3    H128020   6.013   1.563   8.038 -1.4226 -0.1410  0.0960
 1275TIP3    H228021   6.056   1.697   8.092  0.5997 -0.1883 -1.2467
 1276TIP3   OH228022   1.573   1.622   8.190  0.0212  0.9091 -0.2136
 1276TIP3    H128023   1.576   1.692   8.256  0.2490  0.5033  0.2073
 1276TIP3    H228024   1.554   1.543   8.239 -1.0319  0.7848 -0.7938
 1277TIP3   OH228025   7.288   4.819   7.953  0.0383  0.2730  0.1943
 1277TIP3    H128026   7.235   4.897   7.973 -0.3895  0.0081  0.1018
 1277TIP3    H228027   7.347   4.810   8.028  0.2208  0.7955  0.1199
 1278TIP3   OH228028   0.682   5.905   8.460 -0.1922  0.8434  0.1863
 1278TIP3    H128029   0.589   5.919   8.478 -0.2944  0.8476 -0.3161
 1278TIP3    H228030   0.711   5.842   8.527 -0.7135  0.3422 -0.0472
 1279TIP3   OH228031   0.577   4.154   8.887 -0.1365 -0.2831 -0.1941
 1279TIP3    H128032   0.511   4.149   8.956 -0.0542  0.2975 -0.0703
 1279TIP3    H228033   0.576   4.245   8.859  1.6440  0.1013  0.8198
 1280TIP3   OH228034   4.792   6.239   7.318  0.0191 -0.0764 -0.6967
 1280TIP3    H128035   4.814   6.296   7.244  0.1811 -0.2460 -0.7819
 1280TIP3    H228036   4.841   6.276   7.392  0.8122 -0.6010 -0.9436
 1281TIP3   OH228037   0.493   6.864   8.179 -0.2182  0.3527 -0.7803
 1281TIP3    H128038   0.534   6.949   8.165 -0.1350  0.0661 -2.5574
 1281TIP3    H228039   0.563   6.801   8.162  0.1533 -0.1057  2.0506
 1282TIP3   OH228040   1.351   4.008   9.392 -0.3241  0.2711  0.6114
 1282TIP3    H128041   1.408   3.951   9.339  0.9969  0.5365  1.6942
 1282TIP3    H228042   1.319   3.950   9.462 -0.0631  0.5145  0.9359
 1283TIP3   OH228043   1.685   4.015   8.652 -0.7437  0.0120  0.3315
 1283TIP3    H128044   1.752   3.962   8.694  0.2818  0.2203 -0.9598
 1283TIP3    H228045   1.664   4.084   8.715  2.7855  2.0301 -0.4258
 1284TIP3   OH228046   4.975   5.589   8.218 -0.1369  0.0382 -0.2345
 1284TIP3    H128047   5.008   5.675   8.191 -0.7591  0.3636  0.0358
 1284TIP3    H228048   4.949   5.547   8.137 -0.0557  0.1991 -0.3450
 1285TIP3   OH228049   0.679   5.025   7.243 -0.3247 -0.0560  0.0903
 1285TIP3    H128050   0.714   4.937   7.252 -0.2373  0.1052  1.4106
 1285TIP3    H228051   0.724   5.061   7.166 -0.3955 -1.1601 -0.4827
 1286TIP3   OH228052   5.270   6.044   8.113  0.6703 -0.0353  0.0154
 1286TIP3    H128053   5.304   6.124   8.153  0.1946  0.0537  0.2458
 1286TIP3    H228054   5.202   6.074   8.052 -1.0810 -0.3658  1.6939
 1287TIP3   OH228055   2.237   5.316   8.949  0.2570 -0.5279  0.1365
 1287TIP3    H128056   2.196   5.256   9.010 -1.0070 -1.0305 -1.1517
 1287TIP3    H228057   2.165   5.367   8.913  1.0056  0.0176 -0.6453
 1288TIP3   OH228058   6.410   3.737   7.174 -0.0627  0.1721 -0.6862
 1288TIP3    H128059   6.468   3.744   7.098 -0.2917 -1.4237 -1.0398
 1288TIP3    H228060   6.366   3.653   7.163 -2.1994  1.1620 -0.2478
 1289TIP3   OH228061   0.773   0.670   8.706  0.1047  0.5210 -0.0728
 1289TIP3    H128062   0.772   0.646   8.799 -0.9620 -4.0532 -1.0560
 1289TIP3    H228063   0.860   0.645   8.675 -0.0818  0.5552 -0.6327
 1290TIP3   OH228064   1.891   2.489   9.415 -0.2716  0.7936  0.9206
 1290TIP3    H128065   1.865   2.577   9.386 -0.5531  1.0858  2.0382
 1290TIP3    H228066   1.984   2.496   9.436 -0.4837  1.0366  1.7936
 1291TIP3   OH228067   0.981   4.214   8.967  0.3534  0.1257  0.7848
 1291TIP3    H128068   0.914   4.249   8.908  0.8237  0.1553  0.2505
 1291TIP3    H228069   1.033   4.291   8.993  2.3898 -0.2715 -1.6653
 1292TIP3   OH228070   1.647   1.815   8.480 -0.1299  0.2203 -0.5732
 1292TIP3    H128071   1.652   1.894   8.534  0.6730  0.1655 -0.5622
 1292TIP3    H228072   1.629   1.848   8.392 -2.1811  0.2722 -0.1882
 1293TIP3   OH228073   6.401   2.823   8.173 -0.2313  0.5703  0.4488
 1293TIP3    H128074   6.430   2.837   8.263  0.3906  3.1211 -0.0617
 1293TIP3    H228075   6.308   2.803   8.180 -0.4726  1.9787  1.6182
 1294TIP3   OH228076   2.238   7.374   9.392  0.0491 -0.4227  0.3406
 1294TIP3    H128077   2.280   7.357   9.476  1.2517  0.1176 -0.1320
 1294TIP3    H228078   2.288   7.445   9.354 -0.3270 -0.8218 -0.9476
 1295TIP3   OH228079   6.263   5.787   7.880 -0.5764 -0.2840 -0.2805
 1295TIP3    H128080   6.187   5.827   7.838 -0.5973  0.3546  0.3597
 1295TIP3    H228081   6.335   5.847   7.862 -1.0335  1.2678  2.5419
 1296TIP3   OH228082   5.721   2.929   6.792 -0.0635  0.1900  0.6454
 1296TIP3    H128083   5.787   2.864   6.769 -0.6489  0.1315 -0.9912
 1296TIP3    H228084   5.772   3.006   6.821  0.8095  0.6102 -1.8075
 1297TIP3   OH228085   3.520   6.442   8.960  0.2061 -0.4271  0.3131
 1297TIP3    H128086   3.445   6.420   9.014 -0.3263 -3.7076 -1.4919
 1297TIP3    H228087   3.497   6.525   8.919 -1.9831 -0.8276  0.6265
 1298TIP3   OH228088   4.787   7.371   7.351  0.2141 -0.5537  0.0725
 1298TIP3    H128089   4.747   7.393   7.266 -2.0429 -0.9518  0.9497
 1298TIP3    H228090   4.740   7.293   7.380  2.4141 -1.7016  0.7636
 1299TIP3   OH228091   1.094   3.429   7.256 -0.0216  0.1336 -0.0702
 1299TIP3    H128092   1.019   3.374   7.232  0.5517 -0.4574 -0.5135
 1299TIP3    H228093   1.168   3.391   7.210  0.7606  0.0751  1.1934
 1300TIP3   OH228094   6.391   7.161   7.762  0.0231  0.2256 -0.2530
 1300TIP3    H128095   6.400   7.159   7.858 -0.6589 -0.3349 -0.1906
 1300TIP3    H228096   6.384   7.069   7.737  2.0882  0.2512 -1.0587
 1301TIP3   OH228097   7.413   0.466   8.014 -0.0954 -0.1393  0.2253
 1301TIP3    H128098   7.340   0.445   7.955  1.5628  2.1713 -2.9842
 1301TIP3    H228099   7.372   0.514   8.086 -1.9280  0.1348 -0.9033
 1302TIP3   OH228100   4.910   1.153   8.390  0.1121 -0.2326  0.2482
 1302TIP3    H128101   4.972   1.150   8.317 -1.1963 -0.4098 -0.8882
 1302TIP3    H228102   4.948   1.216   8.451  1.1391  0.0531 -0.6617
 1303TIP3   OH228103   6.233   2.556   8.649 -0.4235 -0.3642  0.2290
 1303TIP3    H128104   6.295   2.628   8.660  0.1001 -0.2965 -2.3383
 1303TIP3    H228105   6.245   2.502   8.727  0.2702  1.5055  1.4953
 1304TIP3   OH228106   6.032   3.585   7.659 -1.1252 -0.4509  0.0606
 1304TIP3    H128107   6.078   3.623   7.734 -1.5502 -0.8686  0.5354
 1304TIP3    H228108   6.012   3.660   7.603 -0.1497 -0.2234 -0.0041
 1305TIP3   OH228109   6.156   0.570   8.822  0.6578 -0.0948 -0.2080
 1305TIP3    H128110   6.197   0.543   8.740 -0.6569 -0.3430 -0.8039
 1305TIP3    H228111   6.215   0.537   8.891  2.4010  1.1326 -1.0340
 1306TIP3   OH228112   2.375   4.605   7.742 -0.4074  0.4497  0.0925
 1306TIP3    H128113   2.463   4.596   7.704 -0.7467 -0.3224 -0.5427
 1306TIP3    H228114   2.328   4.661   7.679 -0.5311  0.3971  0.1382
 1307TIP3   OH228115   2.395   4.706   9.688  0.2624  0.5851  0.1391
 1307TIP3    H128116   2.331   4.777   9.683 -0.5423 -0.1538 -0.3598
 1307TIP3    H228117   2.479   4.749   9.674 -0.3507  1.2319 -2.0425
 1308TIP3   OH228118   1.624   4.109   7.679 -0.4639 -0.2214 -0.3515
 1308TIP3    H128119   1.614   4.042   7.611 -1.1417  0.0244 -0.4996
 1308TIP3    H228120   1.703   4.083   7.726 -0.8431 -1.2712 -0.2561
 1309TIP3   OH228121   5.206   0.436   8.132  0.5566 -0.5056  0.6123
 1309TIP3    H128122   5.293   0.416   8.165  1.2338  1.1603 -0.0380
 1309TIP3    H228123   5.158   0.353   8.138  2.7440 -1.9853 -0.7842
 1310TIP3   OH228124   7.439   7.274   7.133 -0.2742  0.6465  0.1448
 1310TIP3    H128125   7.404   7.215   7.067 -0.1206  1.3023 -0.5408
 1310TIP3    H228126   7.393   7.251   7.213 -1.1426  0.4477 -0.3961
 1311TIP3   OH228127   3.129   6.339   8.799 -0.3019  0.0033  0.2874
 1311TIP3    H128128   3.045   6.384   8.792 -1.3365 -1.9680 -0.8814
 1311TIP3    H228129   3.194   6.407   8.781 -1.7589  1.1002 -1.1428
 1312TIP3   OH228130   2.763   4.609   8.692  0.4565 -0.1655  0.1523
 1312TIP3    H128131   2.672   4.637   8.685  0.1519 -1.0704  0.3596
 1312TIP3    H228132   2.812   4.689   8.708 -0.6564  0.0004  3.3699
 1313TIP3   OH228133   6.598   5.375   8.653  0.4227 -0.3352  0.9529
 1313TIP3    H128134   6.536   5.447   8.668  0.3645 -0.0956 -0.3768
 1313TIP3    H228135   6.542   5.297   8.652  0.2434 -0.2026  0.5303
 1314TIP3   OH228136   4.965   7.523   8.125 -0.3203 -0.0653  0.4055
 1314TIP3    H128137   4.905   7.534   8.051  0.0619  1.2590  0.2617
 1314TIP3    H228138   4.915   7.552   8.202 -0.4529 -0.6745  0.5508
 1315TIP3   OH228139   3.493   3.837   7.984  0.3280 -1.0700 -0.3770
 1315TIP3    H128140   3.435   3.913   7.994  1.0246 -0.4680 -0.8148
 1315TIP3    H228141   3.512   3.810   8.074  1.0152  0.0144 -0.1746
 1316TIP3   OH228142   6.917   5.160   8.586  0.4119 -0.0396 -0.4246
 1316TIP3    H128143   6.884   5.246   8.558 -1.5120 -0.3457  0.7032
 1316TIP3    H228144   6.926   5.168   8.681  1.3737 -0.7383 -0.4406
 1317TIP3   OH228145   2.833   5.494   8.458  0.2963 -0.7207  0.2817
 1317TIP3    H128146   2.743   5.507   8.488  0.0019 -0.5727 -0.6386
 1317TIP3    H228147   2.886   5.549   8.516 -0.4093  0.7104 -0.3767
 1318TIP3   OH228148   4.662   3.895   7.926  0.4499  0.0307  0.6890
 1318TIP3    H128149   4.673   3.915   8.019 -0.5543  0.1775  0.7958
 1318TIP3    H228150   4.617   3.972   7.890  0.9249  0.0201  0.0541
 1319TIP3   OH228151   5.585   6.649   7.655 -0.2717  0.4133  0.3581
 1319TIP3    H128152   5.605   6.736   7.689 -1.0663  1.4356 -1.6387
 1319TIP3    H228153   5.629   6.645   7.570 -1.8567 -0.3385 -0.4777
 1320TIP3   OH228154   0.462   4.527   9.071 -0.4246 -0.1603 -0.1142
 1320TIP3    H128155   0.461   4.599   9.134  0.3009  0.0378 -0.3134
 1320TIP3    H228156   0.499   4.454   9.120  0.0504 -0.0326 -0.2750
 1321TIP3   OH228157   1.221   0.657   9.714  0.3799  0.1180 -0.3673
 1321TIP3    H128158   1.292   0.641   9.776  0.6829 -0.9506 -0.9765
 1321TIP3    H228159   1.150   0.599   9.743  0.4057 -0.1456 -0.8385
 1322TIP3   OH228160   4.142   6.289   6.581 -0.2094  0.4736 -0.0639
 1322TIP3    H128161   4.055   6.321   6.604 -0.3261 -0.2887  0.5954
 1322TIP3    H228162   4.126   6.222   6.515 -0.0364  1.0151 -0.6747
 1323TIP3   OH228163   5.139   2.316   8.533  0.5558  0.0104  0.1972
 1323TIP3    H128164   5.097   2.383   8.587 -0.2879  0.0883 -0.5297
 1323TIP3    H228165   5.072   2.248   8.524  0.5456  0.1542 -1.0155
 1324TIP3   OH228166   3.094   1.592   8.726 -0.2398  0.1154 -0.2821
 1324TIP3    H128167   3.007   1.577   8.688 -0.2603 -1.3174  0.2726
 1324TIP3    H228168   3.108   1.518   8.785  2.1069 -0.7167 -1.7180
 1325TIP3   OH228169   5.049   6.467   6.485  0.2303  0.1469 -0.1645
 1325TIP3    H128170   5.004   6.432   6.563  0.8258 -0.8782 -0.2658
 1325TIP3    H228171   5.132   6.420   6.483  1.4940  2.2644  0.2072
 1326TIP3   OH228172   3.808   1.833   8.515 -0.6029 -0.5768  0.2280
 1326TIP3    H128173   3.728   1.885   8.525 -0.1807 -0.0261  0.8065
 1326TIP3    H228174   3.803   1.798   8.426 -0.5855  1.0072 -0.4324
 1327TIP3   OH228175   2.110   1.139   8.738 -0.0297  0.1940 -0.8962
 1327TIP3    H128176   2.080   1.201   8.671  1.2059  2.8471  0.8111
 1327TIP3    H228177   2.060   1.163   8.816  0.4338 -1.0444 -0.2043
 1328TIP3   OH228178   3.121   4.601   9.596  0.1482  0.3568  0.6688
 1328TIP3    H128179   3.114   4.628   9.505  2.2487 -0.3525  0.2436
 1328TIP3    H228180   3.031   4.581   9.622 -0.4379  0.0458 -1.4068
 1329TIP3   OH228181   5.094   7.299   9.724  0.1375  0.1745 -0.0588
 1329TIP3    H128182   5.137   7.385   9.726  0.0742  0.1956  0.6727
 1329TIP3    H228183   5.135   7.253   9.650  2.1296 -0.1680  1.1798
 1330TIP3   OH228184   1.937   1.528   9.620 -0.1141  0.7156 -0.0390
 1330TIP3    H128185   1.949   1.567   9.533 -1.4763 -0.9457 -1.0542
 1330TIP3    H228186   1.843   1.512   9.625  0.1282 -0.4166  1.2218
 1331TIP3   OH228187   1.235   0.056   8.501 -0.3051 -0.2586  0.2080
 1331TIP3    H128188   1.175  -0.010   8.467 -0.1645  0.3454 -1.2994
 1331TIP3    H228189   1.200   0.079   8.587 -0.6940 -1.8420  0.5000
 1332TIP3   OH228190   3.305   3.845   8.324  0.1984 -0.0463  0.3100
 1332TIP3    H128191   3.310   3.896   8.243 -4.4845  1.4035  0.6526
 1332TIP3    H228192   3.328   3.908   8.392  0.6324 -0.2547  0.3597
 1333TIP3   OH228193   3.092   6.665   7.249  0.6950 -0.2905 -0.7315
 1333TIP3    H128194   3.149   6.656   7.172  0.8805  0.6841 -0.7225
 1333TIP3    H228195   3.082   6.759   7.260  0.1904 -0.4340  0.0957
 1334TIP3   OH228196   0.767   1.152   9.248  0.2939  0.0220  0.2180
 1334TIP3    H128197   0.861   1.167   9.263  0.3906 -0.8021  0.4899
 1334TIP3    H228198   0.752   1.063   9.279 -0.0186 -0.8504 -2.2193
 1335TIP3   OH228199   4.994   6.630   8.104 -0.3251 -0.4662 -0.8986
 1335TIP3    H128200   4.946   6.707   8.075 -0.9405 -0.7450 -0.6515
 1335TIP3    H228201   5.082   6.662   8.124 -0.7955  0.3323 -0.0233
 1336TIP3   OH228202   2.462   7.244   8.582 -0.2206  0.0905 -0.3972
 1336TIP3    H128203   2.455   7.178   8.651 -0.5220 -0.3162 -0.8169
 1336TIP3    H228204   2.391   7.306   8.601  1.2746  1.4100  1.1679
 1337TIP3   OH228205   1.641   7.062   7.899 -0.2014  0.4962 -0.0911
 1337TIP3    H128206   1.590   7.119   7.841  0.6439  2.3466  0.8972
 1337TIP3    H228207   1.732   7.089   7.884  0.3565 -1.3713 -0.3652
 1338TIP3   OH228208   5.816   5.830   8.517  0.5819 -0.1405  0.5834
 1338TIP3    H128209   5.867   5.849   8.438 -1.7086  1.4469 -0.6347
 1338TIP3    H228210   5.756   5.761   8.490 -0.8716  1.0840  0.6001
 1339TIP3   OH228211   1.277   4.581   8.044  0.2908  0.0323 -0.6468
 1339TIP3    H128212   1.357   4.631   8.028  0.4226  0.2916  0.6438
 1339TIP3    H228213   1.270   4.520   7.971  0.4118  1.5794 -2.0062
 1340TIP3   OH228214   3.844   1.988   9.261 -0.3921  0.0647 -0.1433
 1340TIP3    H128215   3.777   2.052   9.284  1.9417  2.9933 -0.8813
 1340TIP3    H228216   3.829   1.970   9.168  0.3685  1.5263 -0.5861
 1341TIP3   OH228217   0.212   2.616   8.373 -0.5384  0.1012 -0.0082
 1341TIP3    H128218   0.268   2.618   8.296 -0.4486 -2.8390 -0.1515
 1341TIP3    H228219   0.263   2.660   8.441  1.0244 -0.5508 -0.6991
 1342TIP3   OH228220   6.871   2.550   6.665  0.0057 -0.3088 -0.1578
 1342TIP3    H128221   6.845   2.598   6.586 -3.0055  0.1318  0.9746
 1342TIP3    H228222   6.790   2.508   6.695  1.4722 -2.0206  1.6697
 1343TIP3   OH228223   1.065   0.865   7.817  0.4277 -0.4559 -0.8412
 1343TIP3    H128224   1.037   0.841   7.906 -0.8787  1.7037 -0.6045
 1343TIP3    H228225   1.016   0.805   7.760 -0.0983 -0.6821 -0.1687
 1344TIP3   OH228226   0.625   1.396   7.957 -1.4594  0.0054 -0.4582
 1344TIP3    H128227   0.549   1.387   7.899 -2.5110  1.7425  0.5602
 1344TIP3    H228228   0.700   1.391   7.899 -2.4219  0.1442 -1.7691
 1345TIP3   OH228229   2.100   0.367   9.609  0.3493  0.5571 -0.2817
 1345TIP3    H128230   2.019   0.339   9.652  0.9395 -2.0442 -0.6853
 1345TIP3    H228231   2.101   0.462   9.619 -2.8337  0.7011 -0.4572
 1346TIP3   OH228232   4.646   5.695   7.869 -0.4062  0.2512 -0.1313
 1346TIP3    H128233   4.687   5.689   7.956  0.2585  0.6015 -0.4124
 1346TIP3    H228234   4.708   5.651   7.810 -0.1523  1.2911 -0.6543
 1347TIP3   OH228235   1.004   4.637   8.689  0.3511 -0.0318 -0.0596
 1347TIP3    H128236   0.935   4.579   8.722 -0.3070  0.6026 -0.2825
 1347TIP3    H228237   0.961   4.689   8.621  0.8082  1.0097  0.4252
 1348TIP3   OH228238   5.664   4.272   8.903 -0.4896 -0.3870 -0.0174
 1348TIP3    H128239   5.754   4.294   8.926 -0.9302  0.3259  1.0729
 1348TIP3    H228240   5.632   4.223   8.978 -0.9956 -0.7036 -0.4360
 1349TIP3   OH228241   6.247   6.014   8.769 -1.1016  0.1638 -0.6960
 1349TIP3    H128242   6.181   5.945   8.777 -0.8309  0.1358  2.3544
 1349TIP3    H228243   6.197   6.094   8.755 -1.5928 -0.2247 -1.2353
 1350TIP3   OH228244   7.284   5.597   8.749 -0.6434 -0.4965 -0.2903
 1350TIP3    H128245   7.193   5.590   8.779 -0.3915  0.5812  0.7911
 1350TIP3    H228246   7.278   5.635   8.662 -1.5031 -5.1806 -2.6193
 1351TIP3   OH228247   6.710   2.023   9.288  0.0627 -0.4214  0.0833
 1351TIP3    H128248   6.761   1.942   9.291  0.4737 -0.4181 -3.2699
 1351TIP3    H228249   6.622   1.994   9.266 -0.3530 -0.0684  1.2054
 1352TIP3   OH228250   3.592   5.980   8.619 -1.0203  0.1875  0.0846
 1352TIP3    H128251   3.684   6.006   8.624 -0.5061 -1.2332 -1.0350
 1352TIP3    H228252   3.590   5.891   8.655 -1.7768 -0.1486 -0.7330
 1353TIP3   OH228253   6.253   1.034   8.402 -0.1230 -0.0886 -0.6449
 1353TIP3    H128254   6.232   1.123   8.371 -0.9978 -0.4015 -0.9814
 1353TIP3    H228255   6.179   1.010   8.456 -0.3645 -0.9910 -1.3543
 1354TIP3   OH228256   1.645   3.417   8.262 -0.9647  0.3828 -0.0768
 1354TIP3    H128257   1.699   3.457   8.193 -0.8576 -0.8164 -0.7181
 1354TIP3    H228258   1.615   3.491   8.315  1.6500  1.0826  0.5756
 1355TIP3   OH228259   1.326   5.620   9.225 -0.0415  0.0728 -0.2142
 1355TIP3    H128260   1.355   5.710   9.215  1.2186 -0.3213 -0.4007
 1355TIP3    H228261   1.391   5.569   9.176  0.9784 -1.1566  2.2170
 1356TIP3   OH228262   1.859   7.153   7.120  0.4049  0.2066  0.4907
 1356TIP3    H128263   1.949   7.171   7.146  0.4289  2.2286 -0.7730
 1356TIP3    H228264   1.858   7.164   7.024 -1.5787  2.5582  0.6565
 1357TIP3   OH228265   5.415   2.496   7.235 -0.4717  0.1852  0.2855
 1357TIP3    H128266   5.414   2.592   7.233 -0.5049  0.1865  0.3503
 1357TIP3    H228267   5.433   2.475   7.327  2.8653  0.1438 -0.2394
 1358TIP3   OH228268   7.459   3.898   7.459  0.6655 -0.8287  0.3432
 1358TIP3    H128269   7.437   3.889   7.367 -1.9929  2.6216  0.4109
 1358TIP3    H228270   7.554   3.910   7.460  0.6627 -0.0807 -2.0610
 1359TIP3   OH228271   2.088   5.976   6.861  0.3752 -0.0379  0.0679
 1359TIP3    H128272   2.138   6.000   6.783  0.4436  0.2018  0.1826
 1359TIP3    H228273   2.089   6.056   6.915 -0.8278  0.2372 -0.2899
 1360TIP3   OH228274   7.398   6.412   7.733  0.3912  0.1523 -0.3796
 1360TIP3    H128275   7.462   6.460   7.681 -0.6958 -0.9843 -2.9263
 1360TIP3    H228276   7.317   6.462   7.724  0.2897  0.2122  0.7043
 1361TIP3   OH228277   7.019   6.414   8.032 -0.2381  0.4282  0.0263
 1361TIP3    H128278   6.926   6.434   8.021 -0.2128  0.4205 -0.1912
 1361TIP3    H228279   7.033   6.422   8.127  0.0791  2.7646 -0.1665
 1362TIP3   OH228280   6.605   1.545   8.839 -0.0809 -0.1791 -0.3826
 1362TIP3    H128281   6.659   1.548   8.918 -1.7683  1.0755  0.7989
 1362TIP3    H228282   6.621   1.458   8.803  1.3024 -0.5134  0.9165
 1363TIP3   OH228283   0.727   2.669   9.107 -0.1310  0.0673  0.0200
 1363TIP3    H128284   0.816   2.668   9.072 -0.3482  0.5648 -0.5492
 1363TIP3    H228285   0.672   2.639   9.035 -0.7598  2.5495 -0.6352
 1364TIP3   OH228286   6.246   6.273   9.044 -0.3843 -0.3274 -0.2660
 1364TIP3    H128287   6.324   6.226   9.015  0.3257  0.2139  0.7390
 1364TIP3    H228288   6.174   6.210   9.030  0.0955 -0.5449 -1.9317
 1365TIP3   OH228289   3.508   1.301   8.511  0.0584 -0.4782  0.1050
 1365TIP3    H128290   3.448   1.374   8.528 -0.5848 -0.9452 -0.1160
 1365TIP3    H228291   3.504   1.288   8.417  1.1484  0.0131 -0.0262
 1366TIP3   OH228292   1.132   5.930   8.229 -0.1914 -0.0755 -0.0713
 1366TIP3    H128293   1.164   5.894   8.312 -1.3523 -2.2035 -0.4615
 1366TIP3    H228294   1.039   5.910   8.228 -0.7073  2.1211 -0.8430
 1367TIP3   OH228295   0.182   3.571   8.384 -0.0326 -0.2300  1.0202
 1367TIP3    H128296   0.109   3.592   8.442 -0.4173  0.2727  0.3715
 1367TIP3    H228297   0.140   3.547   8.301  0.5565  1.0198  0.3330
 1368TIP3   OH228298   6.575   0.615   8.511  0.2664 -0.2773  0.0914
 1368TIP3    H128299   6.535   0.648   8.431 -0.1985  0.9573  0.8002
 1368TIP3    H228300   6.667   0.639   8.504  0.4564 -1.1507 -0.5502
 1369TIP3   OH228301   4.814   3.222   8.113  0.3303 -0.5359 -0.1247
 1369TIP3    H128302   4.779   3.255   8.196  2.2812  1.0489  0.1557
 1369TIP3    H228303   4.854   3.138   8.136 -0.1275 -0.6442  0.2960
 1370TIP3   OH228304   6.181   0.052   7.980 -0.0911 -0.8117 -0.0499
 1370TIP3    H128305   6.086   0.054   7.979 -0.0945 -0.9643 -0.4165
 1370TIP3    H228306   6.205   0.024   7.892  0.3122 -0.0255 -0.2045
 1371TIP3   OH228307   3.293   0.254   8.311  0.7296  0.4040  0.1453
 1371TIP3    H128308   3.215   0.226   8.357 -0.3697  2.0420 -0.6016
 1371TIP3    H228309   3.364   0.246   8.375 -0.3571  0.5594  1.4020
 1372TIP3   OH228310   3.807   3.898   7.967 -0.1445  0.3694 -0.8416
 1372TIP3    H128311   3.722   3.858   7.988 -0.6779  1.5558 -0.6753
 1372TIP3    H228312   3.864   3.868   8.038 -0.5152 -0.1191 -0.7332
 1373TIP3   OH228313   1.619   1.232   8.851 -0.3942 -0.0626  0.0968
 1373TIP3    H128314   1.560   1.169   8.891 -0.7337 -0.3682 -0.8607
 1373TIP3    H228315   1.696   1.234   8.909 -0.6289 -0.9120  0.4420
 1374TIP3   OH228316   5.700   5.973   7.742  0.1903  0.0134  0.3702
 1374TIP3    H128317   5.718   5.909   7.811  1.0452  0.2752  0.4084
 1374TIP3    H228318   5.631   5.933   7.689  1.8279 -1.7353 -0.6034
 1375TIP3   OH228319   5.178   7.254   7.218 -0.0889 -0.4158 -0.3020
 1375TIP3    H128320   5.135   7.283   7.137  2.0534  0.2184 -1.3067
 1375TIP3    H228321   5.216   7.169   7.196  1.9622  0.5161 -0.5911
 1376TIP3   OH228322   0.401   1.074   6.837  0.3971 -0.3226  0.3019
 1376TIP3    H128323   0.437   0.997   6.794 -0.9477 -1.3840  0.9945
 1376TIP3    H228324   0.316   1.086   6.797 -0.2334 -0.4191  1.5696
 1377TIP3   OH228325   0.543   0.657   9.500 -0.2093 -0.2648  0.4294
 1377TIP3    H128326   0.478   0.623   9.439 -0.0802  0.5834 -0.1975
 1377TIP3    H228327   0.541   0.752   9.487  1.5663 -0.2589 -0.0586
 1378TIP3   OH228328   2.062   0.853   7.608 -0.4662  0.4323  0.3820
 1378TIP3    H128329   2.071   0.949   7.611  1.3831  0.2756  1.8905
 1378TIP3    H228330   2.037   0.828   7.696  1.9780 -0.6418  0.8581
 1379TIP3   OH228331   1.101   6.684   7.158  0.3413 -0.1116  0.0783
 1379TIP3    H128332   1.171   6.726   7.207  0.4331  1.2892 -1.1758
 1379TIP3    H228333   1.144   6.644   7.083 -0.2066  1.2421 -1.0114
 1380TIP3   OH228334   3.994   7.143   8.462  0.2418 -0.8737 -0.4034
 1380TIP3    H128335   4.065   7.179   8.515 -0.5318  1.3605 -0.7782
 1380TIP3    H228336   3.961   7.218   8.413 -1.3384 -2.1888 -1.4251
 1381TIP3   OH228337   0.215   1.969   9.572  0.2094 -0.1771  0.3802
 1381TIP3    H128338   0.151   1.934   9.509 -0.0578 -0.6293  0.8982
 1381TIP3    H228339   0.267   1.893   9.599  1.2298  0.2437 -0.3187
 1382TIP3   OH228340   0.214   2.754   6.860  0.2189  0.3324  0.0922
 1382TIP3    H128341   0.294   2.722   6.817 -0.2725  0.3436 -0.8583
 1382TIP3    H228342   0.181   2.821   6.800 -0.7285  0.0308  0.2747
 1383TIP3   OH228343   0.520   1.759   6.861  0.5512 -0.1263 -0.0634
 1383TIP3    H128344   0.482   1.673   6.875  0.3161 -0.1093 -0.5676
 1383TIP3    H228345   0.609   1.742   6.831  0.1346 -0.2371 -1.3067
 1384TIP3   OH228346   1.543   2.198   8.252  0.4633  0.7458 -0.1493
 1384TIP3    H128347   1.528   2.241   8.337  3.7985  3.7905 -0.8317
 1384TIP3    H228348   1.494   2.250   8.189 -0.7573 -0.5686 -0.3280
 1385TIP3   OH228349   5.731   3.121   8.874  0.2335 -0.3802 -0.5668
 1385TIP3    H128350   5.750   3.082   8.959  0.5804 -0.0244 -0.4748
 1385TIP3    H228351   5.774   3.207   8.877 -1.4773  0.5117 -0.3223
 1386TIP3   OH228352   4.822   7.328   9.027 -0.9112  0.1213 -0.3570
 1386TIP3    H128353   4.790   7.412   9.059 -0.6767 -0.3105  1.0580
 1386TIP3    H228354   4.743   7.276   9.013 -1.0276  0.4004 -0.7627
 1387TIP3   OH228355   3.920   0.002   7.508  0.5803  0.3439  0.4091
 1387TIP3    H128356   3.829   0.030   7.495  0.4137 -0.3996 -0.0582
 1387TIP3    H228357   3.971   0.059   7.450  0.3594  0.4114  0.2820
 1388TIP3   OH228358   2.670   1.351   8.947  0.0348 -0.5679  0.6651
 1388TIP3    H128359   2.610   1.419   8.977 -1.0577  0.6571 -3.5846
 1388TIP3    H228360   2.627   1.269   8.968 -1.4048  0.2176  0.8932
 1389TIP3   OH228361   5.031   0.276   7.151 -0.3578 -0.0914 -0.1973
 1389TIP3    H128362   4.986   0.260   7.067  1.7178 -2.4611 -0.9766
 1389TIP3    H228363   5.114   0.315   7.127 -0.7597  1.6270  1.0226
 1390TIP3   OH228364   2.522   2.960   6.932  0.3462 -0.0683 -0.1031
 1390TIP3    H128365   2.452   2.942   6.869  1.0578 -0.0368 -0.9157
 1390TIP3    H228366   2.568   2.876   6.940 -0.1701 -0.2662  0.9294
 1391TIP3   OH228367   3.847   0.725   7.637 -0.3424  0.1681 -0.5541
 1391TIP3    H128368   3.766   0.774   7.642 -0.3490  0.2798 -1.5933
 1391TIP3    H228369   3.823   0.643   7.595 -0.1137 -0.2512  0.1193
 1392TIP3   OH228370   3.928   7.082   7.915 -0.5837 -0.4313  0.0765
 1392TIP3    H128371   3.919   7.174   7.939 -1.9082  0.2021 -2.4584
 1392TIP3    H228372   4.004   7.079   7.858 -1.0873 -0.7200 -0.5932
 1393TIP3   OH228373   2.453   1.561   8.376  0.0303 -0.0754  0.9539
 1393TIP3    H128374   2.510   1.600   8.310 -0.2725 -1.6346 -0.3039
 1393TIP3    H228375   2.504   1.488   8.412 -0.7911 -0.9372  0.4423
 1394TIP3   OH228376   7.477   3.504   7.135  0.6870 -0.2234 -0.4602
 1394TIP3    H128377   7.394   3.529   7.094  1.2267  1.1081 -0.7975
 1394TIP3    H228378   7.538   3.495   7.062  1.9020  3.1040 -0.0419
 1395TIP3   OH228379   7.511   6.874   8.207 -0.5565 -0.3749  0.0037
 1395TIP3    H128380   7.601   6.875   8.175  0.9739 -0.8812  3.6824
 1395TIP3    H228381   7.473   6.796   8.168  0.2407  0.3591 -2.3734
 1396TIP3   OH228382   3.011   2.521   6.910  0.2717 -0.1557 -0.1479
 1396TIP3    H128383   3.024   2.549   7.001 -1.8175 -1.2211  0.5400
 1396TIP3    H228384   3.064   2.442   6.901 -1.6969 -1.7211  1.1163
 1397TIP3   OH228385   6.435   4.440   7.959  0.1015 -0.2881  0.8987
 1397TIP3    H128386   6.386   4.463   8.038 -3.9045 -1.1394 -1.0534
 1397TIP3    H228387   6.408   4.351   7.939  0.9758 -0.1052 -1.3834
 1398TIP3   OH228388   6.760   3.924   9.328 -0.5988  0.1665 -0.3772
 1398TIP3    H128389   6.702   3.851   9.352 -1.0827  0.4250 -0.7474
 1398TIP3    H228390   6.703   3.987   9.285 -0.4325  1.3816  1.1419
 1399TIP3   OH228391   2.382   1.870   7.191 -0.2611 -0.3510  0.4106
 1399TIP3    H128392   2.336   1.950   7.164  0.4216  0.7999  2.4444
 1399TIP3    H228393   2.448   1.857   7.123 -0.1906  0.9855  0.1844
 1400TIP3   OH228394   7.012   1.220   8.430  0.0874  0.4796  0.7922
 1400TIP3    H128395   6.952   1.241   8.359  0.5394  0.6966  0.4672
 1400TIP3    H228396   7.074   1.158   8.392 -0.2207 -0.1366  1.2674
 1401TIP3   OH228397   0.006   5.744   8.451 -0.9929 -0.5727  0.3115
 1401TIP3    H128398  -0.021   5.709   8.536  1.4701 -0.8689  1.0389
 1401TIP3    H228399  -0.042   5.690   8.388 -1.9991 -1.1123  1.4764
 1402TIP3   OH228400   1.122   6.546   6.823 -0.4326 -0.3039  0.1224
 1402TIP3    H128401   1.157   6.477   6.880 -1.3161 -2.3866 -1.7426
 1402TIP3    H228402   1.122   6.508   6.736 -0.3824  2.3228 -1.1189
 1403TIP3   OH228403   0.471   0.152   8.713  0.3335 -0.0171  0.3394
 1403TIP3    H128404   0.476   0.194   8.627 -1.3339  0.5483  0.4848
 1403TIP3    H228405   0.514   0.067   8.701  2.4159  1.0458 -0.3585
 1404TIP3   OH228406   2.868   2.518   8.774 -0.4211 -0.1163  0.6568
 1404TIP3    H128407   2.933   2.452   8.751 -0.1238 -0.4212  2.2649
 1404TIP3    H228408   2.784   2.478   8.751 -0.0999  0.7728 -2.6675
 1405TIP3   OH228409   6.513   1.883   8.754 -0.2171  0.2791 -0.3456
 1405TIP3    H128410   6.558   1.913   8.833 -2.3336  2.0979  0.2760
 1405TIP3    H228411   6.578   1.829   8.708  1.1154 -0.8074  2.5709
 1406TIP3   OH228412   4.667   6.448   7.112 -0.6064  0.0159  0.0362
 1406TIP3    H128413   4.755   6.445   7.074  0.3179  0.9982  1.9776
 1406TIP3    H228414   4.613   6.399   7.049  1.1211  0.1244 -1.6502
 1407TIP3   OH228415   5.550   5.500   9.515 -0.2048 -0.4648  0.0277
 1407TIP3    H128416   5.557   5.425   9.457 -0.5482 -0.6947  0.2805
 1407TIP3    H228417   5.516   5.464   9.597  2.7079 -0.6012  1.2816
 1408TIP3   OH228418   1.606   1.939   8.208  0.4852  0.2460  0.4323
 1408TIP3    H128419   1.563   2.024   8.219 -0.9066 -0.5860  1.6901
 1408TIP3    H228420   1.616   1.929   8.113 -1.2555  0.8792  0.1578
 1409TIP3   OH228421   2.695   3.360   7.219 -0.2689  0.3040 -0.7797
 1409TIP3    H128422   2.662   3.439   7.177 -0.4064  0.1029 -1.0533
 1409TIP3    H228423   2.695   3.294   7.150  1.9593  0.6270 -1.1578
 1410TIP3   OH228424   2.076   4.272   9.589  0.0250 -0.3723  0.3554
 1410TIP3    H128425   2.086   4.327   9.511  0.0736 -1.0213 -0.1124
 1410TIP3    H228426   2.011   4.207   9.563  0.2378 -0.7515  0.7681
 1411TIP3   OH228427   1.086   6.024   8.647  0.3700  0.5407  0.1803
 1411TIP3    H128428   1.052   5.939   8.674 -0.1535 -0.1932 -2.4721
 1411TIP3    H228429   1.015   6.085   8.667 -0.3282 -0.0980 -0.2997
 1412TIP3   OH228430   2.233   3.271   9.044 -0.6060  0.7094  0.4015
 1412TIP3    H128431   2.247   3.353   9.090 -0.3238  0.9847 -0.1618
 1412TIP3    H228432   2.300   3.212   9.078 -0.8004  0.7085  0.7946
 1413TIP3   OH228433   4.411   0.079   8.320 -0.3407 -0.0762 -0.1903
 1413TIP3    H128434   4.455   0.164   8.314 -0.6668  0.1839  0.9880
 1413TIP3    H228435   4.328   0.098   8.362 -0.3812 -1.0016  0.1616
 1414TIP3   OH228436   1.678   3.360   7.191 -0.2680  0.2971 -0.1107
 1414TIP3    H128437   1.691   3.350   7.097 -1.1564 -0.3217 -0.1768
 1414TIP3    H228438   1.667   3.454   7.204 -0.6953  0.3286 -0.6965
 1415TIP3   OH228439   0.327   5.831   9.282  0.6892 -0.2784 -0.2852
 1415TIP3    H128440   0.371   5.862   9.203  0.4140 -1.6007 -0.9836
 1415TIP3    H228441   0.276   5.906   9.312  0.6531  0.1877 -1.4644
 1416TIP3   OH228442   1.821   5.071   7.589 -0.2431 -0.2666 -0.0231
 1416TIP3    H128443   1.911   5.044   7.610 -0.6127 -0.4408  1.4703
 1416TIP3    H228444   1.817   5.069   7.494  0.6229 -2.6821 -0.0945
 1417TIP3   OH228445   0.855   2.650   8.541  0.5292 -0.0055 -0.2910
 1417TIP3    H128446   0.807   2.601   8.608  0.8778  0.6039  0.4321
 1417TIP3    H228447   0.867   2.588   8.470 -1.2845 -0.1943 -0.4903
 1418TIP3   OH228448   6.295   3.471   7.171  0.6837  0.0823  0.1719
 1418TIP3    H128449   6.258   3.440   7.088  2.5056 -1.3166 -0.2009
 1418TIP3    H228450   6.220   3.478   7.230 -0.5380  0.2865 -1.3456
 1419TIP3   OH228451   3.710   2.699   7.658  0.0122  0.2734 -0.3608
 1419TIP3    H128452   3.630   2.665   7.617  0.3128 -1.1705  0.1940
 1419TIP3    H228453   3.681   2.737   7.741 -0.3502  1.5930 -1.0618
 1420TIP3   OH228454   2.834   3.598   8.393 -0.3425  0.1157  0.0262
 1420TIP3    H128455   2.793   3.577   8.477 -0.9592 -2.7037 -0.8697
 1420TIP3    H228456   2.760   3.617   8.335 -0.1338 -0.8200 -0.5612
 1421TIP3   OH228457   4.634   7.142   7.107  0.4790 -0.0407 -0.0354
 1421TIP3    H128458   4.725   7.141   7.136  1.1205  0.6403 -1.8993
 1421TIP3    H228459   4.619   7.231   7.076 -0.9067 -0.0838  0.4329
 1422TIP3   OH228460   1.937   1.357   8.851  0.0239 -0.2901 -0.3924
 1422TIP3    H128461   1.875   1.394   8.914 -0.8033 -1.1352 -0.6813
 1422TIP3    H228462   1.909   1.393   8.767  0.3213 -0.1766 -0.4421
 1423TIP3   OH228463   2.445   7.265   9.592 -0.0167 -0.7096  0.2933
 1423TIP3    H128464   2.385   7.317   9.647 -0.5453 -0.7692 -0.2176
 1423TIP3    H228465   2.520   7.322   9.578 -0.4222 -0.2191  0.0618
 1424TIP3   OH228466   4.647   2.374   8.879  0.1920  0.0216 -0.0813
 1424TIP3    H128467   4.730   2.335   8.853  1.2599  0.5059  2.2946
 1424TIP3    H228468   4.627   2.437   8.810  1.3506 -0.7001 -1.1130
 1425TIP3   OH228469   4.590   5.434   7.260  0.2689 -1.0119 -0.3075
 1425TIP3    H128470   4.550   5.465   7.179 -1.3531 -0.7564  0.5405
 1425TIP3    H228471   4.677   5.403   7.234 -0.7365 -2.2851 -2.3881
 1426TIP3   OH228472   2.095   0.588   9.080 -0.0652  0.2541  0.3942
 1426TIP3    H128473   2.014   0.633   9.058 -0.4799 -0.5584  0.1979
 1426TIP3    H228474   2.082   0.558   9.170 -0.3195 -0.5604  0.0986
 1427TIP3   OH228475   7.364   5.896   7.774 -0.0997 -0.2246  0.3939
 1427TIP3    H128476   7.280   5.894   7.820 -1.2666  0.2317 -1.6140
 1427TIP3    H228477   7.357   5.971   7.715  1.0426 -1.2185 -1.0615
 1428TIP3   OH228478   5.395   5.487   8.170  0.2340  0.2454  0.1243
 1428TIP3    H128479   5.315   5.434   8.170 -0.2763  1.0036  1.0301
 1428TIP3    H228480   5.369   5.572   8.205  1.2925  0.7413 -0.2303
 1429TIP3   OH228481   3.707   3.135   8.792  0.0730  0.4534  0.0455
 1429TIP3    H128482   3.766   3.207   8.817 -0.3970  0.8330  0.0772
 1429TIP3    H228483   3.696   3.145   8.698  0.2160  0.2619  0.0082
 1430TIP3   OH228484   6.695   5.537   9.105  0.0461 -0.3383  0.4823
 1430TIP3    H128485   6.775   5.492   9.135  0.6989  0.8388  0.5802
 1430TIP3    H228486   6.726   5.622   9.072 -1.2065  0.2708  0.8091
 1431TIP3   OH228487   5.739   6.124   8.108 -0.4599  0.4846  0.7110
 1431TIP3    H128488   5.664   6.128   8.048  0.0110  1.4847  0.1663
 1431TIP3    H228489   5.813   6.152   8.055  0.5259 -1.5078  0.9475
 1432TIP3   OH228490   1.489   3.764   9.721  0.4089 -0.1278 -0.1699
 1432TIP3    H128491   1.453   3.757   9.632 -0.2578  1.0367 -0.0192
 1432TIP3    H228492   1.420   3.730   9.778  0.2647  0.4173 -0.0105
 1433TIP3   OH228493   3.679   1.770   7.751 -0.1009 -0.3210 -0.3044
 1433TIP3    H128494   3.748   1.709   7.724  0.1691  0.4618 -1.4544
 1433TIP3    H228495   3.602   1.715   7.763  0.9428 -1.3752  2.0648
 1434TIP3   OH228496   1.778   4.559   8.390 -0.1514 -0.0413 -0.3741
 1434TIP3    H128497   1.743   4.482   8.345 -0.6830 -0.2313  0.3338
 1434TIP3    H228498   1.860   4.528   8.429 -0.9746 -0.6587  0.9844
 1435TIP3   OH228499   6.258   2.878   9.002  0.4079 -0.9398  0.1119
 1435TIP3    H128500   6.269   2.803   9.060 -1.3161 -1.4381 -0.1688
 1435TIP3    H228501   6.185   2.855   8.946  1.1250  0.1301 -1.3307
 1436TIP3   OH228502   0.557   4.358   9.284 -0.3312  0.3651  0.3274
 1436TIP3    H128503   0.644   4.318   9.287 -0.0648  0.7337 -1.2420
 1436TIP3    H228504   0.559   4.425   9.352  1.4652  1.9261 -1.1465
 1437TIP3   OH228505   4.420   4.038   8.197  0.4794  0.4902  0.1266
 1437TIP3    H128506   4.362   3.966   8.170 -0.0409  1.6011 -1.9742
 1437TIP3    H228507   4.360   4.109   8.220  0.9961  0.5195  1.4613
 1438TIP3   OH228508   2.319   4.764   7.502 -0.0086 -0.3641  1.0350
 1438TIP3    H128509   2.307   4.780   7.409 -0.5102 -0.3650  1.0999
 1438TIP3    H228510   2.275   4.681   7.520  0.8440 -0.8166  1.1054
 1439TIP3   OH228511   7.249   6.097   9.094  0.1700  0.4768 -0.8756
 1439TIP3    H128512   7.215   6.072   9.008 -0.3329 -0.0562 -0.5231
 1439TIP3    H228513   7.229   6.191   9.101 -3.9807 -0.2911  0.5195
 1440TIP3   OH228514   6.287   1.733   6.922 -0.7289  0.2103 -0.1205
 1440TIP3    H128515   6.269   1.648   6.881  0.5458  0.2112 -0.7367
 1440TIP3    H228516   6.379   1.751   6.900 -0.0353  0.3443  2.5164
 1441TIP3   OH228517   2.832   1.170   8.414 -0.4955  0.1462 -0.3595
 1441TIP3    H128518   2.743   1.136   8.423 -0.7228  0.9165  0.4466
 1441TIP3    H228519   2.880   1.132   8.487 -0.5949  1.0183  0.1822
 1442TIP3   OH228520   2.395   4.586   8.295 -0.1625 -0.3221 -0.3828
 1442TIP3    H128521   2.470   4.627   8.339 -1.1825  0.5442  0.6322
 1442TIP3    H228522   2.422   4.578   8.204  0.9263  0.5715 -0.1665
 1443TIP3   OH228523   4.932   0.365   8.905 -0.3266 -0.2081 -0.2280
 1443TIP3    H128524   4.977   0.405   8.831 -2.2679 -0.3633 -1.5735
 1443TIP3    H228525   4.980   0.395   8.982  0.8021  1.2720 -1.4510
 1444TIP3   OH228526   7.285   1.254   9.356 -0.3487 -0.2134  0.1896
 1444TIP3    H128527   7.377   1.229   9.362 -0.0435  1.0798  1.2513
 1444TIP3    H228528   7.239   1.186   9.405  0.1077 -0.4623  0.2803
 1445TIP3   OH228529   4.931   5.583   7.239  0.0049 -0.6903 -0.3236
 1445TIP3    H128530   4.892   5.646   7.178 -1.0224 -1.5333 -0.5635
 1445TIP3    H228531   4.889   5.500   7.218 -0.4133 -1.0065  1.5242
 1446TIP3   OH228532   1.957   1.879   6.270 -0.5975  0.8196 -0.5657
 1446TIP3    H128533   1.960   1.974   6.259 -3.4124  1.0259 -0.4047
 1446TIP3    H228534   1.929   1.866   6.361  0.5145 -0.2152 -0.3405
 1447TIP3   OH228535   2.579   6.386   9.433 -0.5426  0.4160 -0.6030
 1447TIP3    H128536   2.661   6.375   9.384 -0.9900  1.8272 -1.7285
 1447TIP3    H228537   2.511   6.357   9.372 -0.9177 -0.7087  0.3116
 1448TIP3   OH228538   2.944   2.030   7.535 -0.5734  0.1011  0.0947
 1448TIP3    H128539   2.957   1.960   7.598  0.8731 -0.1529 -0.4546
 1448TIP3    H228540   2.885   1.992   7.469 -0.7024 -0.2009  0.3815
 1449TIP3   OH228541   6.933   3.693   6.913 -0.1049  0.2897 -0.2768
 1449TIP3    H128542   6.993   3.623   6.887 -0.0048 -0.0403  0.8150
 1449TIP3    H228543   6.880   3.654   6.982  0.4159  1.5049  0.8275
 1450TIP3   OH228544   3.759   6.450   9.083  1.1472  0.0866 -0.0190
 1450TIP3    H128545   3.684   6.410   9.039  1.1857 -0.6985  0.5997
 1450TIP3    H228546   3.744   6.544   9.078  0.2520 -0.0585 -0.1142
 1451TIP3   OH228547   2.220   4.924   9.696  0.2498 -0.2853  0.3995
 1451TIP3    H128548   2.228   4.951   9.788  1.6969 -1.5878  0.7000
 1451TIP3    H228549   2.139   4.874   9.692  0.1393 -0.1540  0.9638
 1452TIP3   OH228550   2.432   3.250   8.139 -0.4389 -0.0201 -0.4579
 1452TIP3    H128551   2.524   3.258   8.162 -0.3180 -0.4970 -0.7523
 1452TIP3    H228552   2.432   3.206   8.054 -0.9698 -1.4233  0.2322
 1453TIP3   OH228553   4.137   5.386   7.459  0.1361  0.0744  0.3827
 1453TIP3    H128554   4.128   5.304   7.412 -0.2255  0.7910 -0.8591
 1453TIP3    H228555   4.213   5.374   7.516  1.3327 -0.4526 -1.2490
 1454TIP3   OH228556   2.181   2.783   7.589 -0.0628 -0.0567 -0.0321
 1454TIP3    H128557   2.143   2.759   7.504  1.7381 -0.2912 -0.8165
 1454TIP3    H228558   2.248   2.718   7.604  1.2912  1.3796  0.3886
 1455TIP3   OH228559   1.150   1.845   8.778  0.0125 -0.1990  0.0920
 1455TIP3    H128560   1.213   1.851   8.849 -0.0768 -0.3811  0.1861
 1455TIP3    H228561   1.127   1.752   8.772 -0.1856 -0.1473  0.0076
 1456TIP3   OH228562   0.463   4.920   9.566 -1.0169  0.1645 -0.2773
 1456TIP3    H128563   0.495   5.007   9.542  0.3889 -0.1185  0.4386
 1456TIP3    H228564   0.455   4.924   9.662 -2.9896  0.1400 -0.3967
 1457TIP3   OH228565   2.222   4.288   8.966  0.3740  0.9137 -0.0688
 1457TIP3    H128566   2.164   4.356   9.001  2.6273  2.0515  1.7810
 1457TIP3    H228567   2.256   4.244   9.044  1.5438 -0.0659 -1.0904
 1458TIP3   OH228568   2.947   2.687   8.586 -0.3597 -0.0482 -0.0607
 1458TIP3    H128569   2.885   2.733   8.531  0.7213  1.8675  0.2487
 1458TIP3    H228570   2.903   2.678   8.671 -0.2631  1.1927  0.1254
 1459TIP3   OH228571   3.137   0.808   9.405 -0.1087 -0.4986  0.1955
 1459TIP3    H128572   3.217   0.851   9.377  0.0207 -0.6885  0.2772
 1459TIP3    H228573   3.166   0.732   9.455 -0.3177  0.2811  1.5648
 1460TIP3   OH228574   4.543   3.694   9.518  0.2489 -0.7056 -0.0298
 1460TIP3    H128575   4.595   3.663   9.444  0.0143 -0.4231 -0.3196
 1460TIP3    H228576   4.459   3.719   9.479  0.1246 -0.5531  0.3330
 1461TIP3   OH228577   1.385   6.264   8.243 -0.2709 -0.4343 -0.0202
 1461TIP3    H128578   1.433   6.190   8.280  0.5332 -1.3631 -2.6995
 1461TIP3    H228579   1.309   6.224   8.201 -1.2207  0.5895  0.6636
 1462TIP3   OH228580   1.661   0.865   7.275  0.1523  0.4788  0.3789
 1462TIP3    H128581   1.727   0.876   7.206  1.0899  1.1211  1.3398
 1462TIP3    H228582   1.702   0.805   7.338  0.9224  2.7969  2.2416
 1463TIP3   OH228583   0.379   0.138   8.969 -0.1768  0.3328  0.2507
 1463TIP3    H128584   0.364   0.045   8.958  2.4423 -0.0689 -0.7703
 1463TIP3    H228585   0.394   0.171   8.880  0.8833  1.3059  0.7575
 1464TIP3   OH228586   4.919   1.991   8.197  0.5040  0.0961 -0.1359
 1464TIP3    H128587   4.958   1.909   8.167  1.0480  0.5899 -0.7958
 1464TIP3    H228588   4.824   1.975   8.191  0.6004 -0.1218 -1.2966
 1465TIP3   OH228589   1.664   1.926   7.932 -0.2529 -0.1848 -0.3844
 1465TIP3    H128590   1.700   1.936   7.844 -0.1552 -0.9956 -0.4457
 1465TIP3    H228591   1.696   1.840   7.961 -1.0138 -0.3154  0.0871
 1466TIP3   OH228592   0.404   0.435   9.047 -0.0974 -0.3158 -0.2050
 1466TIP3    H128593   0.446   0.445   8.962  0.3030 -1.0977 -0.1078
 1466TIP3    H228594   0.394   0.340   9.058 -0.6781 -0.1949  0.3598
 1467TIP3   OH228595   5.589   5.737   6.847 -0.8107  0.3381 -0.1763
 1467TIP3    H128596   5.611   5.829   6.833  0.1725  0.7396  3.2751
 1467TIP3    H228597   5.665   5.689   6.816 -0.8698  0.7449 -0.9778
 1468TIP3   OH228598   0.198   2.143   8.286 -0.3368  0.1293 -0.3451
 1468TIP3    H128599   0.119   2.194   8.301  0.0168  0.2617  1.2312
 1468TIP3    H228600   0.246   2.192   8.219 -0.1478  1.7315  0.9132
 1469TIP3   OH228601   3.685   2.081   8.487 -0.6628  0.4468 -0.3792
 1469TIP3    H128602   3.711   2.082   8.394 -0.3393 -0.7049 -0.3110
 1469TIP3    H228603   3.656   2.170   8.504 -1.0703  0.5858 -1.6898
 1470TIP3   OH228604   6.064   0.562   9.342  0.4267 -0.0241 -0.1278
 1470TIP3    H128605   6.058   0.550   9.247 -0.7423 -1.4248  0.1031
 1470TIP3    H228606   6.151   0.600   9.355  0.4217  0.6476 -1.7902
 1471TIP3   OH228607   3.704   0.500   7.510  0.5231 -0.8501 -0.3439
 1471TIP3    H128608   3.723   0.449   7.432 -1.4863  0.1675 -1.6122
 1471TIP3    H228609   3.617   0.471   7.537  0.5468 -0.1120  0.6000
 1472TIP3   OH228610   7.406   5.668   9.032  0.2046  0.2978  0.0291
 1472TIP3    H128611   7.340   5.688   8.965 -0.0132 -0.9062 -0.1388
 1472TIP3    H228612   7.377   5.717   9.109 -1.9546 -1.5709  0.5291
 1473TIP3   OH228613   5.795   2.355   7.167 -0.0156 -0.4098 -0.4659
 1473TIP3    H128614   5.765   2.437   7.127 -1.8161 -1.3753 -1.1886
 1473TIP3    H228615   5.813   2.297   7.093 -1.8803 -1.6957  0.0191
 1474TIP3   OH228616   4.489   4.122   9.607 -0.0078 -0.3058  0.2604
 1474TIP3    H128617   4.442   4.070   9.672 -0.7224 -0.5116 -0.4074
 1474TIP3    H228618   4.431   4.124   9.530  0.3987  0.7205 -0.0445
 1475TIP3   OH228619   0.380   6.567   8.673  0.7013 -0.0327  0.1988
 1475TIP3    H128620   0.320   6.498   8.644  1.4649 -1.2353  1.3602
 1475TIP3    H228621   0.414   6.604   8.592  0.6691 -1.3799 -0.4685
 1476TIP3   OH228622   4.952   6.769   8.470  0.0859  0.4074  0.4372
 1476TIP3    H128623   4.904   6.707   8.416  0.5394 -1.7199  2.3190
 1476TIP3    H228624   4.951   6.851   8.420 -1.0717 -0.9239 -1.8714
 1477TIP3   OH228625   3.221   4.429   7.592  0.2652  0.1691 -0.3839
 1477TIP3    H128626   3.314   4.418   7.571  0.1506  0.4654 -1.0817
 1477TIP3    H228627   3.206   4.523   7.582  0.0823  0.2527  0.5737
 1478TIP3   OH228628   3.205   1.145   9.030 -0.4832  0.1505 -0.5782
 1478TIP3    H128629   3.257   1.108   8.959  0.3154 -2.5111  1.2226
 1478TIP3    H228630   3.266   1.203   9.077  0.9227 -2.5531  1.2130
 1479TIP3   OH228631   3.115   4.185   8.762  0.0263  0.1308 -0.2997
 1479TIP3    H128632   3.182   4.237   8.719  0.5315  1.7523  2.1836
 1479TIP3    H228633   3.033   4.214   8.722  0.4869  1.3483 -0.4121
 1480TIP3   OH228634   1.176   7.248   7.573 -0.2278  0.2782 -0.0414
 1480TIP3    H128635   1.115   7.270   7.503 -0.4789  1.6364  0.5740
 1480TIP3    H228636   1.250   7.308   7.561 -0.1522  0.3464  0.6874
 1481TIP3   OH228637   1.789   7.199   6.823  0.5055 -0.0394 -0.1914
 1481TIP3    H128638   1.763   7.284   6.788  0.7753  0.4189  0.6697
 1481TIP3    H228639   1.709   7.164   6.862  0.0691 -0.8125 -1.7509
 1482TIP3   OH228640   3.159   1.576   7.348 -0.1910  0.6331 -0.1261
 1482TIP3    H128641   3.144   1.482   7.358  2.6021 -0.0584 -1.2467
 1482TIP3    H228642   3.151   1.611   7.437 -2.2101 -0.4597  0.1709
 1483TIP3   OH228643   7.412   6.757   8.423 -0.4874  0.2485  0.0190
 1483TIP3    H128644   7.442   6.809   8.348 -1.5852 -1.1205 -1.4451
 1483TIP3    H228645   7.428   6.813   8.499 -0.2931  2.1380 -1.3367
 1484TIP3   OH228646   0.558   2.775   9.306 -0.0765  0.0879  0.0298
 1484TIP3    H128647   0.541   2.684   9.331  0.4316  0.1140  0.4788
 1484TIP3    H228648   0.629   2.769   9.242  1.6298  0.3218  1.8284
 1485TIP3   OH228649   6.693   7.400   9.418 -0.5073  0.2756 -0.1144
 1485TIP3    H128650   6.769   7.352   9.451  0.4233  1.3112 -0.6799
 1485TIP3    H228651   6.645   7.337   9.365  1.1475  0.1502 -1.5347
 1486TIP3   OH228652   4.852   6.290   7.897  0.1893 -0.1770  0.7548
 1486TIP3    H128653   4.831   6.379   7.867 -1.1805 -0.3774  1.0430
 1486TIP3    H228654   4.913   6.303   7.970  1.1027  0.4457 -0.0893
 1487TIP3   OH228655   6.780   5.013   8.367  0.4481  0.0798 -0.2847
 1487TIP3    H128656   6.694   4.991   8.400  0.1708 -1.8172 -2.0731
 1487TIP3    H228657   6.829   5.041   8.444 -0.6142 -2.5224  1.4839
 1488TIP3   OH228658   2.364   7.509   7.681  0.6116 -0.0158  0.2250
 1488TIP3    H128659   2.295   7.447   7.707  0.7847 -0.3712 -0.1481
 1488TIP3    H228660   2.329   7.595   7.703 -0.1028 -0.1651 -0.2962
 1489TIP3   OH228661   4.140   6.870   9.050 -0.1227 -0.1636 -0.1039
 1489TIP3    H128662   4.120   6.794   8.997 -1.6512  0.9200 -1.1600
 1489TIP3    H228663   4.223   6.849   9.093  1.2641 -1.0311 -3.0130
 1490TIP3   OH228664   0.379   4.372   8.322 -0.0211  0.2247  0.0932
 1490TIP3    H128665   0.427   4.454   8.316  2.1287 -1.0348 -1.1022
 1490TIP3    H228666   0.443   4.309   8.355 -1.4077 -1.1409  0.2836
 1491TIP3   OH228667   0.947   1.707   8.589  0.2756  0.1682  0.6504
 1491TIP3    H128668   0.946   1.621   8.548 -0.7229 -0.2515  1.5004
 1491TIP3    H228669   1.028   1.748   8.558  0.8820 -1.1560  0.4061
 1492TIP3   OH228670   3.836   6.421   9.629 -0.5960 -0.8776  0.4148
 1492TIP3    H128671   3.809   6.483   9.562  1.2003 -0.9561 -0.4524
 1492TIP3    H228672   3.785   6.343   9.613 -0.4206 -0.7756 -0.6687
 1493TIP3   OH228673   4.988   7.308   7.009  0.3091  0.3008 -0.6532
 1493TIP3    H128674   4.964   7.400   6.997  2.5533  0.7272 -2.5972
 1493TIP3    H228675   4.991   7.273   6.920 -0.3353 -1.6444  0.0410
 1494TIP3   OH228676   1.299   5.227   8.956 -0.2090 -0.5414  0.5231
 1494TIP3    H128677   1.313   5.284   9.031 -0.7301 -0.0379  0.2458
 1494TIP3    H228678   1.237   5.275   8.901 -0.4981 -1.2836  0.1904
 1495TIP3   OH228679   4.834   3.808   7.723  0.2447 -0.0604 -0.4682
 1495TIP3    H128680   4.769   3.836   7.787  1.7441  2.1556  0.2096
 1495TIP3    H228681   4.835   3.878   7.658  1.2143 -0.5683 -1.0232
 1496TIP3   OH228682   4.915   1.992   9.574  0.8442  0.3943 -0.1359
 1496TIP3    H128683   4.878   1.997   9.663 -0.8823 -1.8142 -0.6568
 1496TIP3    H228684   4.899   2.079   9.537 -1.1128  0.4658  0.7537
 1497TIP3   OH228685   6.481   3.091   7.542  0.0820 -0.0038  0.3186
 1497TIP3    H128686   6.439   3.092   7.628 -1.1800  1.1743 -0.2676
 1497TIP3    H228687   6.448   3.011   7.500 -3.7244  1.9793 -1.0236
 1498TIP3   OH228688   6.969   5.198   8.851  0.0041 -0.0724  0.0451
 1498TIP3    H128689   6.964   5.109   8.886 -0.3909 -0.2802 -0.5135
 1498TIP3    H228690   7.062   5.219   8.854  0.0532 -0.3477  0.5602
 1499TIP3   OH228691   2.622   1.359   9.386  0.3160  0.0367  0.0937
 1499TIP3    H128692   2.567   1.328   9.458  0.4252 -0.8286 -0.1865
 1499TIP3    H228693   2.652   1.446   9.415  1.0398 -0.6302  1.4639
 1500TIP3   OH228694   4.188   4.657   8.090 -0.0037  0.5218 -0.2733
 1500TIP3    H128695   4.124   4.706   8.037 -0.4701  0.7036  0.4443
 1500TIP3    H228696   4.258   4.636   8.029 -0.7309  0.3544 -1.0727
 1501TIP3   OH228697   3.371   4.532   8.208  0.4847  0.0901  0.0762
 1501TIP3    H128698   3.443   4.510   8.149  0.5684 -0.3333  0.3310
 1501TIP3    H228699   3.414   4.550   8.292  0.3150  0.0872  0.1638
 1502TIP3   OH228700   3.379   7.308   7.576  0.0389  0.0085  0.1235
 1502TIP3    H128701   3.364   7.310   7.671  0.4560 -1.2202  0.2370
 1502TIP3    H228702   3.454   7.249   7.565 -0.3653 -0.3255 -1.0034
 1503TIP3   OH228703   7.348   4.831   9.318  0.1133 -0.2170  0.0909
 1503TIP3    H128704   7.273   4.774   9.300  0.4815 -0.3917 -0.9537
 1503TIP3    H228705   7.343   4.900   9.251 -0.9229  1.6319  1.9387
 1504TIP3   OH228706   3.854   6.526   8.060  0.5207  0.2931  0.1098
 1504TIP3    H128707   3.829   6.554   8.148 -2.1661  1.8536 -1.0389
 1504TIP3    H228708   3.863   6.607   8.010 -0.1685 -0.6116 -1.5580
 1505TIP3   OH228709   5.418   6.586   8.623 -0.5150  0.6990 -0.0481
 1505TIP3    H128710   5.400   6.599   8.716  0.5544  0.3353  0.2306
 1505TIP3    H228711   5.460   6.668   8.595 -1.5790  1.1243 -0.4186
 1506TIP3   OH228712   4.878   5.675   6.967  0.4256  0.2561 -0.2880
 1506TIP3    H128713   4.886   5.725   6.885 -0.2728 -1.1686 -1.2722
 1506TIP3    H228714   4.940   5.603   6.958  0.0951 -0.1098  0.2841
 1507TIP3   OH228715   0.120   2.195   7.472  0.1033  0.3754 -0.2313
 1507TIP3    H128716   0.185   2.184   7.542 -0.1314  0.3227 -0.0180
 1507TIP3    H228717   0.166   2.173   7.392  0.3731  0.4214 -0.0886
 1508TIP3   OH228718   1.033   0.471   7.950  0.3350 -0.1053  0.4254
 1508TIP3    H128719   1.061   0.401   7.892  0.4484 -0.5125  0.9553
 1508TIP3    H228720   0.998   0.538   7.892  1.4006 -0.0525 -0.1723
 1509TIP3   OH228721   7.440   3.509   8.926 -0.3413  0.6781  0.3680
 1509TIP3    H128722   7.458   3.583   8.983  0.0304  0.8865 -0.0132
 1509TIP3    H228723   7.346   3.494   8.934 -0.4555  1.3221  0.2897
 1510TIP3   OH228724   5.089   6.418   8.387  0.0658  0.2672  0.8618
 1510TIP3    H128725   5.008   6.376   8.359 -0.7988  1.0219  2.1481
 1510TIP3    H228726   5.073   6.444   8.477  2.4121 -1.2536  1.8080
 1511TIP3   OH228727   2.009   4.000   7.514  0.1477  0.3041 -0.3405
 1511TIP3    H128728   1.973   3.936   7.575  0.8039 -1.5521 -1.7961
 1511TIP3    H228729   1.934   4.027   7.460 -0.3383  1.6070  0.9153
 1512TIP3   OH228730   2.069   7.142   9.893  0.3810  0.5285  0.1670
 1512TIP3    H128731   2.029   7.129   9.807  0.2832  0.2629  0.2511
 1512TIP3    H228732   2.158   7.109   9.883  0.2318  0.0857  0.2915
 1513TIP3   OH228733   3.081   2.259   7.634  0.3334  0.1451 -0.1091
 1513TIP3    H128734   3.026   2.181   7.625 -0.6232  0.4783  2.2310
 1513TIP3    H228735   3.023   2.324   7.674  1.6953  1.4103 -0.1236
 1514TIP3   OH228736   6.077   0.329   8.378  0.1002 -0.1239 -0.1326
 1514TIP3    H128737   6.111   0.245   8.347  1.8527  0.6745 -0.4719
 1514TIP3    H228738   6.151   0.372   8.420 -0.9242  1.0142  0.6015
 1515TIP3   OH228739   2.407   6.609   9.672  0.2043  0.1282 -0.0182
 1515TIP3    H128740   2.391   6.551   9.746  2.7677  0.7925  1.1407
 1515TIP3    H228741   2.442   6.552   9.604  2.5909  0.2003  1.0695
 1516TIP3   OH228742   0.950   4.047   8.690  0.2959  0.1396 -0.1401
 1516TIP3    H128743   0.943   4.118   8.754 -2.2890 -0.4289  0.3349
 1516TIP3    H228744   0.989   4.088   8.613 -0.7251  2.0036  0.2637
 1517TIP3   OH228745   3.930   5.090   9.194  0.4579 -0.1656 -0.6589
 1517TIP3    H128746   3.943   5.101   9.288  1.2112  1.0526 -0.8825
 1517TIP3    H228747   3.852   5.141   9.174  0.2780 -0.4529 -0.6903
 1518TIP3   OH228748   6.031   3.932   7.837 -0.3126 -0.1686  0.8192
 1518TIP3    H128749   6.040   3.965   7.927 -2.0528 -0.5600  1.1768
 1518TIP3    H228750   6.075   3.998   7.783  0.2807  0.3596  1.9122
 1519TIP3   OH228751   4.967   2.251   8.211 -0.3802  0.0176 -0.3198
 1519TIP3    H128752   4.946   2.162   8.183 -2.0677 -0.3026  1.7162
 1519TIP3    H228753   5.053   2.244   8.251 -1.2587 -1.1914  1.5306
 1520TIP3   OH228754   2.970   6.861   8.058  0.3297 -0.5014  0.2895
 1520TIP3    H128755   3.034   6.825   7.998  0.4449 -0.5567  0.4455
 1520TIP3    H228756   2.905   6.791   8.069 -0.4654  0.0203 -0.8968
 1521TIP3   OH228757   6.362   2.270   7.458 -0.0057 -0.0927 -0.0207
 1521TIP3    H128758   6.275   2.229   7.454 -1.5466  2.9890 -1.0134
 1521TIP3    H228759   6.361   2.322   7.539  0.6197  0.5385 -0.4043
 1522TIP3   OH228760   2.845   4.482   9.245 -0.3583 -0.6359  0.0565
 1522TIP3    H128761   2.779   4.551   9.251  0.3792  0.0911 -0.0752
 1522TIP3    H228762   2.800   4.409   9.202 -0.8211  0.1677 -0.8509
 1523TIP3   OH228763   7.491   0.325   7.341  0.4379 -0.1284 -0.2902
 1523TIP3    H128764   7.533   0.388   7.282 -1.1012  1.1198 -0.1198
 1523TIP3    H228765   7.470   0.376   7.419 -1.5760 -0.6189 -0.4629
 1524TIP3   OH228766   0.030   1.723   8.038  0.6746  0.3290  0.6436
 1524TIP3    H128767  -0.034   1.652   8.025  2.1973 -0.8941 -0.5687
 1524TIP3    H228768   0.096   1.685   8.096  0.7482  1.2907  1.2004
 1525TIP3   OH228769   0.030   5.998   7.255  0.2323 -0.7061 -0.1713
 1525TIP3    H128770   0.092   5.971   7.188 -0.6743 -3.6074  0.0311
 1525TIP3    H228771   0.044   5.937   7.327 -1.4037 -0.0686  0.7501
 1526TIP3   OH228772   6.086   1.070   7.666 -0.3686  0.2003 -0.6273
 1526TIP3    H128773   6.024   1.117   7.721  1.4145 -0.1340  1.8435
 1526TIP3    H228774   6.069   0.977   7.683  1.5682  0.0873  1.2150
 1527TIP3   OH228775   1.310   1.665   6.388 -0.2618 -0.1346  0.1549
 1527TIP3    H128776   1.247   1.731   6.360  0.8956  1.2396  0.6866
 1527TIP3    H228777   1.392   1.690   6.345 -0.2307 -2.4624 -1.3296
 1528TIP3   OH228778   1.190   4.634   7.729 -0.0816 -0.3000 -0.8362
 1528TIP3    H128779   1.273   4.653   7.686  0.1943  1.2586  0.2998
 1528TIP3    H228780   1.183   4.699   7.798 -1.5269 -1.3739  0.0990
 1529TIP3   OH228781   6.414   6.986   7.134 -0.1194  0.2387 -0.1962
 1529TIP3    H128782   6.356   6.920   7.097 -0.3429  0.1613  0.2821
 1529TIP3    H228783   6.363   7.067   7.134 -0.9454 -0.2132  1.9627
 1530TIP3   OH228784   5.474   4.724   8.211 -0.0753 -0.4367 -0.1673
 1530TIP3    H128785   5.395   4.674   8.229 -0.0876 -0.2081  0.4307
 1530TIP3    H228786   5.492   4.708   8.118 -0.6012 -0.7977 -0.2103
 1531TIP3   OH228787   5.406   2.699   6.998 -0.2999  0.3216 -0.4350
 1531TIP3    H128788   5.466   2.767   6.970 -1.4891  1.6247  0.0738
 1531TIP3    H228789   5.451   2.617   6.978  1.1576  1.2473 -1.0614
 1532TIP3   OH228790   2.563   1.545   7.713 -0.1676 -0.3417  0.2707
 1532TIP3    H128791   2.636   1.498   7.674  1.0539  1.1037  0.6966
 1532TIP3    H228792   2.485   1.505   7.675  0.8419 -1.7407 -0.4147
 1533TIP3   OH228793   5.201   2.832   9.484  0.0707  0.1896  0.0179
 1533TIP3    H128794   5.266   2.801   9.420 -1.7724 -0.4907 -1.6553
 1533TIP3    H228795   5.231   2.797   9.567  1.3916 -0.8423 -0.8441
 1534TIP3   OH228796   0.479   4.729   9.253  0.0566  0.0182  0.2290
 1534TIP3    H128797   0.403   4.775   9.288  0.3570  0.1233  0.7442
 1534TIP3    H228798   0.550   4.750   9.313 -0.1348 -2.3835  1.3953
 1535TIP3   OH228799   6.241   6.838   7.542  0.1229  0.3958  0.6527
 1535TIP3    H128800   6.186   6.767   7.575  0.6131 -0.5539 -0.4821
 1535TIP3    H228801   6.320   6.834   7.596  0.8080 -0.9761 -0.3616
 1536TIP3   OH228802   6.042   1.258   8.928  0.4035  0.1689 -0.8181
 1536TIP3    H128803   6.087   1.226   8.850 -2.7301 -1.0300 -2.2956
 1536TIP3    H228804   5.994   1.335   8.899 -0.6478 -0.1677 -0.0405
 1537TIP3   OH228805   0.781   0.521   9.549 -0.4029 -0.7615  0.0733
 1537TIP3    H128806   0.699   0.569   9.544  0.4015  0.7456  0.5001
 1537TIP3    H228807   0.759   0.432   9.525 -2.0231 -0.2357 -0.5043
 1538TIP3   OH228808   2.456   6.154   8.896 -0.1383 -0.0720 -0.0220
 1538TIP3    H128809   2.417   6.239   8.875 -1.0978 -0.5825 -0.4045
 1538TIP3    H228810   2.522   6.173   8.963 -0.3309  0.9694 -0.1150
 1539TIP3   OH228811   3.847   3.590   7.902  0.0693 -0.7121 -0.1653
 1539TIP3    H128812   3.799   3.544   7.971 -1.4504  0.9782 -0.0403
 1539TIP3    H228813   3.933   3.606   7.939 -0.6341 -0.0704  1.2782
 1540TIP3   OH228814   1.107   6.887   9.502 -0.1618 -0.0258  0.1240
 1540TIP3    H128815   1.185   6.890   9.557 -0.2315 -0.9048  0.2886
 1540TIP3    H228816   1.034   6.879   9.563 -0.3639  0.5421 -0.0394
 1541TIP3   OH228817   1.827   2.622   8.865  0.1057 -0.5261 -0.4399
 1541TIP3    H128818   1.807   2.686   8.797  0.3512  0.4941  0.4205
 1541TIP3    H228819   1.772   2.649   8.939  0.6644 -0.9569  0.1362
 1542TIP3   OH228820   7.496   2.257   8.842  0.2649 -0.0297  0.5185
 1542TIP3    H128821   7.448   2.175   8.828 -0.7960  0.8901 -1.6822
 1542TIP3    H228822   7.429   2.321   8.864  0.9091  0.5521  0.8374
 1543TIP3   OH228823   1.093   4.931   8.060 -0.0689  0.2551 -0.2791
 1543TIP3    H128824   1.166   4.904   8.004  0.0743 -2.7442  1.1477
 1543TIP3    H228825   1.035   4.980   8.002  2.6375  2.0879 -1.6457
 1544TIP3   OH228826   7.453   6.871   8.711 -0.2841  0.0342  0.1025
 1544TIP3    H128827   7.441   6.954   8.757 -0.5858  0.6162 -0.9850
 1544TIP3    H228828   7.521   6.826   8.760 -1.2206  0.2265  1.6382
 1545TIP3   OH228829   0.584   3.991   9.322  0.4951 -0.3108 -0.1164
 1545TIP3    H128830   0.611   4.023   9.408  0.9839 -0.0764 -0.3544
 1545TIP3    H228831   0.653   4.021   9.263  2.0688 -3.4731 -0.0655
 1546TIP3   OH228832   4.116   0.796   7.615 -0.0088  0.0594 -0.4726
 1546TIP3    H128833   4.036   0.746   7.623  0.1099 -0.0231  0.2009
 1546TIP3    H228834   4.157   0.792   7.701  0.1666  1.0337 -0.4909
 1547TIP3   OH228835   0.975   2.856   7.472  0.7936 -0.2836  0.4580
 1547TIP3    H128836   0.957   2.913   7.397 -1.5296 -1.0804  0.3387
 1547TIP3    H228837   0.934   2.899   7.546  0.7851 -0.7946  0.7550
 1548TIP3   OH228838   2.466   1.644   9.727 -0.2684  0.5597 -0.4469
 1548TIP3    H128839   2.373   1.629   9.714 -0.2603 -0.5074  0.5379
 1548TIP3    H228840   2.505   1.557   9.719  0.6367  0.9843 -0.7813
 1549TIP3   OH228841   2.369   7.017   9.853 -0.2505  0.2344  0.3672
 1549TIP3    H128842   2.416   7.098   9.832  0.0087  0.1051  0.4487
 1549TIP3    H228843   2.383   6.961   9.776  1.1661 -0.4529  1.0925
 1550TIP3   OH228844   0.783   4.094   9.157  0.2903  0.6535 -0.3167
 1550TIP3    H128845   0.875   4.108   9.178  1.3892 -1.9088 -2.6456
 1550TIP3    H228846   0.773   4.128   9.068 -0.2662 -1.2317 -1.0450
 1551TIP3   OH228847   5.713   5.979   6.825 -0.2785 -0.1665  0.4772
 1551TIP3    H128848   5.802   6.003   6.850  0.0261 -0.8838  0.1320
 1551TIP3    H228849   5.657   6.045   6.865  0.4391  0.4918  0.4046
 1552TIP3   OH228850   5.490   7.188   7.532  0.1799  0.5715 -1.2082
 1552TIP3    H128851   5.506   7.094   7.539  0.0864  0.6595  3.3199
 1552TIP3    H228852   5.577   7.226   7.517  0.4568 -0.1792 -1.5514
 1553TIP3   OH228853   1.577   5.054   7.733  0.2058 -0.2006  0.5055
 1553TIP3    H128854   1.596   5.010   7.815  2.7197 -0.4534 -0.1131
 1553TIP3    H228855   1.660   5.096   7.709 -1.4802  3.1691  0.0130
 1554TIP3   OH228856   6.028   5.912   7.768 -0.1380  0.3307 -0.1611
 1554TIP3    H128857   5.938   5.904   7.800 -0.5546 -0.5991 -1.4896
 1554TIP3    H228858   6.026   5.874   7.680  1.1925  1.8483 -0.8929
 1555TIP3   OH228859   7.541   6.470   9.318 -0.1152  0.0230  0.1777
 1555TIP3    H128860   7.457   6.495   9.354  0.8435  0.7909  2.0048
 1555TIP3    H228861   7.550   6.522   9.238  0.0638  2.5826  1.7612
 1556TIP3   OH228862   2.791   0.609   7.212 -0.1787 -0.2676 -0.5949
 1556TIP3    H128863   2.881   0.638   7.194 -0.5767  0.5779 -1.2992
 1556TIP3    H228864   2.743   0.631   7.132 -1.5415  1.5096  0.6467
 1557TIP3   OH228865   6.060   2.860   8.763 -0.1506  0.6064  0.0250
 1557TIP3    H128866   6.000   2.813   8.821 -0.7332 -1.5451 -2.1489
 1557TIP3    H228867   6.004   2.921   8.715 -0.7172 -1.2929 -1.8932
 1558TIP3   OH228868   1.015   7.014   7.330 -0.4082  0.1686 -0.6831
 1558TIP3    H128869   1.080   7.041   7.265  0.2766  0.6275  0.1785
 1558TIP3    H228870   0.985   7.096   7.369 -0.9904 -0.0876 -0.5773
 1559TIP3   OH228871   2.637   2.388   9.375  0.1431 -0.5777 -0.1780
 1559TIP3    H128872   2.648   2.294   9.388 -0.3015 -0.7168 -0.7546
 1559TIP3    H228873   2.608   2.396   9.284 -1.6658 -0.0425  0.3998
 1560TIP3   OH228874   0.601   0.364   7.562  0.1099 -0.3173  0.1527
 1560TIP3    H128875   0.638   0.331   7.644 -1.6495  0.0972  1.1789
 1560TIP3    H228876   0.596   0.459   7.575 -1.7741 -0.4048  0.3125
 1561TIP3   OH228877   3.977   3.879   7.761  0.2003  0.2261 -0.1365
 1561TIP3    H128878   3.916   3.880   7.835  1.0990  0.5276  0.6024
 1561TIP3    H228879   3.948   3.804   7.708  0.8543 -1.3394  1.6247
 1562TIP3   OH228880   1.110   1.682   7.064  0.4092  0.0590 -0.5415
 1562TIP3    H128881   1.038   1.711   7.121  0.1912 -1.0974 -0.1857
 1562TIP3    H228882   1.069   1.617   7.007  1.3202 -1.2424  0.2324
 1563TIP3   OH228883   6.351   3.366   7.911 -0.1385  0.4229 -0.1394
 1563TIP3    H128884   6.351   3.272   7.891 -0.6487  0.0075  1.6874
 1563TIP3    H228885   6.264   3.383   7.946  0.3028  1.3690  0.5336
 1564TIP3   OH228886   2.257   4.513   9.513  0.0244 -0.4853 -0.0415
 1564TIP3    H128887   2.316   4.571   9.561  0.3058 -0.7088 -0.1187
 1564TIP3    H228888   2.198   4.478   9.580 -0.2136 -0.0348 -0.0073
 1565TIP3   OH228889   5.554   2.221   6.784 -0.1923 -0.9009 -0.2512
 1565TIP3    H128890   5.504   2.295   6.817  0.7258  0.6543 -2.1082
 1565TIP3    H228891   5.489   2.153   6.766 -1.1265 -0.3373  0.9382
 1566TIP3   OH228892   3.266   3.327   8.928 -0.1978  0.1311  0.0314
 1566TIP3    H128893   3.261   3.253   8.867 -0.8489 -1.7031  2.1703
 1566TIP3    H228894   3.178   3.334   8.964  0.5331  0.0127  1.9725
 1567TIP3   OH228895   5.126   0.784   7.582  0.4016 -0.0048  0.1469
 1567TIP3    H128896   5.065   0.739   7.524  0.0727  1.4315 -0.6688
 1567TIP3    H228897   5.121   0.736   7.665 -2.0473  0.2124  0.1869
 1568TIP3   OH228898   4.463   7.391   8.434  0.1577  0.2197  0.3714
 1568TIP3    H128899   4.531   7.420   8.494  0.2524  1.2391 -0.2094
 1568TIP3    H228900   4.457   7.461   8.369  1.4276 -1.6905 -1.9736
 1569TIP3   OH228901   3.509   3.017   7.692  0.2136  0.1262  0.4813
 1569TIP3    H128902   3.463   2.943   7.651  0.7038 -0.0048  0.1490
 1569TIP3    H228903   3.443   3.086   7.697 -0.1461 -0.2071  0.4350
 1570TIP3   OH228904   5.067   6.171   7.590  0.0601 -0.4473  0.1501
 1570TIP3    H128905   5.120   6.238   7.546 -0.0806 -0.1085  0.4985
 1570TIP3    H228906   4.980   6.209   7.597  0.1516 -0.3686  0.9966
 1571TIP3   OH228907   0.741   1.026   6.818 -0.6297 -0.1118 -0.3199
 1571TIP3    H128908   0.715   0.934   6.824 -0.8938  0.0829  2.4968
 1571TIP3    H228909   0.662   1.071   6.787 -0.5633 -0.7412 -1.4959
 1572TIP3   OH228910   5.482   7.548   7.519  0.4273  0.3045 -0.1588
 1572TIP3    H128911   5.386   7.543   7.520  0.4315 -2.0618 -1.5931
 1572TIP3    H228912   5.508   7.508   7.602  0.2154  2.2408  0.8879
 1573TIP3   OH228913   4.024   2.744   7.347 -0.3200 -0.4346  0.5076
 1573TIP3    H128914   4.012   2.787   7.432 -0.6311 -0.3738  0.4324
 1573TIP3    H228915   4.096   2.792   7.306 -0.2361 -0.4010  0.6957
 1574TIP3   OH228916   2.511   6.752   7.819  0.0278 -0.1499  0.4114
 1574TIP3    H128917   2.599   6.717   7.831  0.5145  0.9540  0.2018
 1574TIP3    H228918   2.519   6.812   7.745 -0.3919  1.5883  1.6989
 1575TIP3   OH228919   6.070   1.452   8.729  0.0532 -0.1190 -0.1690
 1575TIP3    H128920   6.138   1.472   8.794 -0.3578 -0.3854  0.3502
 1575TIP3    H228921   6.087   1.513   8.657 -0.4449  1.2728  0.8534
 1576TIP3   OH228922   6.535   6.170   9.054  0.1286 -0.3159  0.1622
 1576TIP3    H128923   6.566   6.111   9.124 -0.9992 -1.6601 -0.4124
 1576TIP3    H228924   6.566   6.129   8.973  1.0124  0.9748 -0.1895
 1577TIP3   OH228925   0.001   1.492   9.073 -0.0739  0.8211 -0.5692
 1577TIP3    H128926  -0.007   1.432   8.999  0.3145  0.0893 -0.0329
 1577TIP3    H228927  -0.087   1.526   9.087  0.2918  3.1671 -3.1241
 1578TIP3   OH228928   6.732   6.923   8.621 -0.2390  0.0727 -0.4335
 1578TIP3    H128929   6.715   6.991   8.556  0.7013  1.4652  0.7091
 1578TIP3    H228930   6.825   6.903   8.611  0.1172  0.8779  0.9558
 1579TIP3   OH228931   4.186   4.563   9.753 -0.2163  0.0675 -0.0044
 1579TIP3    H128932   4.254   4.502   9.780  0.2431  0.2822 -0.6381
 1579TIP3    H228933   4.176   4.623   9.827 -0.8922 -0.9454  0.7495
 1580TIP3   OH228934   7.468   3.468   7.542  0.3361  0.4713  0.2896
 1580TIP3    H128935   7.469   3.406   7.469  0.4016  0.3788  0.3696
 1580TIP3    H228936   7.375   3.482   7.560  0.3233  0.2251  0.4190
 1581TIP3   OH228937   7.270   7.512   8.295  0.1644 -0.0503 -0.1943
 1581TIP3    H128938   7.221   7.450   8.351 -1.0197 -0.0942 -1.2326
 1581TIP3    H228939   7.313   7.456   8.231 -2.3925  0.1784 -2.3017
 1582TIP3   OH228940   6.520   6.471   9.389 -0.2122  0.0903  0.4959
 1582TIP3    H128941   6.467   6.465   9.309 -1.9257  1.1884  1.4902
 1582TIP3    H228942   6.517   6.383   9.427  2.1012 -0.9609 -1.4513
 1583TIP3   OH228943   6.775   6.076   8.006  0.0816 -0.8412  0.5349
 1583TIP3    H128944   6.739   6.141   8.066 -0.9353 -0.3786 -0.5393
 1583TIP3    H228945   6.814   6.128   7.936 -0.4083 -1.3800 -0.1422
 1584TIP3   OH228946   4.894   6.900   9.642  0.0529  0.3599  0.3138
 1584TIP3    H128947   4.920   6.931   9.728 -1.3638  0.2362  0.8240
 1584TIP3    H228948   4.897   6.978   9.586  1.1955  0.3939  0.4018
 1585TIP3   OH228949   5.335   6.027   8.937  0.2577 -0.1486 -0.3872
 1585TIP3    H128950   5.290   6.076   8.868  1.0862  0.5319 -0.4683
 1585TIP3    H228951   5.264   5.994   8.993 -0.4091 -0.5223 -1.4323
 1586TIP3   OH228952   6.547   6.213   8.592  0.4411  0.4980 -0.4210
 1586TIP3    H128953   6.507   6.299   8.587 -0.5541 -0.0258 -2.3321
 1586TIP3    H228954   6.496   6.159   8.532  0.0133 -1.8560  1.8427
 1587TIP3   OH228955   1.331   4.898   7.897 -0.0560  0.2153 -0.2310
 1587TIP3    H128956   1.403   4.836   7.891 -0.4786 -0.5777  1.9475
 1587TIP3    H228957   1.316   4.926   7.807  1.7726 -0.9545 -0.9563
 1588TIP3   OH228958   6.469   0.516   7.310  0.6898  0.1301  0.0346
 1588TIP3    H128959   6.428   0.601   7.293  1.0480  0.2541 -0.2183
 1588TIP3    H228960   6.481   0.477   7.223 -1.8481 -1.3302  0.2286
 1589TIP3   OH228961   7.388   1.979   7.805  0.4911  0.0332 -0.4483
 1589TIP3    H128962   7.374   1.884   7.801  0.4495  0.0171  0.0142
 1589TIP3    H228963   7.396   1.998   7.899  0.7875  0.4448 -0.5550
 1590TIP3   OH228964   0.489   3.046   7.221  0.5389  0.1339  0.3564
 1590TIP3    H128965   0.516   3.134   7.248 -1.7810  1.8736 -2.4467
 1590TIP3    H228966   0.416   3.025   7.279 -0.4763  1.1599 -0.5174
 1591TIP3   OH228967   6.853   2.899   8.082  0.4456 -0.4962 -0.8458
 1591TIP3    H128968   6.931   2.907   8.027  3.0083 -0.8356  2.3972
 1591TIP3    H228969   6.868   2.819   8.132 -1.6926 -0.2035  0.3687
 1592TIP3   OH228970   6.457   1.315   8.309  0.3548 -0.2015  0.2299
 1592TIP3    H128971   6.427   1.294   8.220 -1.6251  1.5101  0.4178
 1592TIP3    H228972   6.381   1.301   8.364  1.2018 -0.0209  1.4754
 1593TIP3   OH228973   6.539   1.452   7.980  0.5587 -0.7237  0.5223
 1593TIP3    H128974   6.540   1.363   8.015 -0.7529 -0.6380  0.8311
 1593TIP3    H228975   6.458   1.457   7.928 -0.2014  0.7399  1.7739
 1594TIP3   OH228976   3.910   0.395   7.121 -0.1184 -0.0638  0.2685
 1594TIP3    H128977   4.003   0.376   7.134  0.0099  0.0874 -0.3579
 1594TIP3    H228978   3.880   0.328   7.060 -0.0069  0.8635 -0.8397
 1595TIP3   OH228979   1.739   3.256   7.720 -0.1216 -0.3475 -0.1470
 1595TIP3    H128980   1.673   3.306   7.672 -0.1149 -1.9725 -1.9734
 1595TIP3    H228981   1.821   3.302   7.703 -0.5866  1.0798  1.2686
 1596TIP3   OH228982   6.764   0.296   8.260  0.0915  0.3829  0.2526
 1596TIP3    H128983   6.775   0.391   8.259 -0.0711  0.4024 -0.2752
 1596TIP3    H228984   6.744   0.274   8.169  1.2869 -0.2931  0.1362
 1597TIP3   OH228985   0.554   2.034   8.483 -0.5062  0.2823 -0.3730
 1597TIP3    H128986   0.493   2.004   8.416 -0.3630 -0.5306 -0.1518
 1597TIP3    H228987   0.519   2.118   8.512 -1.7326 -0.3319  0.0011
 1598TIP3   OH228988   5.166   0.025   9.643 -0.1296  0.1436  0.0120
 1598TIP3    H128989   5.232   0.060   9.702 -0.8904  3.2597 -0.7622
 1598TIP3    H228990   5.205   0.035   9.556  0.0287 -2.1353 -0.2399
 1599TIP3   OH228991   5.463   4.447   8.310 -0.0748  0.0571 -0.3363
 1599TIP3    H128992   5.500   4.361   8.328 -1.1412 -0.6906 -1.5603
 1599TIP3    H228993   5.389   4.455   8.370 -0.0367  0.0885 -0.2930
 1600TIP3   OH228994   3.850   2.985   9.414  0.0190 -0.1443  0.0781
 1600TIP3    H128995   3.938   2.949   9.407  0.5197  0.8584  0.9720
 1600TIP3    H228996   3.862   3.075   9.444 -1.2757  0.2980 -0.6092
 1601TIP3   OH228997   0.031   1.412   7.799  0.3697 -0.1984 -0.2167
 1601TIP3    H128998  -0.009   1.326   7.790  1.7968 -0.8431 -0.7946
 1601TIP3    H228999   0.020   1.434   7.891  0.8853 -1.4780  0.1765
 1602TIP3   OH229000   5.057   1.574   7.773  0.0094  0.8597  0.2246
 1602TIP3    H129001   4.991   1.510   7.748  0.4278  1.1985 -1.9227
 1602TIP3    H229002   5.111   1.529   7.838 -1.8075  0.3101  1.4421
 1603TIP3   OH229003   4.905   1.803   7.743  0.3791 -0.1351 -0.5180
 1603TIP3    H129004   4.960   1.724   7.739 -0.0415 -0.3771 -2.0578
 1603TIP3    H229005   4.837   1.781   7.806  0.8214 -0.6285 -0.1982
 1604TIP3   OH229006   4.638   2.116   8.950  0.2459 -0.2502  0.0495
 1604TIP3    H129007   4.618   2.196   8.900 -0.6239 -0.3826  0.1705
 1604TIP3    H229008   4.564   2.058   8.932 -0.0235 -0.3472  1.3983
 1605TIP3   OH229009   1.167   0.029   9.153  0.4303  0.5170 -0.0273
 1605TIP3    H129010   1.151   0.120   9.126  1.2138  0.2008 -1.7328
 1605TIP3    H229011   1.133  -0.023   9.080  3.0709 -0.3993 -0.7174
 1606TIP3   OH229012   5.351   6.240   8.290 -0.3364 -0.3755  0.0793
 1606TIP3    H129013   5.402   6.321   8.292  0.0469 -0.5984 -0.3384
 1606TIP3    H229014   5.338   6.218   8.382  0.4196 -0.3658  0.1988
 1607TIP3   OH229015   0.349   1.221   7.865  0.6217  0.3413 -0.6323
 1607TIP3    H129016   0.346   1.315   7.883 -1.7341 -0.1120  2.0270
 1607TIP3    H229017   0.289   1.209   7.791  1.7497  0.9920 -1.6863
 1608TIP3   OH229018   2.973   5.672   9.120 -0.5749  0.3148  0.4987
 1608TIP3    H129019   2.892   5.708   9.084 -2.5989 -1.8886  2.4030
 1608TIP3    H229020   3.031   5.662   9.045 -2.7374  0.3796 -1.2898
 1609TIP3   OH229021   3.028   1.344   8.498 -0.8837 -0.0033  0.6004
 1609TIP3    H129022   2.982   1.279   8.446  1.4648 -0.9788 -0.3862
 1609TIP3    H229023   3.102   1.297   8.537  1.5603  2.1897 -1.0377
 1610TIP3   OH229024   2.134   7.382   8.268 -0.3703  0.2188 -0.4691
 1610TIP3    H129025   2.202   7.324   8.303  0.3452  0.5624 -1.2574
 1610TIP3    H229026   2.062   7.375   8.331  0.7257  0.5285  0.8663
 1611TIP3   OH229027   7.189   3.161   9.501 -0.1843 -0.1609  0.6481
 1611TIP3    H129028   7.265   3.180   9.557  0.5205 -0.0126 -0.3257
 1611TIP3    H229029   7.207   3.209   9.420 -1.3963 -0.0112  0.4491
 1612TIP3   OH229030   0.447   2.428   7.878  0.4014  0.1054  0.2317
 1612TIP3    H129031   0.496   2.404   7.799 -1.2690  0.9543 -1.1308
 1612TIP3    H229032   0.461   2.522   7.887  0.8909 -0.0533  1.1859
 1613TIP3   OH229033   2.120   4.786   8.742  0.0834  0.0179 -0.1554
 1613TIP3    H129034   2.129   4.814   8.650 -1.1370  1.7414  0.2021
 1613TIP3    H229035   2.177   4.846   8.790  0.7715 -0.9272  0.2412
 1614TIP3   OH229036   0.669   2.489   7.463 -0.7224 -0.5149  0.3056
 1614TIP3    H129037   0.639   2.441   7.540 -0.2790 -0.5190  0.4773
 1614TIP3    H229038   0.758   2.516   7.485 -0.7009 -0.2621 -0.0896
 1615TIP3   OH229039   6.694   7.475   7.264  0.5549 -0.0097 -0.6885
 1615TIP3    H129040   6.703   7.570   7.254  0.0306  0.1011 -0.1431
 1615TIP3    H229041   6.600   7.458   7.256  0.7294 -0.6018 -1.6933
 1616TIP3   OH229042   2.554   3.402   9.269 -0.5506  0.0752  0.4042
 1616TIP3    H129043   2.592   3.456   9.338  0.0589  1.1900 -0.7565
 1616TIP3    H229044   2.461   3.396   9.290 -0.4284  0.6766  1.1447
 1617TIP3   OH229045   0.631   5.368   8.604  0.5415 -0.1160  0.0533
 1617TIP3    H129046   0.572   5.392   8.675  1.9010  2.1912  0.4895
 1617TIP3    H229047   0.579   5.382   8.525  0.0361  0.4929  0.4781
 1618TIP3   OH229048   6.477   4.192   8.317 -0.1495 -0.0142 -0.5355
 1618TIP3    H129049   6.398   4.140   8.335  0.4743 -0.1232  2.2811
 1618TIP3    H229050   6.446   4.262   8.260 -1.4006 -2.2991 -2.9292
 1619TIP3   OH229051   2.688   5.189   9.276  0.0500  0.7175  0.3016
 1619TIP3    H129052   2.612   5.131   9.266 -0.2514  0.9464  1.1937
 1619TIP3    H229053   2.660   5.271   9.235  0.9769 -0.1386 -2.2358
 1620TIP3   OH229054   2.473   5.098   7.760 -0.4130 -0.0109 -0.1442
 1620TIP3    H129055   2.509   5.011   7.776  0.1937  0.2165 -0.2688
 1620TIP3    H229056   2.436   5.093   7.672  2.4208  0.7402 -1.4973
 1621TIP3   OH229057   0.492   6.594   9.057  0.4190  0.1111  0.5900
 1621TIP3    H129058   0.420   6.545   9.096 -0.1944  0.0724 -0.5677
 1621TIP3    H229059   0.457   6.682   9.044  1.2138  0.6345  1.7900
 1622TIP3   OH229060   1.761   0.211   8.282  0.6321  0.5799 -0.2627
 1622TIP3    H129061   1.829   0.159   8.325 -0.6097 -0.9399 -0.0524
 1622TIP3    H229062   1.758   0.176   8.193 -0.1327  0.3608 -0.1574
 1623TIP3   OH229063   0.826   2.745   6.587 -0.2074  0.1936  0.1403
 1623TIP3    H129064   0.786   2.711   6.667 -2.8856  0.3813 -1.0038
 1623TIP3    H229065   0.823   2.672   6.525  1.9435  0.0136  0.1693
 1624TIP3   OH229066   5.229   4.519   8.440  0.5770 -0.3807 -0.4915
 1624TIP3    H129067   5.188   4.554   8.360 -0.9503  0.7710  0.7382
 1624TIP3    H229068   5.166   4.456   8.474 -0.2423  1.3340  1.3735
 1625TIP3   OH229069   1.899   3.410   8.105 -0.1807 -0.5498  0.3260
 1625TIP3    H129070   1.993   3.398   8.093 -0.3434 -2.3918  0.4921
 1625TIP3    H229071   1.885   3.396   8.199 -0.5585  0.2045  0.3848
 1626TIP3   OH229072   4.194   4.521   0.844 -0.2155  0.5382 -0.1588
 1626TIP3    H129073   4.169   4.507   0.935  0.9217  0.6985  0.2028
 1626TIP3    H229074   4.206   4.433   0.809 -1.6323  0.4508 -0.4576
 1627TIP3   OH229075   2.902   3.095   8.803 -0.6365  0.3819  0.3039
 1627TIP3    H129076   2.952   3.046   8.738  1.5007 -0.5604  2.5103
 1627TIP3    H229077   2.957   3.169   8.826 -0.6983 -0.0477  1.9792
 1628TIP3   OH229078   3.289   3.622   8.479  0.1988 -0.2959  0.0826
 1628TIP3    H129079   3.299   3.690   8.412  0.5611 -1.3136 -0.9218
 1628TIP3    H229080   3.378   3.605   8.509  0.3569 -1.7119 -1.0998
 1629TIP3   OH229081   6.323   4.858   8.303 -0.0589  0.1678 -0.3799
 1629TIP3    H129082   6.323   4.768   8.337  2.7021 -1.1075 -3.2351
 1629TIP3    H229083   6.243   4.862   8.249 -0.5473 -0.3406  0.2874
 1630TIP3   OH229084   0.513   6.138   9.293  0.1397 -0.0883 -0.5781
 1630TIP3    H129085   0.601   6.101   9.291  0.4255  0.5849 -0.7774
 1630TIP3    H229086   0.505   6.176   9.381 -0.6085 -1.6770  0.0760
 1631TIP3   OH229087   0.128   0.130   7.249  0.0959  0.0579 -0.1802
 1631TIP3    H129088   0.089   0.058   7.198 -0.5575 -0.0129  0.3970
 1631TIP3    H229089   0.057   0.160   7.306  0.4160  1.0593 -0.2966
 1632TIP3   OH229090   3.522   4.867   9.179 -0.1680 -0.1087 -0.2979
 1632TIP3    H129091   3.491   4.777   9.191  0.4468 -0.0806  1.9523
 1632TIP3    H229092   3.472   4.918   9.242  0.4496  0.8836 -0.5903
 1633TIP3   OH229093   3.331   3.332   8.453  0.3151  0.3988 -0.0440
 1633TIP3    H129094   3.330   3.428   8.463  1.5749  0.4439 -0.1536
 1633TIP3    H229095   3.373   3.318   8.368 -1.8691 -0.2234 -1.1023
 1634TIP3   OH229096   1.039   4.194   9.380 -0.4006 -0.0735  0.1196
 1634TIP3    H129097   1.090   4.152   9.450 -0.3507  0.1392  0.2093
 1634TIP3    H229098   1.059   4.141   9.302  0.5398  0.4468 -0.0068
 1635TIP3   OH229099   7.418   1.979   7.516 -0.1473 -0.4133  0.5194
 1635TIP3    H129100   7.479   2.049   7.491 -1.6765  1.2810  1.3179
 1635TIP3    H229101   7.431   1.970   7.611 -1.5279  0.4167  0.8148
 1636TIP3   OH229102   1.035   3.900   6.806  0.8843 -0.0669 -0.3182
 1636TIP3    H129103   1.083   3.954   6.743 -1.2617  1.4978 -0.7022
 1636TIP3    H229104   0.943   3.915   6.786  0.0795  0.5501  3.2350
 1637TIP3   OH229105   0.474   7.147   8.659  0.3325  0.0050 -0.0752
 1637TIP3    H129106   0.437   7.059   8.658  0.4295 -0.0320 -0.5146
 1637TIP3    H229107   0.447   7.185   8.576  0.9359  0.1210 -0.2217
 1638TIP3   OH229108   4.276   6.700   7.576 -0.5589 -0.0565 -0.1772
 1638TIP3    H129109   4.369   6.682   7.587 -0.7953 -0.7390  0.7143
 1638TIP3    H229110   4.270   6.741   7.489  0.4348 -0.9286 -0.6712
 1639TIP3   OH229111   7.409   2.977   7.120 -0.3704 -0.1468 -0.4611
 1639TIP3    H129112   7.445   3.058   7.084 -0.6861  1.1326  1.8497
 1639TIP3    H229113   7.384   2.926   7.044  2.2977  0.7448 -2.0882
 1640TIP3   OH229114   7.550   0.985   8.550  0.3242  0.4154 -0.0262
 1640TIP3    H129115   7.473   1.042   8.542 -0.1266 -0.3133 -1.1160
 1640TIP3    H229116   7.547   0.931   8.471  0.5218 -1.4118  1.1770
 1641TIP3   OH229117   2.427   2.617   9.072  0.1844  0.6388 -0.1600
 1641TIP3    H129118   2.461   2.674   9.004 -1.5747  0.8817 -0.8758
 1641TIP3    H229119   2.372   2.674   9.127 -0.4317 -0.0572 -0.0360
 1642TIP3   OH229120   2.045   3.032   7.392 -0.2152 -0.1089 -0.1427
 1642TIP3    H129121   2.107   3.031   7.319 -0.2750  2.2866 -0.3017
 1642TIP3    H229122   2.016   3.123   7.398 -1.7792 -0.6500  1.5795
 1643TIP3   OH229123   3.729   0.759   9.490  0.0839  0.0908  0.3542
 1643TIP3    H129124   3.656   0.731   9.435  2.1643 -2.4912 -1.3189
 1643TIP3    H229125   3.722   0.704   9.568 -0.7330  1.1363  1.0482
 1644TIP3   OH229126   1.485   0.496   8.957 -0.0261 -0.5367  0.1996
 1644TIP3    H129127   1.560   0.554   8.967  0.0489 -0.6169  0.0957
 1644TIP3    H229128   1.519   0.420   8.910 -0.1190 -0.6745  0.3523
 1645TIP3   OH229129   0.248   7.336   8.473  0.4318  0.6519  0.3475
 1645TIP3    H129130   0.333   7.348   8.514  0.0241 -1.4898  2.0623
 1645TIP3    H229131   0.264   7.273   8.402  0.2537 -0.1172  0.9688
 1646TIP3   OH229132   0.387   0.509   6.820 -0.4468 -0.2493 -0.1049
 1646TIP3    H129133   0.455   0.487   6.884  0.4109 -0.8592 -1.1869
 1646TIP3    H229134   0.309   0.526   6.872 -0.4677 -3.1922  1.0166
 1647TIP3   OH229135   1.542   2.241   6.905 -0.3875 -0.1375 -0.0087
 1647TIP3    H129136   1.453   2.270   6.885 -0.5517 -0.0010  0.8784
 1647TIP3    H229137   1.599   2.306   6.863 -0.7221  0.3845  0.3453
 1648TIP3   OH229138   4.750   5.321   7.571 -0.2825  0.6799 -0.0333
 1648TIP3    H129139   4.824   5.286   7.521 -0.8018 -1.3844  0.5704
 1648TIP3    H229140   4.685   5.344   7.505 -0.4493 -0.7821 -0.4046
 1649TIP3   OH229141   0.847   1.281   7.029  0.5091 -0.3909  0.0505
 1649TIP3    H129142   0.765   1.275   6.980 -0.2371  1.7078  0.9218
 1649TIP3    H229143   0.822   1.260   7.119  0.7923  0.8333  0.4251
 1650TIP3   OH229144   2.887   6.533   8.814 -0.2140 -0.4802  0.1194
 1650TIP3    H129145   2.891   6.568   8.903 -0.4826 -0.0166 -0.0464
 1650TIP3    H229146   2.837   6.598   8.765  0.7044 -0.2909 -0.5859
 1651TIP3   OH229147   4.150   2.641   8.695  0.0266  0.2592 -0.3509
 1651TIP3    H129148   4.205   2.607   8.765  0.6182  3.6986  1.0981
 1651TIP3    H229149   4.196   2.617   8.614  1.1576 -0.8957  0.6062
 1652TIP3   OH229150   1.987   6.790   9.315 -0.5399  0.5842  0.3573
 1652TIP3    H129151   2.069   6.781   9.266 -1.9832 -0.6792 -1.9981
 1652TIP3    H229152   1.996   6.730   9.389  0.6469  0.4660  0.1273
 1653TIP3   OH229153   7.225   1.052   8.296  0.6566 -0.4544  0.4883
 1653TIP3    H129154   7.294   0.993   8.325  0.3574 -1.5683 -0.9749
 1653TIP3    H229155   7.188   1.010   8.218 -1.1593  0.4841  0.7832
 1654TIP3   OH229156   0.586   1.638   9.658 -0.2264 -0.2034  1.1687
 1654TIP3    H129157   0.614   1.597   9.740 -0.4182 -1.1933  0.7467
 1654TIP3    H229158   0.641   1.599   9.591 -0.8108 -0.2135  0.6850
 1655TIP3   OH229159   2.766   4.505   6.768  1.1186 -0.2778 -0.3779
 1655TIP3    H129160   2.716   4.515   6.687  2.7286  2.5598 -1.1748
 1655TIP3    H229161   2.713   4.548   6.835  1.1975  0.2393 -0.6390
 1656TIP3   OH229162   5.140   2.732   7.003 -0.2194 -0.8942  0.1802
 1656TIP3    H129163   5.146   2.826   6.987 -0.4397 -1.0700 -0.9520
 1656TIP3    H229164   5.231   2.702   7.000 -0.1512 -0.7295  0.5138
 1657TIP3   OH229165   4.040   4.477   8.884  0.1382 -0.1908  0.2934
 1657TIP3    H129166   4.041   4.571   8.862 -0.1369  0.3320  2.2976
 1657TIP3    H229167   3.985   4.471   8.962 -0.0755 -2.0846  0.0401
 1658TIP3   OH229168   4.970   7.076   9.837  0.0682 -0.4257 -0.4152
 1658TIP3    H129169   4.975   7.089   9.932  0.2793 -1.3628 -0.2962
 1658TIP3    H229170   5.006   7.157   9.800  1.8656 -0.8462  0.3153
 1659TIP3   OH229171   5.357   6.891   9.124  0.3037  0.8502 -0.5392
 1659TIP3    H129172   5.442   6.891   9.081  0.9378 -0.2377  0.6447
 1659TIP3    H229173   5.328   6.800   9.121 -0.0891  0.9316  0.4023
 1660TIP3   OH229174   5.802   2.643   7.509  0.4330 -0.0722 -0.1785
 1660TIP3    H129175   5.864   2.617   7.442  1.6644  0.7026  0.6316
 1660TIP3    H229176   5.837   2.606   7.591  0.6200  1.5669  0.5133
 1661TIP3   OH229177   5.154   0.885   9.167 -0.3696 -0.8155 -0.0516
 1661TIP3    H129178   5.231   0.882   9.224  0.6733  1.4986 -1.2285
 1661TIP3    H229179   5.136   0.978   9.156 -1.3062 -1.2196 -2.4840
 1662TIP3   OH229180   6.908   2.753   7.414 -0.1621 -0.5938  0.2147
 1662TIP3    H129181   6.878   2.836   7.375  0.7256  0.1218  1.0126
 1662TIP3    H229182   6.975   2.779   7.477 -0.5700 -1.8440  1.2080
 1663TIP3   OH229183   1.004   4.668   9.317 -0.1855 -0.0646 -0.3003
 1663TIP3    H129184   0.941   4.733   9.284  1.3741  0.5188 -2.3813
 1663TIP3    H229185   1.084   4.718   9.331  0.2257 -1.0352  1.0156
 1664TIP3   OH229186   3.381   2.965   9.273 -0.5011  0.0848  0.2910
 1664TIP3    H129187   3.394   3.049   9.228  0.8036 -0.8096 -1.0803
 1664TIP3    H229188   3.457   2.956   9.329  0.2244 -0.9316 -0.8248
 1665TIP3   OH229189   4.600   3.464   7.920 -0.3621 -0.2224 -0.7004
 1665TIP3    H129190   4.681   3.515   7.911  0.6895 -1.0907  2.3315
 1665TIP3    H229191   4.622   3.377   7.885  0.4133 -0.7277  0.9255
 1666TIP3   OH229192   6.374   3.266   9.164  0.1704  0.0787 -0.2688
 1666TIP3    H129193   6.397   3.326   9.093  0.0306  0.7740  0.2703
 1666TIP3    H229194   6.441   3.281   9.230 -0.5136  0.4717  0.3453
 1667TIP3   OH229195   2.731   3.044   8.021  0.0819  0.0847 -0.0987
 1667TIP3    H129196   2.737   3.137   8.044 -0.9968 -0.0552  0.7867
 1667TIP3    H229197   2.728   2.999   8.105 -0.6039 -0.6735 -0.5284
 1668TIP3   OH229198   5.668   2.379   9.373 -0.1021  0.5120 -0.4562
 1668TIP3    H129199   5.637   2.336   9.293 -0.6981 -0.9117  0.4799
 1668TIP3    H229200   5.644   2.318   9.443  1.1574  1.3196  0.7321
 1669TIP3   OH229201   4.303   0.955   8.588 -0.6710  0.1151  0.4674
 1669TIP3    H129202   4.212   0.982   8.597 -0.6620 -0.5348  3.1413
 1669TIP3    H229203   4.331   0.931   8.676  1.9559 -0.2072 -0.3501
 1670TIP3   OH229204   4.908   0.000   6.924  0.1276  0.1870  0.0345
 1670TIP3    H129205   4.909   0.096   6.928 -0.0703  0.2062 -0.3476
 1670TIP3    H229206   4.879  -0.020   6.835  2.1339 -0.2133 -0.5851
 1671TIP3   OH229207   0.775   6.705   9.227  0.7643  0.2008  0.0839
 1671TIP3    H129208   0.838   6.637   9.250  0.0264 -0.9372 -1.1533
 1671TIP3    H229209   0.754   6.689   9.135 -1.7633  0.1830  0.5952
 1672TIP3   OH229210   4.847   6.859   8.076  0.1713 -0.3776 -0.6465
 1672TIP3    H129211   4.761   6.819   8.088  0.4078 -0.7467 -0.1755
 1672TIP3    H229212   4.853   6.925   8.146 -0.5711  1.1281 -1.9274
 1673TIP3   OH229213   3.308   3.564   9.811 -0.1274  0.1973 -0.1446
 1673TIP3    H129214   3.337   3.653   9.795 -0.5884  0.0184 -2.2985
 1673TIP3    H229215   3.215   3.573   9.834 -0.6747  0.2228 -2.1429
 1674TIP3   OH229216   2.617   1.221   7.309  0.6905 -0.0918 -0.1806
 1674TIP3    H129217   2.548   1.202   7.245 -1.4843  0.6659  1.7999
 1674TIP3    H229218   2.610   1.315   7.324  1.3259 -0.2167  0.9871
 1675TIP3   OH229219   4.541   4.708   9.166 -0.4170  0.1966  0.1681
 1675TIP3    H129220   4.488   4.725   9.244 -0.9163 -0.0736 -0.1093
 1675TIP3    H229221   4.619   4.763   9.178 -0.7663  0.6161  0.5674
 1676TIP3   OH229222   1.974   3.850   7.176 -0.5782 -0.3055  0.0231
 1676TIP3    H129223   1.984   3.761   7.143  2.1862 -0.5252  1.1001
 1676TIP3    H229224   1.994   3.906   7.101  0.3353 -0.6805 -0.0270
 1677TIP3   OH229225   0.075   0.525   7.257 -0.2050 -0.2624 -0.5337
 1677TIP3    H129226   0.161   0.485   7.250  0.4182  0.7146  1.0221
 1677TIP3    H229227   0.079   0.603   7.202  0.2547  0.3253  0.3221
 1678TIP3   OH229228   6.568   4.952   7.301  0.3091  0.4589 -0.3637
 1678TIP3    H129229   6.635   4.978   7.238  0.5504 -0.8820 -0.6773
 1678TIP3    H229230   6.488   4.944   7.250 -0.0009  1.5735 -0.0766
 1679TIP3   OH229231   7.350   6.190   8.309 -0.2484 -0.1881  0.3031
 1679TIP3    H129232   7.426   6.131   8.309  0.0986  0.2483  0.9539
 1679TIP3    H229233   7.331   6.204   8.216  2.0942  1.7477  0.0192
 1680TIP3   OH229234   4.662   4.179   7.406  0.3160  1.0808 -0.4657
 1680TIP3    H129235   4.715   4.230   7.345  1.9140 -0.4804 -0.4453
 1680TIP3    H229236   4.572   4.195   7.378  0.8076  2.9849 -1.1490
 1681TIP3   OH229237   7.464   3.754   9.060 -0.1279 -0.5666  0.2420
 1681TIP3    H129238   7.464   3.839   9.105 -1.7995 -0.0743 -0.6178
 1681TIP3    H229239   7.540   3.758   9.002 -0.2129  0.3755  0.1777
 1682TIP3   OH229240   3.159   1.322   7.938 -0.5091 -0.1884 -0.3976
 1682TIP3    H129241   3.164   1.227   7.932 -1.9321 -0.2416 -0.9720
 1682TIP3    H229242   3.137   1.351   7.849 -0.9310  0.6132 -0.0475
 1683TIP3   OH229243   2.180   4.430   8.698  0.1327  1.0096  0.1833
 1683TIP3    H129244   2.276   4.427   8.695  0.2452  2.5861  1.0256
 1683TIP3    H229245   2.159   4.422   8.791 -0.6550 -0.8431 -0.1255
 1684TIP3   OH229246   5.659   5.409   8.149 -0.0786  0.5176  0.2429
 1684TIP3    H129247   5.678   5.406   8.055 -0.0289 -1.4288  0.2672
 1684TIP3    H229248   5.565   5.423   8.155 -0.2517 -0.4600 -0.1319
 1685TIP3   OH229249   3.495   6.793   9.491  0.2280 -0.6276 -0.0991
 1685TIP3    H129250   3.492   6.888   9.500  2.1242 -0.3252 -1.8765
 1685TIP3    H229251   3.587   6.774   9.472 -0.2857 -2.7066 -0.7399
 1686TIP3   OH229252   1.232   7.089   7.992 -0.9667  0.6796 -0.9166
 1686TIP3    H129253   1.302   7.113   7.932 -0.9598  3.4378  0.0618
 1686TIP3    H229254   1.265   7.010   8.036  0.8976  1.0958 -1.4724
 1687TIP3   OH229255   3.852   1.544   8.346  0.2572  0.4586 -0.5928
 1687TIP3    H129256   3.800   1.616   8.310 -0.3334  1.6440  2.3656
 1687TIP3    H229257   3.937   1.582   8.367  0.3549 -0.0150 -0.0934
 1688TIP3   OH229258   3.228   7.243   8.287  0.0310  0.9485 -0.1295
 1688TIP3    H129259   3.316   7.240   8.250  0.5350 -0.5233  1.0789
 1688TIP3    H229260   3.206   7.336   8.290  2.0187  1.4444  0.6146
 1689TIP3   OH229261   0.952   0.268   8.365  0.0639 -0.2356 -0.2916
 1689TIP3    H129262   0.991   0.184   8.387 -0.4185 -0.2134  0.7084
 1689TIP3    H229263   1.026   0.323   8.339  0.7626 -0.1304  1.7679
 1690TIP3   OH229264   5.399   1.624   9.184 -0.5330  0.0354 -0.0410
 1690TIP3    H129265   5.383   1.718   9.176 -0.1468  0.1222  0.2272
 1690TIP3    H229266   5.494   1.615   9.191 -0.6624 -0.2118  1.9710
 1691TIP3   OH229267   1.801   4.001   7.301 -0.0146 -0.2672 -0.1600
 1691TIP3    H129268   1.722   3.949   7.316  0.0389 -0.0691  0.9340
 1691TIP3    H229269   1.858   3.943   7.250 -0.5741 -0.6934 -0.3136
 1692TIP3   OH229270   6.588   3.097   8.771  0.0961 -0.3726 -0.5086
 1692TIP3    H129271   6.555   3.027   8.826  2.2747 -0.9483  0.1894
 1692TIP3    H229272   6.610   3.055   8.688 -0.7430 -0.0392 -0.9043
 1693TIP3   OH229273   2.094   7.214   7.249  0.2783  0.0271 -0.1352
 1693TIP3    H129274   2.162   7.278   7.226 -0.0023  0.0214 -0.9954
 1693TIP3    H229275   2.125   7.132   7.212  0.8687 -0.4667  1.3732
 1694TIP3   OH229276   4.926   0.718   7.386 -0.0791  0.9099 -0.0442
 1694TIP3    H129277   4.836   0.737   7.413  0.8143  1.2238  2.9702
 1694TIP3    H229278   4.920   0.631   7.346 -1.4835  0.0284  1.9050
 1695TIP3   OH229279   1.962   4.547   6.730 -0.0802  0.2621  0.1229
 1695TIP3    H129280   2.034   4.607   6.718  0.1342 -0.0310 -0.0776
 1695TIP3    H229281   1.887   4.589   6.687 -0.3447  1.1389  1.4119
 1696TIP3   OH229282   3.683   5.178   9.103  0.2720  0.1845 -0.1517
 1696TIP3    H129283   3.598   5.134   9.098  0.2545  0.1901  0.1006
 1696TIP3    H229284   3.674   5.239   9.175  0.2309  0.7494 -0.6327
 1697TIP3   OH229285   6.987   4.341   8.476 -0.3215 -0.4791  0.0832
 1697TIP3    H129286   7.006   4.372   8.565 -3.1362  0.9018  0.3146
 1697TIP3    H229287   6.898   4.306   8.482 -0.5452 -0.4126 -2.1942
 1698TIP3   OH229288   3.893   4.952   8.748 -0.4477  0.2645  0.3986
 1698TIP3    H129289   3.968   4.899   8.775 -0.2971 -0.2546 -0.9354
 1698TIP3    H229290   3.885   5.019   8.815  2.2252  1.3328 -0.2272
 1699TIP3   OH229291   7.507   3.051   9.033  0.1411 -0.1054  0.3028
 1699TIP3    H129292   7.587   3.052   9.085  1.3730 -0.0060 -1.4995
 1699TIP3    H229293   7.520   3.117   8.965 -0.5718 -1.4483 -1.2493
 1700TIP3   OH229294   7.211   1.443   7.696 -0.5646 -0.1155  0.2255
 1700TIP3    H129295   7.117   1.435   7.716 -0.4925 -0.8413  0.2960
 1700TIP3    H229296   7.243   1.509   7.758 -0.8166 -0.6504  0.9421
 1701TIP3   OH229297   1.460   3.861   7.625 -0.1953 -0.4016  0.4601
 1701TIP3    H129298   1.490   3.775   7.654 -0.1175  0.2206  2.3936
 1701TIP3    H229299   1.401   3.890   7.695  0.3640  1.4179  0.2287
 1702TIP3   OH229300   3.946   1.647   7.865  0.1881 -0.0634 -0.5267
 1702TIP3    H129301   4.022   1.704   7.853  0.7656 -1.1505 -2.2589
 1702TIP3    H229302   3.967   1.567   7.818 -1.5032 -0.9062  0.0561
 1703TIP3   OH229303   1.017   5.135   7.421  0.1393 -0.5156 -0.3063
 1703TIP3    H129304   0.967   5.135   7.340  0.2754 -0.7144 -0.3911
 1703TIP3    H229305   1.024   5.043   7.446 -1.7410 -0.3308  1.0882
 1704TIP3   OH229306   1.632   6.853   9.137  0.1893  0.0518  0.0894
 1704TIP3    H129307   1.577   6.916   9.184 -0.2665  1.1896 -1.8582
 1704TIP3    H229308   1.619   6.771   9.184 -1.7393  0.6985  0.8141
 1705TIP3   OH229309   0.781   1.913   8.415 -0.0378  0.3146 -0.0385
 1705TIP3    H129310   0.777   1.823   8.446  0.3982  0.4006  0.2787
 1705TIP3    H229311   0.703   1.955   8.452  0.1850  0.2731  0.4899
 1706TIP3   OH229312   5.168   4.831   7.355 -0.2341 -0.1302 -0.5369
 1706TIP3    H129313   5.232   4.774   7.313  0.1063 -2.7681  3.0801
 1706TIP3    H229314   5.187   4.918   7.320  2.9351 -1.3492 -2.2967
 1707TIP3   OH229315   2.318   1.005   6.759  0.0334  0.4161  0.1105
 1707TIP3    H129316   2.248   1.009   6.695 -1.0200  2.5803  1.3113
 1707TIP3    H229317   2.395   0.978   6.709 -1.2077 -0.0726 -1.6126
 1708TIP3   OH229318   1.982   5.891   8.993  0.6816 -0.0372 -0.4624
 1708TIP3    H129319   2.056   5.947   8.968  0.2248  1.0810  0.6184
 1708TIP3    H229320   1.929   5.884   8.914  1.2205  0.2997 -0.8596
 1709TIP3   OH229321   3.497   5.440   7.008  0.4801 -0.0506 -0.2767
 1709TIP3    H129322   3.542   5.519   6.977 -2.1475  2.2337  1.2160
 1709TIP3    H229323   3.457   5.403   6.929 -1.3689  2.3580 -0.5692
 1710TIP3   OH229324   7.104   4.517   8.279  0.5650 -0.4616 -0.2680
 1710TIP3    H129325   7.104   4.557   8.366 -4.3184  0.5587 -0.4977
 1710TIP3    H229326   7.096   4.423   8.296 -0.2341 -0.2817  0.3878
 1711TIP3   OH229327   2.895   6.703   9.052 -0.1035  0.1668  0.7280
 1711TIP3    H129328   2.857   6.671   9.133  0.8951  1.6254  1.8200
 1711TIP3    H229329   2.871   6.796   9.049 -0.3586  0.0856 -0.8042
 1712TIP3   OH229330   0.203   0.972   7.264  0.1151 -0.4336  0.2282
 1712TIP3    H129331   0.288   1.006   7.239 -0.1168 -1.1431 -1.7158
 1712TIP3    H229332   0.207   0.879   7.242 -1.2878 -0.3916 -0.3002
 1713TIP3   OH229333   3.207   6.646   8.173  0.3619  0.2556  0.0114
 1713TIP3    H129334   3.143   6.680   8.110 -0.1271 -0.1870  0.2598
 1713TIP3    H229335   3.275   6.607   8.118  0.0098 -0.0013 -0.2492
 1714TIP3   OH229336   3.114   0.038   8.031  0.4857 -0.1286 -0.5614
 1714TIP3    H129337   3.019   0.026   8.023  0.5934 -0.9662 -0.6734
 1714TIP3    H229338   3.148  -0.049   8.052  1.1962  0.2355 -0.1681
 1715TIP3   OH229339   5.233   3.356   9.543 -0.4861  0.5908 -0.2986
 1715TIP3    H129340   5.194   3.269   9.535  0.6564  0.2011 -2.0569
 1715TIP3    H229341   5.174   3.414   9.494  0.9307  0.0376 -2.7802
 1716TIP3   OH229342   1.986   6.044   8.449  0.5565 -0.3099  0.1585
 1716TIP3    H129343   1.962   5.984   8.520 -0.8911 -1.0210 -0.8622
 1716TIP3    H229344   1.947   6.004   8.370  0.7424  1.2688 -0.7730
 1717TIP3   OH229345   2.513   3.547   9.504  0.2518 -0.0171 -0.0624
 1717TIP3    H129346   2.568   3.492   9.561 -0.7586 -0.9246  0.0929
 1717TIP3    H229347   2.450   3.586   9.564  0.2385  0.3806 -0.3385
 1718TIP3   OH229348   1.379   3.374   8.633 -0.6678  0.0730  0.2981
 1718TIP3    H129349   1.362   3.467   8.645 -1.8504 -0.0743 -0.1835
 1718TIP3    H229350   1.466   3.371   8.592 -0.6254  0.9533  0.3068
 1719TIP3   OH229351   1.632   1.713   7.625  0.0115  0.6240 -0.0540
 1719TIP3    H129352   1.656   1.793   7.578  1.9244 -0.1537 -0.4648
 1719TIP3    H229353   1.697   1.648   7.598 -2.2508 -1.4964 -0.7686
 1720TIP3   OH229354   6.114   2.140   7.481 -0.0513 -0.1599  0.3145
 1720TIP3    H129355   6.064   2.158   7.560  0.9758  0.9318  0.7297
 1720TIP3    H229356   6.071   2.062   7.443 -1.4574  0.1816  1.1418
 1721TIP3   OH229357   5.214   4.614   7.965  0.2053 -0.2614  0.0447
 1721TIP3    H129358   5.248   4.704   7.974  0.1358 -0.0265 -1.6090
 1721TIP3    H229359   5.133   4.624   7.914  0.4826 -1.2933 -0.6330
 1722TIP3   OH229360   0.294   0.353   7.253  0.2845  0.1873  0.7621
 1722TIP3    H129361   0.363   0.319   7.197 -0.3447  2.9592 -1.9863
 1722TIP3    H229362   0.232   0.280   7.260  1.4334 -0.9681 -0.3495
 1723TIP3   OH229363   6.520   6.434   8.963 -0.7854  0.1676  0.0588
 1723TIP3    H129364   6.550   6.343   8.955 -0.7171  0.2216 -0.3484
 1723TIP3    H229365   6.471   6.437   9.045  2.4607  0.6658  2.1659
 1724TIP3   OH229366   4.667   0.496   8.794 -0.1631  0.2383  0.4308
 1724TIP3    H129367   4.649   0.464   8.705 -1.5325  2.5258 -0.1883
 1724TIP3    H229368   4.745   0.448   8.821  0.0302 -0.8507 -1.8319
 1725TIP3   OH229369   1.795   5.530   7.181 -0.5241 -0.1865  0.2347
 1725TIP3    H129370   1.705   5.544   7.151 -0.1273  0.5863 -0.6469
 1725TIP3    H229371   1.842   5.501   7.102  0.1875  0.2614  0.4841
 1726TIP3   OH229372   4.850   6.698   8.737 -0.1666 -0.2823  0.3299
 1726TIP3    H129373   4.903   6.670   8.812  0.1108  0.9135  0.5955
 1726TIP3    H229374   4.909   6.691   8.662 -0.3363 -1.1301  0.2628
 1727TIP3   OH229375   4.299   1.142   7.738  0.1456 -0.2916  0.1789
 1727TIP3    H129376   4.332   1.072   7.794  0.7918 -0.3823 -0.3055
 1727TIP3    H229377   4.336   1.124   7.652  0.7978  0.9621  0.1710
 1728TIP3   OH229378   7.544   6.310   7.181  0.2146  0.3332  0.1455
 1728TIP3    H129379   7.458   6.272   7.161  0.6047 -1.3449  1.4264
 1728TIP3    H229380   7.602   6.235   7.186  1.1858  1.1420  2.0779
 1729TIP3   OH229381   1.286   5.564   8.185  0.4349  0.4058 -0.3108
 1729TIP3    H129382   1.242   5.562   8.100 -0.7076  1.1294  0.2304
 1729TIP3    H229383   1.310   5.656   8.198  0.4214  0.3410  0.2321
 1730TIP3   OH229384   5.788   1.150   7.001 -0.5888  0.2967 -0.5891
 1730TIP3    H129385   5.861   1.206   7.026  0.1993  0.0749 -2.3122
 1730TIP3    H229386   5.717   1.212   6.981 -0.0768  0.6491 -1.3734
 1731TIP3   OH229387   4.776   4.850   9.192  0.4183  0.1713  0.6207
 1731TIP3    H129388   4.743   4.914   9.254 -1.0105  0.6205 -0.5427
 1731TIP3    H229389   4.809   4.902   9.118 -0.6909 -0.3955 -0.3081
 1732TIP3   OH229390   7.495   6.331   8.496  0.3748 -0.1329 -0.1865
 1732TIP3    H129391   7.477   6.292   8.410 -2.6488  0.6827 -0.0393
 1732TIP3    H229392   7.501   6.256   8.555 -3.0937 -0.6680 -0.2802
 1733TIP3   OH229393   2.079   6.790   7.875  0.2404  0.2612  0.0921
 1733TIP3    H129394   2.122   6.794   7.960  1.1831 -1.2526 -0.2760
 1733TIP3    H229395   2.142   6.747   7.818 -1.8397 -2.4801 -0.3594
 1734TIP3   OH229396   1.892   4.938   6.814  0.5398 -0.3388  0.2186
 1734TIP3    H129397   1.817   4.959   6.870 -0.0063  1.6875 -1.1825
 1734TIP3    H229398   1.959   5.001   6.840  0.1674  0.8533 -1.5596
 1735TIP3   OH229399   3.655   3.038   7.079  0.4848  0.0074  0.3508
 1735TIP3    H129400   3.561   3.038   7.099  0.0492 -0.7428 -1.4243
 1735TIP3    H229401   3.659   3.072   6.989  1.8311 -0.7984  0.0863
 1736TIP3   OH229402   6.607   3.721   9.348  0.1283  0.3527  0.4553
 1736TIP3    H129403   6.531   3.677   9.310  0.5130 -0.6746  0.8434
 1736TIP3    H229404   6.665   3.650   9.375  1.0841  1.1187  0.4689
 1737TIP3   OH229405   0.482   7.413   8.736  0.3963  0.4025 -0.4351
 1737TIP3    H129406   0.559   7.413   8.793  0.7502 -1.6299 -0.8365
 1737TIP3    H229407   0.437   7.331   8.756 -0.6765  0.6823 -1.5325
 1738TIP3   OH229408   5.803   4.795   7.381 -0.6465  0.4785 -0.5013
 1738TIP3    H129409   5.745   4.784   7.306 -2.4733 -0.6602  0.9909
 1738TIP3    H229410   5.888   4.765   7.351 -0.9907  1.3606 -2.4925
 1739TIP3   OH229411   7.092   3.323   7.169  0.6651 -0.0751 -0.2495
 1739TIP3    H129412   7.078   3.317   7.075 -3.3496 -1.1628  0.2252
 1739TIP3    H229413   7.130   3.238   7.193 -3.0789 -2.0212 -0.4545
 1740TIP3   OH229414   5.042   7.372   9.427 -0.1743  0.0250 -0.3931
 1740TIP3    H129415   5.040   7.462   9.394 -0.6490  0.2448  0.2260
 1740TIP3    H229416   5.117   7.333   9.383 -0.0564  0.6766 -0.7911
 1741TIP3   OH229417   2.899   1.031   7.515 -0.2698 -0.0497  0.2682
 1741TIP3    H129418   2.814   1.072   7.527 -1.6696 -2.2359 -1.3111
 1741TIP3    H229419   2.879   0.946   7.476  2.7253 -0.1959 -1.2119
 1742TIP3   OH229420   4.121   6.156   7.648  0.4180  0.7058  0.3469
 1742TIP3    H129421   4.106   6.069   7.610  1.0699  0.9438 -0.4971
 1742TIP3    H229422   4.166   6.205   7.579 -0.4274  1.8952  0.6112
 1743TIP3   OH229423   0.028   4.563   7.121 -0.1289  0.0374  0.2078
 1743TIP3    H129424   0.003   4.545   7.212  0.8116 -5.4107 -0.2506
 1743TIP3    H229425   0.121   4.539   7.117 -0.2115 -0.0541 -2.1931
 1744TIP3   OH229426   7.203   4.162   9.218 -0.2833 -0.2372 -0.4629
 1744TIP3    H129427   7.176   4.132   9.131 -2.4561  0.3283 -0.0280
 1744TIP3    H229428   7.156   4.105   9.278  1.2062 -0.6208  0.3929
 1745TIP3   OH229429   6.994   1.361   7.262  0.2237 -0.1064 -0.0473
 1745TIP3    H129430   6.968   1.385   7.173 -1.7637  0.6045  0.6539
 1745TIP3    H229431   7.017   1.445   7.303  1.0829 -0.4220  0.1221
 1746TIP3   OH229432   1.331   3.238   8.097 -0.9709  0.1035  0.6125
 1746TIP3    H129433   1.267   3.229   8.168 -1.3386  0.2810  0.3125
 1746TIP3    H229434   1.414   3.213   8.136 -0.9893  1.1591  1.4039
 1747TIP3   OH229435   5.657   0.700   9.065  0.3613  0.2084 -0.0083
 1747TIP3    H129436   5.628   0.633   9.127 -0.0004  0.7212  0.3909
 1747TIP3    H229437   5.590   0.701   8.997  1.2401 -1.0062 -0.9157
 1748TIP3   OH229438   3.547   3.544   7.836 -0.8310  0.0595 -0.0931
 1748TIP3    H129439   3.577   3.626   7.875 -1.6296  0.8865 -1.1410
 1748TIP3    H229440   3.480   3.571   7.773 -1.5027 -1.4525 -0.0627
 1749TIP3   OH229441   4.942   2.760   7.222 -0.1551  0.4328 -0.3206
 1749TIP3    H129442   5.008   2.736   7.157 -0.1452 -0.3521 -0.0345
 1749TIP3    H229443   4.877   2.810   7.173  0.0827  0.2346 -0.8411
 1750TIP3   OH229444   2.007   1.879   7.444 -0.2576  0.0606  0.1358
 1750TIP3    H129445   2.047   1.796   7.472 -0.8431 -0.3389 -0.1798
 1750TIP3    H229446   1.992   1.867   7.350 -1.1157  0.1979  0.2517
 1751TIP3   OH229447   6.858   5.362   7.955  0.2731 -0.1049  0.2548
 1751TIP3    H129448   6.821   5.370   7.866  1.8395  0.1824 -0.3983
 1751TIP3    H229449   6.783   5.379   8.013 -0.6162  0.5276 -1.0098
 1752TIP3   OH229450   1.516   3.913   8.248 -0.2895  0.1346 -0.0907
 1752TIP3    H129451   1.430   3.903   8.290 -0.0779  2.5011  1.0820
 1752TIP3    H229452   1.578   3.876   8.310 -0.2698  0.6397  0.1984
 1753TIP3   OH229453   2.270   2.149   8.290  0.1127 -0.0229  0.1095
 1753TIP3    H129454   2.268   2.054   8.303  0.5839  0.1437  1.5644
 1753TIP3    H229455   2.195   2.181   8.341 -0.2587  0.3669 -0.6676
 1754TIP3   OH229456   6.471   1.319   7.388 -0.1396  0.4037 -0.2884
 1754TIP3    H129457   6.531   1.269   7.333  1.0486  0.4529  0.9147
 1754TIP3    H229458   6.427   1.252   7.441 -0.0969  0.4818 -0.1559
 1755TIP3   OH229459   7.356   7.342   8.087  0.2972  0.1802 -0.1093
 1755TIP3    H129460   7.393   7.275   8.144  2.5887  0.5587 -1.0488
 1755TIP3    H229461   7.284   7.298   8.041 -0.0915 -0.7645  1.3299
 1756TIP3   OH229462   0.443   0.325   9.459  0.2361  0.3329 -0.2578
 1756TIP3    H129463   0.413   0.256   9.400 -0.6269  0.3771  0.1106
 1756TIP3    H229464   0.392   0.402   9.433 -0.2204  0.3302  0.5862
 1757TIP3   OH229465   2.659   4.357   8.279  0.3512 -0.2677  0.1219
 1757TIP3    H129466   2.735   4.387   8.329  0.8724  1.9039 -1.7661
 1757TIP3    H229467   2.593   4.339   8.345  2.1096 -1.0967  1.7691
 1758TIP3   OH229468   2.566   3.918   8.298 -0.3556  0.1860 -0.7269
 1758TIP3    H129469   2.553   3.834   8.343 -1.7067  0.3832 -0.6914
 1758TIP3    H229470   2.569   3.895   8.206  0.4286 -0.0098 -0.6616
 1759TIP3   OH229471   7.294   3.563   8.169  0.2264 -0.2107  0.5040
 1759TIP3    H129472   7.378   3.607   8.158  0.3714 -0.4285  0.7127
 1759TIP3    H229473   7.265   3.588   8.257  0.4202 -0.7066  0.7142
 1760TIP3   OH229474   3.846   2.584   9.279 -0.4869 -1.1198  0.3820
 1760TIP3    H129475   3.879   2.497   9.255 -0.5065 -1.0587  0.1296
 1760TIP3    H229476   3.817   2.575   9.370 -0.6905 -1.4364  0.2866
 1761TIP3   OH229477   0.893   0.123   7.990 -0.6713  0.3686 -0.1230
 1761TIP3    H129478   0.951   0.192   7.959  0.3998  0.3546  1.7460
 1761TIP3    H229479   0.818   0.170   8.027  0.3355  0.5892  1.6966
 1762TIP3   OH229480   4.814   3.240   7.453  0.3246  0.1257  0.2817
 1762TIP3    H129481   4.858   3.156   7.443 -0.6521 -0.4487  0.6466
 1762TIP3    H229482   4.882   3.305   7.439  1.0782 -0.7271 -0.0912
 1763TIP3   OH229483   0.961   6.881   8.795 -0.1188 -0.0961  0.3724
 1763TIP3    H129484   0.893   6.941   8.762 -0.3410 -0.7342 -0.3752
 1763TIP3    H229485   1.035   6.894   8.736 -0.3038 -0.8193 -0.0307
 1764TIP3   OH229486   0.795   4.815   7.490 -0.0498 -0.4003  0.5587
 1764TIP3    H129487   0.740   4.892   7.486 -0.5872 -0.8272 -1.0156
 1764TIP3    H229488   0.811   4.791   7.399  1.3279 -1.2965  0.9843
 1765TIP3   OH229489   6.075   5.185   9.409 -0.0840 -0.2718  0.2842
 1765TIP3    H129490   6.016   5.243   9.361 -1.6141 -1.5283  0.5599
 1765TIP3    H229491   6.027   5.162   9.489  0.6378 -1.5768  0.3731
 1766TIP3   OH229492   5.899   4.118   6.935 -0.1983 -0.8511  0.2603
 1766TIP3    H129493   5.939   4.158   6.858 -1.5997  0.5165  0.2015
 1766TIP3    H229494   5.817   4.165   6.947  0.1037 -0.7974  2.7917
 1767TIP3   OH229495   0.143   1.683   8.312 -0.3778 -0.6137 -0.8920
 1767TIP3    H129496   0.128   1.752   8.376  0.1429 -1.3765  0.0705
 1767TIP3    H229497   0.192   1.726   8.242 -0.3944  0.0755 -0.4921
 1768TIP3   OH229498   3.119   2.254   6.934 -0.0921 -0.1843  0.3999
 1768TIP3    H129499   3.164   2.237   6.851  0.0043  0.0694  0.4002
 1768TIP3    H229500   3.144   2.180   6.990  0.6939  0.1888  0.5533
 1769TIP3   OH229501   1.359   2.342   6.455 -0.1537  0.4992 -0.1195
 1769TIP3    H129502   1.361   2.256   6.412 -0.6692  0.6926 -0.5373
 1769TIP3    H229503   1.451   2.370   6.457 -0.2165  1.0879 -2.3298
 1770TIP3   OH229504   7.538   4.546   7.381  0.6042  0.2164  0.2678
 1770TIP3    H129505   7.496   4.502   7.455  0.2787 -0.3814 -0.2641
 1770TIP3    H229506   7.538   4.639   7.405  0.0899  0.0792  0.8165
 1771TIP3   OH229507   3.840   6.037   6.643 -0.4102 -0.6419 -0.2231
 1771TIP3    H129508   3.812   6.106   6.703 -0.8514 -0.8668 -0.1697
 1771TIP3    H229509   3.863   5.963   6.699  2.3128  0.1836 -0.0936
 1772TIP3   OH229510   7.191   4.553   7.400 -0.3427  0.5825 -0.5279
 1772TIP3    H129511   7.236   4.527   7.320  0.9170  2.3572 -0.4581
 1772TIP3    H229512   7.145   4.474   7.429  1.7779 -1.0228 -1.2607
 1773TIP3   OH229513   0.059   6.480   7.394 -0.1571  1.0057 -0.2504
 1773TIP3    H129514   0.057   6.573   7.374  1.8376  0.9816 -0.7206
 1773TIP3    H229515   0.023   6.438   7.316  0.4334  1.3148 -0.6979
 1774TIP3   OH229516   1.668   5.844   8.061 -0.3425  0.0973  0.1728
 1774TIP3    H129517   1.644   5.839   7.968 -1.7771  1.1006  0.4423
 1774TIP3    H229518   1.593   5.888   8.102  1.3174  1.9629  1.3892
 1775TIP3   OH229519   3.087   7.004   8.885  0.0984  0.1390 -0.1915
 1775TIP3    H129520   3.166   6.982   8.934 -0.7819 -0.2643  1.1041
 1775TIP3    H229521   3.114   6.999   8.793  1.0088 -2.2779  0.1363
 1776TIP3   OH229522   4.916   1.700   8.328 -0.3213 -0.0811  0.4793
 1776TIP3    H129523   4.913   1.728   8.237 -0.8939 -0.5799  0.3414
 1776TIP3    H229524   4.828   1.669   8.347 -0.1730 -0.1044  1.1661
 1777TIP3   OH229525   5.878   6.526   8.589 -0.2912  0.1978 -0.3706
 1777TIP3    H129526   5.899   6.619   8.578  1.2684 -0.0628  0.1454
 1777TIP3    H229527   5.782   6.524   8.595 -0.3034  1.9137  0.8772
 1778TIP3   OH229528   1.226   3.605   8.393  0.3868 -0.5295 -0.1411
 1778TIP3    H129529   1.207   3.605   8.487  0.6829 -1.7073 -0.0611
 1778TIP3    H229530   1.321   3.592   8.389  0.5354  0.6147 -0.5956
 1779TIP3   OH229531   5.966   0.294   8.949 -0.0089 -0.2077  0.1343
 1779TIP3    H129532   5.877   0.281   8.914 -1.1968  0.9163  2.4736
 1779TIP3    H229533   6.014   0.217   8.921 -1.5677 -0.6302 -1.6223
 1780TIP3   OH229534   5.992   0.960   8.425 -0.0111 -0.3529 -0.3802
 1780TIP3    H129535   5.998   0.868   8.397 -2.2548 -0.3916 -0.8551
 1780TIP3    H229536   5.901   0.972   8.449 -0.1504  2.2249 -1.8944
 1781TIP3   OH229537   7.257   6.547   8.460  0.5850 -0.6726 -0.1646
 1781TIP3    H129538   7.311   6.626   8.451 -0.2563 -0.2509 -1.8113
 1781TIP3    H229539   7.307   6.491   8.520  0.1615  1.9659  2.8681
 1782TIP3   OH229540   1.423   6.675   8.923 -0.3274  0.2990  0.5860
 1782TIP3    H129541   1.446   6.657   9.014 -0.5605  0.0048  0.5877
 1782TIP3    H229542   1.457   6.763   8.906 -0.3548  0.3870  0.9800
 1783TIP3   OH229543   2.102   4.612   7.571 -0.0700 -0.1824  0.2864
 1783TIP3    H129544   2.023   4.648   7.611  0.3708 -0.6529  1.6723
 1783TIP3    H229545   2.072   4.540   7.516 -0.8668  1.5942 -1.7191
 1784TIP3   OH229546   2.289   3.792   7.861 -0.3056  0.4332  0.0548
 1784TIP3    H129547   2.329   3.754   7.940  1.5101  0.1717 -0.9401
 1784TIP3    H229548   2.229   3.725   7.830 -1.5412  0.7906  1.5376
 1785TIP3   OH229549   3.946   1.941   7.058  0.4855  0.2966  0.1492
 1785TIP3    H129550   3.881   1.964   6.992  0.1606 -0.4081  0.2177
 1785TIP3    H229551   3.911   1.976   7.140 -0.5165 -1.2903  0.4351
 1786TIP3   OH229552   2.375   1.854   8.696  0.4559 -0.0833 -0.4857
 1786TIP3    H129553   2.432   1.929   8.712 -0.5756  0.7839 -0.7289
 1786TIP3    H229554   2.426   1.778   8.723  2.0267  0.5837 -1.4682
 1787TIP3   OH229555   3.328   0.448   9.102  0.1898 -0.1770 -0.1995
 1787TIP3    H129556   3.331   0.352   9.111  0.8483 -0.0824  0.6469
 1787TIP3    H229557   3.235   0.469   9.101  0.0415 -0.7611  0.3960
 1788TIP3   OH229558   7.481   1.894   8.227 -0.8452 -0.5483 -0.4799
 1788TIP3    H129559   7.543   1.868   8.160  1.8371 -0.0092  1.6170
 1788TIP3    H229560   7.482   1.990   8.226 -1.4873 -0.5328 -0.2851
 1789TIP3   OH229561   1.800   6.051   7.814 -0.3600 -0.0999  0.0105
 1789TIP3    H129562   1.733   6.062   7.881  0.2079  0.0386  0.5603
 1789TIP3    H229563   1.754   6.068   7.732 -0.3143  3.3830  0.5412
 1790TIP3   OH229564   5.188   5.160   7.568  0.1282  0.0230 -0.4129
 1790TIP3    H129565   5.160   5.248   7.594 -0.0922  0.1583 -1.0700
 1790TIP3    H229566   5.217   5.118   7.649  1.0076  0.9797 -0.2177
 1791TIP3   OH229567   6.783   0.854   7.357  0.6642 -0.4582 -0.5744
 1791TIP3    H129568   6.794   0.941   7.319  0.9809 -0.0634  0.3966
 1791TIP3    H229569   6.702   0.861   7.408  2.3216  0.2523  2.1073
 1792TIP3   OH229570   0.345   6.620   8.322  0.5139 -0.9111 -0.3312
 1792TIP3    H129571   0.253   6.595   8.334  0.3135 -0.5357 -0.9894
 1792TIP3    H229572   0.342   6.689   8.255  1.0950  0.4066  0.9441
 1793TIP3   OH229573   3.246   5.489   7.672  0.0678  0.6620  0.3026
 1793TIP3    H129574   3.300   5.542   7.613 -0.7642  1.2208  0.0319
 1793TIP3    H229575   3.157   5.518   7.656 -0.6100 -1.9396 -0.9752
 1794TIP3   OH229576   0.341   2.515   8.634  0.4708  0.3306  0.0584
 1794TIP3    H129577   0.247   2.535   8.637  0.3650 -0.1000 -0.3568
 1794TIP3    H229578   0.380   2.593   8.595  0.2596  0.4221  0.0256
 1795TIP3   OH229579   2.681   0.201   8.454 -0.0853 -0.0137  0.3324
 1795TIP3    H129580   2.702   0.287   8.418  1.1717 -0.7066 -0.6369
 1795TIP3    H229581   2.604   0.172   8.405  1.7276 -1.0391 -2.0502
 1796TIP3   OH229582   6.625   4.356   9.259  0.3040 -0.2864  0.5962
 1796TIP3    H129583   6.601   4.267   9.232 -0.5998 -0.4082  1.7555
 1796TIP3    H229584   6.585   4.367   9.345  0.6004  1.1686  0.5721
 1797TIP3   OH229585   4.919   4.411   8.883  0.4764  0.1804  0.1617
 1797TIP3    H129586   4.993   4.460   8.848  1.0128 -0.1257  0.8475
 1797TIP3    H229587   4.880   4.470   8.948  1.8099 -0.6746  1.8278
 1798TIP3   OH229588   2.978   5.812   8.411 -0.4013  0.4656  0.2123
 1798TIP3    H129589   2.935   5.818   8.496 -0.4273  0.5302  0.1944
 1798TIP3    H229590   2.907   5.813   8.347 -0.3127  3.3432  0.0288
 1799TIP3   OH229591   4.867   6.895   7.805 -0.9214  0.2302  0.4791
 1799TIP3    H129592   4.887   6.988   7.794 -0.5875  0.3070  1.5615
 1799TIP3    H229593   4.887   6.878   7.897 -0.8268 -0.9560  0.2481
 1800TIP3   OH229594   4.192   2.311   9.059 -0.3031 -0.4041  0.5196
 1800TIP3    H129595   4.196   2.235   9.000  0.4098 -0.7861  1.0414
 1800TIP3    H229596   4.100   2.315   9.086 -0.8056  0.2078 -1.1427
 1801TIP3   OH229597   7.390   4.966   7.653 -0.2989 -0.1225  0.1071
 1801TIP3    H129598   7.425   4.942   7.567  4.3791  0.1487  1.6724
 1801TIP3    H229599   7.392   4.885   7.704  2.5307  0.6655  1.4600
 1802TIP3   OH229600   1.920   2.534   7.461  0.0135 -0.6033  0.0556
 1802TIP3    H129601   1.970   2.610   7.433 -0.2589 -0.8266 -1.1047
 1802TIP3    H229602   1.981   2.482   7.513 -0.1426  0.9686  1.9055
 1803TIP3   OH229603   2.811   3.528   8.679 -0.1479 -0.3410 -0.1337
 1803TIP3    H129604   2.745   3.535   8.748  0.7410 -0.8992  0.7950
 1803TIP3    H229605   2.892   3.558   8.720  0.8913 -2.8926 -0.1641
 1804TIP3   OH229606   5.863   0.338   7.396  0.6387  0.0306 -0.1069
 1804TIP3    H129607   5.879   0.312   7.487 -0.5295 -0.3375  0.0043
 1804TIP3    H229608   5.848   0.432   7.400 -0.8471 -0.2010  0.3021
 1805TIP3   OH229609   0.368   2.912   8.295 -0.7997  0.0910  0.1440
 1805TIP3    H129610   0.406   2.917   8.382 -0.2202 -0.7115 -0.0514
 1805TIP3    H229611   0.274   2.915   8.309 -0.7974 -2.1332  0.9818
 1806TIP3   OH229612   5.522   3.040   7.285 -0.3840  0.0032  0.1197
 1806TIP3    H129613   5.520   3.062   7.192 -0.4677 -1.0005 -0.1307
 1806TIP3    H229614   5.443   3.079   7.321 -1.6549 -1.6296 -0.7375
 1807TIP3   OH229615   2.361   6.698   8.029 -0.3180  0.9277 -0.2527
 1807TIP3    H129616   2.435   6.694   8.090 -0.3037  0.8731 -0.2737
 1807TIP3    H229617   2.401   6.722   7.945 -0.2597  0.4145 -0.3746
 1808TIP3   OH229618   5.928   4.699   7.939  0.0777 -0.0795 -0.2889
 1808TIP3    H129619   5.917   4.654   7.855 -1.5019  1.1927 -0.8284
 1808TIP3    H229620   5.858   4.764   7.940  0.3747  0.2739  1.8178
 1809TIP3   OH229621   0.860   0.780   9.110  0.2290 -0.4320  0.1723
 1809TIP3    H129622   0.785   0.827   9.147  0.1310 -0.5023  0.0640
 1809TIP3    H229623   0.911   0.753   9.186  0.2371 -0.2313  0.2393
 1810TIP3   OH229624   4.791   3.126   8.857 -0.2300  0.0962 -0.1291
 1810TIP3    H129625   4.830   3.041   8.836 -1.1259 -0.9542  2.1338
 1810TIP3    H229626   4.786   3.127   8.952  0.1134  2.8957 -0.0702
 1811TIP3   OH229627   3.307   0.677   7.580  0.6336 -0.2260 -0.0425
 1811TIP3    H129628   3.296   0.748   7.517  0.1585 -0.2908 -0.0296
 1811TIP3    H229629   3.332   0.721   7.662  0.0959 -0.0582  0.0302
 1812TIP3   OH229630   3.613   6.064   8.039  0.0932  0.3744 -0.3605
 1812TIP3    H129631   3.692   6.034   8.084 -0.1057  0.5430  0.1164
 1812TIP3    H229632   3.602   6.004   7.966  1.4846  1.2145 -1.3066
 1813TIP3   OH229633   1.772   3.809   6.984  0.2794 -0.3128  0.1430
 1813TIP3    H129634   1.771   3.891   6.934 -1.1059 -0.5844 -0.3266
 1813TIP3    H229635   1.840   3.757   6.943  0.5768  0.2693 -0.1165
 1814TIP3   OH229636   3.562   6.567   7.072  0.1365 -0.5198 -0.3389
 1814TIP3    H129637   3.563   6.568   6.977  0.8262 -0.2843 -0.3350
 1814TIP3    H229638   3.651   6.591   7.098  0.1547 -1.2763  0.3612
 1815TIP3   OH229639   6.870   2.939   6.885 -0.0423  0.1567  0.2553
 1815TIP3    H129640   6.891   3.029   6.861 -1.6149  1.4087  3.0115
 1815TIP3    H229641   6.778   2.929   6.862  0.2201 -0.9388 -0.3990
 1816TIP3   OH229642   7.170   0.495   6.938 -0.2722 -0.3758 -0.0049
 1816TIP3    H129643   7.205   0.570   6.891  0.9266 -1.5206 -1.0066
 1816TIP3    H229644   7.246   0.441   6.957 -1.0093 -0.9679  1.4222
 1817TIP3   OH229645   2.122   0.659   8.146  0.4478 -0.0609 -0.6601
 1817TIP3    H129646   2.111   0.568   8.175  0.3982 -0.5338 -2.0477
 1817TIP3    H229647   2.072   0.710   8.209 -0.2171 -1.0839 -0.3222
 1818TIP3   OH229648   5.974   0.118   9.173 -0.5272  0.1322  0.3586
 1818TIP3    H129649   5.992   0.025   9.165  1.3660  0.6013 -1.5980
 1818TIP3    H229650   6.025   0.145   9.250 -0.6307 -0.3246  0.5933
 1819TIP3   OH229651   6.750   2.160   8.782 -0.1992 -0.1811 -0.2734
 1819TIP3    H129652   6.665   2.203   8.774 -0.4446 -0.7851 -1.0223
 1819TIP3    H229653   6.813   2.231   8.794 -0.7446  0.2983 -0.2292
 1820TIP3   OH229654   4.635   0.153   7.028  1.1528  0.2325  0.3215
 1820TIP3    H129655   4.624   0.101   6.949 -1.8535 -2.2225  2.1129
 1820TIP3    H229656   4.631   0.244   6.998 -1.5906 -0.5885 -2.2443
 1821TIP3   OH229657   7.395   2.221   8.543 -0.6095  0.3385 -0.3198
 1821TIP3    H129658   7.312   2.267   8.554 -1.0368 -0.3727 -0.5254
 1821TIP3    H229659   7.376   2.130   8.566  0.9457  0.7201  3.2355
 1822TIP3   OH229660   5.649   7.435   8.050  0.0830  0.2533  0.3529
 1822TIP3    H129661   5.584   7.397   8.109 -0.3500  0.3917 -0.0360
 1822TIP3    H229662   5.719   7.370   8.048 -0.5418 -0.4221 -0.1104
 1823TIP3   OH229663   5.766   3.819   7.154  0.3740  0.2223 -0.0635
 1823TIP3    H129664   5.694   3.875   7.126  1.0317  0.6364 -0.9696
 1823TIP3    H229665   5.762   3.821   7.250  0.2100  1.5797 -0.0843
 1824TIP3   OH229666   0.867   7.489   9.582  0.4226  0.0732 -0.0429
 1824TIP3    H129667   0.820   7.514   9.502  0.9101  0.6445 -0.1609
 1824TIP3    H229668   0.822   7.410   9.613 -2.6075  2.2263  1.5673
 1825TIP3   OH229669   3.220   6.740   9.435  0.3348  0.1131  0.1591
 1825TIP3    H129670   3.200   6.824   9.475 -0.6376  0.0143 -0.0978
 1825TIP3    H229671   3.315   6.743   9.420  0.4254  0.8595  0.8185
 1826TIP3   OH229672   2.488   1.241   9.609  0.3231  0.0757 -0.3600
 1826TIP3    H129673   2.450   1.156   9.588  0.5789  0.1644 -1.2647
 1826TIP3    H229674   2.578   1.221   9.637 -0.1318 -0.0730  1.0366
 1827TIP3   OH229675   0.323   0.171   9.266 -0.2955 -0.0174  0.2771
 1827TIP3    H129676   0.359   0.188   9.179 -0.7030  0.1540  0.1395
 1827TIP3    H229677   0.238   0.216   9.267 -0.0533  0.4446  0.9569
 1828TIP3   OH229678   1.742   6.019   8.811  0.0652  0.1251  0.2994
 1828TIP3    H129679   1.655   6.057   8.824 -0.1555 -0.7729  1.6471
 1828TIP3    H229680   1.726   5.925   8.800  0.8218  0.0261 -0.0178
 1829TIP3   OH229681   2.966   3.151   8.321 -0.0347  0.4452 -0.6053
 1829TIP3    H129682   3.048   3.102   8.327  0.0969  0.7959  0.6053
 1829TIP3    H229683   2.967   3.210   8.396 -2.1585 -0.7033  0.4285
 1830TIP3   OH229684   3.939   0.786   8.920 -0.2314 -0.3824  0.4866
 1830TIP3    H129685   3.986   0.867   8.902 -0.0872 -0.6023 -0.1546
 1830TIP3    H229686   3.877   0.809   8.989  0.1863  0.1333  0.6922
 1831TIP3   OH229687   5.018   5.908   7.515  0.4066 -0.4981 -0.2382
 1831TIP3    H129688   5.095   5.938   7.465  1.1107  1.1914  1.7210
 1831TIP3    H229689   4.996   5.982   7.572 -1.4723 -1.6780  0.6560
 1832TIP3   OH229690   0.483   6.504   7.624 -0.1320 -0.0851 -0.1069
 1832TIP3    H129691   0.517   6.442   7.559 -0.4483 -1.0203  0.5976
 1832TIP3    H229692   0.438   6.571   7.572  2.2393  0.8999 -1.0391
 1833TIP3   OH229693   6.570   2.381   8.498  0.2470 -0.2301 -0.2573
 1833TIP3    H129694   6.517   2.346   8.426 -0.8321  0.5502  0.1280
 1833TIP3    H229695   6.608   2.461   8.462 -0.3848  0.2217  0.0542
 1834TIP3   OH229696   0.776   4.486   9.631  0.3643  0.1441 -0.2350
 1834TIP3    H129697   0.701   4.545   9.640  0.2240 -0.1425  0.5778
 1834TIP3    H229698   0.805   4.497   9.540  1.8216  3.2163  0.4826
 1835TIP3   OH229699   4.435   6.922   8.283  0.2424 -0.0063  0.0176
 1835TIP3    H129700   4.349   6.920   8.242 -0.8268  0.3996  2.0755
 1835TIP3    H229701   4.433   7.000   8.339  2.0476  0.1450 -0.0892
 1836TIP3   OH229702   7.016   3.258   6.523 -0.0538  0.3401 -0.0003
 1836TIP3    H129703   6.970   3.305   6.453  0.3716  0.2678 -0.3344
 1836TIP3    H229704   7.102   3.239   6.486  0.2201  0.4135  0.5956
 1837TIP3   OH229705   1.275   6.340   8.497  0.0785  0.3445  0.6313
 1837TIP3    H129706   1.336   6.350   8.424  0.4730  3.0562  1.1935
 1837TIP3    H229707   1.326   6.298   8.566  0.0898 -1.0289 -0.1959
 1838TIP3   OH229708   5.131   0.170   8.162 -0.0763  0.9154  0.1606
 1838TIP3    H129709   5.137   0.169   8.258 -0.5050 -0.1257  0.2008
 1838TIP3    H229710   5.053   0.117   8.144  0.6504  0.1383 -0.7950
 1839TIP3   OH229711   6.139   3.177   8.927  0.7568 -0.4264 -0.6768
 1839TIP3    H129712   6.162   3.095   8.883  0.5684 -2.8151  3.2441
 1839TIP3    H229713   6.224   3.218   8.946  1.2082 -2.1071  1.2931
 1840TIP3   OH229714   5.175   5.967   7.298  0.7250  0.3244  0.6227
 1840TIP3    H129715   5.244   5.901   7.306 -0.5181 -1.3524 -1.5411
 1840TIP3    H229716   5.203   6.023   7.226 -0.3731 -0.7168 -0.6585
 1841TIP3   OH229717   3.038   4.574   8.767  0.0398  0.2836  0.1159
 1841TIP3    H129718   3.032   4.645   8.703  1.1149  1.3559  1.1741
 1841TIP3    H229719   2.948   4.562   8.796 -0.2862  0.5938 -0.7111
 1842TIP3   OH229720   7.007   2.583   9.351  0.6770 -0.1386  0.2790
 1842TIP3    H129721   7.086   2.609   9.398 -0.0169  0.0456  1.3973
 1842TIP3    H229722   6.950   2.547   9.419 -0.4816  0.4104 -0.3701
 1843TIP3   OH229723   2.766   5.805   8.616  0.2346  0.0756  0.3219
 1843TIP3    H129724   2.715   5.822   8.536 -3.3975 -1.9831  1.9291
 1843TIP3    H229725   2.734   5.870   8.679 -0.6822 -1.3447  1.4024
 1844TIP3   OH229726   6.269   1.952   8.304  0.4569  0.1182 -0.3728
 1844TIP3    H129727   6.349   1.950   8.251  1.6933 -1.4863  1.3766
 1844TIP3    H229728   6.202   1.910   8.250  0.9772  0.8777 -1.6210
 1845TIP3   OH229729   1.235   2.695   7.831  0.2998  0.2486 -0.4992
 1845TIP3    H129730   1.235   2.603   7.804 -2.9552 -1.3072  3.6955
 1845TIP3    H229731   1.289   2.697   7.910 -1.5536  1.3023  0.8255
 1846TIP3   OH229732   0.202   1.641   9.228 -0.4752 -0.2620  0.2480
 1846TIP3    H129733   0.148   1.580   9.177  3.5100 -2.8332 -1.3541
 1846TIP3    H229734   0.234   1.590   9.302  0.8485  0.7275  0.3934
 1847TIP3   OH229735   3.776   6.957   7.490 -0.1087  0.5929  0.5389
 1847TIP3    H129736   3.841   6.930   7.426 -0.6078  0.7218 -0.0243
 1847TIP3    H229737   3.758   6.877   7.540 -1.2969 -0.0540 -0.8696
 1848TIP3   OH229738   6.928   2.344   9.007  0.5574 -0.0695 -0.2556
 1848TIP3    H129739   6.942   2.439   9.007  1.1107 -0.1472  0.0847
 1848TIP3    H229740   6.901   2.324   9.096 -2.9254  0.2231 -1.1166
 1849TIP3   OH229741   1.015   3.991   9.958  0.2978 -0.5143 -1.1943
 1849TIP3    H129742   1.063   3.959   9.882  0.4628 -3.2642 -0.0258
 1849TIP3    H229743   1.081   4.001  10.027 -0.3096 -1.2405 -0.4876
 1850TIP3   OH229744   1.852   0.136   7.007 -0.2922  0.4444 -0.6703
 1850TIP3    H129745   1.822   0.158   7.095  1.5401 -2.6365  0.8779
 1850TIP3    H229746   1.893   0.217   6.975  3.4071  0.5075  3.3578
 1851TIP3   OH229747   6.997   4.871   8.209  0.0539 -0.1354 -0.0238
 1851TIP3    H129748   6.948   4.813   8.149 -1.0528 -0.6071  1.2802
 1851TIP3    H229749   6.930   4.906   8.267  0.9132  1.4399  0.0481
 1852TIP3   OH229750   5.985   4.486   7.007  0.1431 -0.2153  0.5043
 1852TIP3    H129751   6.019   4.565   6.965 -0.4644  0.1467  0.6879
 1852TIP3    H229752   6.055   4.460   7.067  0.2525  0.3112  0.6101
 1853TIP3   OH229753   5.713   3.031   8.421  0.2737 -0.3179 -0.1189
 1853TIP3    H129754   5.751   3.094   8.359  1.7058  1.1226  2.0782
 1853TIP3    H229755   5.618   3.042   8.411  0.4286  3.0879  0.8926
 1854TIP3   OH229756   1.325   1.867   8.972 -0.3276 -0.6228 -0.1806
 1854TIP3    H129757   1.399   1.895   9.026  0.2929 -0.8706 -0.8975
 1854TIP3    H229758   1.308   1.777   9.000 -0.2207 -0.6401 -0.1709
 1855TIP3   OH229759   2.940   5.613   8.728  0.4226 -0.1585 -0.0907
 1855TIP3    H129760   2.888   5.683   8.690  0.3714 -1.4137 -2.5243
 1855TIP3    H229761   2.876   5.552   8.765  0.2987 -0.3988 -0.6960
 1856TIP3   OH229762   3.848   4.904   8.480 -0.5043 -0.3673  0.2846
 1856TIP3    H129763   3.858   4.904   8.575  0.5497 -1.2552  0.1971
 1856TIP3    H229764   3.929   4.944   8.448 -2.0231  2.5484 -0.1924
 1857TIP3   OH229765   7.029   3.991   9.345  0.0344  0.2226 -0.3017
 1857TIP3    H129766   7.057   3.900   9.346  0.5559  0.3127 -2.1538
 1857TIP3    H229767   6.934   3.988   9.350  0.1185 -0.2140  3.3397
 1858TIP3   OH229768   1.268   7.452   7.813 -0.0133 -0.6003  1.0236
 1858TIP3    H129769   1.309   7.497   7.740 -4.0193  0.4020 -0.8862
 1858TIP3    H229770   1.318   7.371   7.823 -0.2603 -1.6753 -4.1220
 1859TIP3   OH229771   7.186   1.345   8.700  0.2304  0.0735 -0.1027
 1859TIP3    H129772   7.249   1.410   8.668 -0.3408  1.2184  1.0000
 1859TIP3    H229773   7.104   1.394   8.710 -0.3196 -0.9174  0.3720
 1860TIP3   OH229774   7.096   1.092   8.815 -0.3535  0.7446 -0.2593
 1860TIP3    H129775   7.115   1.179   8.779 -0.8472  0.8108 -0.3662
 1860TIP3    H229776   7.145   1.032   8.759  0.9786  1.0346  0.5626
 1861TIP3   OH229777   2.043   4.918   7.572 -0.4476  1.0034  0.0893
 1861TIP3    H129778   1.994   4.874   7.503  0.0957  0.3543  0.1102
 1861TIP3    H229779   2.135   4.903   7.549 -0.2153  2.8135 -0.3536
 1862TIP3   OH229780   2.457   1.659   9.259 -0.2172 -0.3123  0.3272
 1862TIP3    H129781   2.465   1.589   9.194  0.5575 -0.9903  1.1176
 1862TIP3    H229782   2.381   1.635   9.312 -1.6398  0.9010 -1.0521
 1863TIP3   OH229783   4.151   4.633   8.465  0.2344 -0.0782 -0.5733
 1863TIP3    H129784   4.058   4.620   8.447 -0.2991 -1.8954  2.8492
 1863TIP3    H229785   4.192   4.549   8.445  0.9916  0.3562 -0.9309
 1864TIP3   OH229786   1.073   0.110   7.597  0.3951 -0.2367 -0.6370
 1864TIP3    H129787   1.030   0.073   7.521  2.1331 -1.6642 -1.0155
 1864TIP3    H229788   1.162   0.129   7.567  0.5936  0.8381  0.5686
 1865TIP3   OH229789   5.494   6.726   8.196 -0.3897  0.9892 -0.3425
 1865TIP3    H129790   5.578   6.711   8.240 -1.2062  0.7843  1.2039
 1865TIP3    H229791   5.438   6.655   8.226 -1.9754  2.6818  0.9166
 1866TIP3   OH229792   5.936   1.539   9.106  0.3007 -0.1396  0.0457
 1866TIP3    H129793   5.875   1.564   9.037 -0.6716 -0.4366  0.7715
 1866TIP3    H229794   5.974   1.621   9.136 -1.3984  0.3082  1.0720
 1867TIP3   OH229795   4.753   0.011   7.982  0.2032 -0.1150  0.2877
 1867TIP3    H129796   4.682   0.004   7.919  0.3467  0.5628  0.0432
 1867TIP3    H229797   4.710   0.013   8.068  0.0316 -1.4861  0.2514
 1868TIP3   OH229798   4.723   1.458   8.080 -0.3701  0.2586 -0.3638
 1868TIP3    H129799   4.683   1.445   8.166 -1.8034  0.9021 -0.8964
 1868TIP3    H229800   4.688   1.386   8.026 -1.3010  1.1626 -0.9926
 1869TIP3   OH229801   2.487   6.401   7.250  0.1495 -0.1595  0.5655
 1869TIP3    H129802   2.472   6.477   7.194 -0.7777 -0.3147  0.5963
 1869TIP3    H229803   2.582   6.403   7.267  0.3483  0.2293 -0.5048
 1870TIP3   OH229804   2.646   1.614   7.110 -0.3345 -0.0773 -0.0517
 1870TIP3    H129805   2.581   1.577   7.051 -0.2796  1.4175 -1.1022
 1870TIP3    H229806   2.643   1.708   7.094  0.6616  0.2364  1.3527
 1871TIP3   OH229807   4.476   1.679   9.476  0.4340 -0.1502 -0.1138
 1871TIP3    H129808   4.546   1.624   9.511 -0.3041 -1.9646 -1.3344
 1871TIP3    H229809   4.397   1.645   9.517  0.0293  0.3575 -0.4673
 1872TIP3   OH229810   1.970   0.086   8.396  0.5689  0.0872  0.2399
 1872TIP3    H129811   1.967   0.124   8.484  0.8960 -2.4654  1.4389
 1872TIP3    H229812   2.049   0.032   8.396  0.0173 -0.7852 -1.2465
 1873TIP3   OH229813   5.594   0.991   9.254  0.0754  0.0420 -0.0423
 1873TIP3    H129814   5.615   1.084   9.262 -1.4202  0.5479 -1.5188
 1873TIP3    H229815   5.678   0.946   9.266  0.8949  1.5898  0.2529
 1874TIP3   OH229816   4.449   3.313   7.015 -0.0696  0.0878  0.2973
 1874TIP3    H129817   4.406   3.227   7.018 -0.0881  0.0529 -0.6360
 1874TIP3    H229818   4.390   3.367   6.963  0.3168  0.4472  0.2302
 1875TIP3   OH229819   2.867   0.114   7.186  0.5511  0.2621  0.0001
 1875TIP3    H129820   2.821   0.193   7.159 -2.8438 -1.0280  1.4317
 1875TIP3    H229821   2.874   0.062   7.106  0.1285  0.7903 -0.3883
 1876TIP3   OH229822   3.395   3.981   9.597  0.2312 -0.0233  0.2896
 1876TIP3    H129823   3.376   4.043   9.667 -0.5481  0.5117 -0.3750
 1876TIP3    H229824   3.312   3.938   9.580 -0.1660  1.3815 -1.7356
 1877TIP3   OH229825   1.680   4.908   7.934 -0.3941 -0.4449 -0.1756
 1877TIP3    H129826   1.670   4.948   8.021  1.1729 -3.1394  1.4200
 1877TIP3    H229827   1.775   4.910   7.919 -0.6145 -0.4603 -1.6182
 1878TIP3   OH229828   5.453   0.765   8.839  0.2964  0.3557  0.3714
 1878TIP3    H129829   5.423   0.777   8.749 -2.7485  0.7597  1.3393
 1878TIP3    H229830   5.443   0.851   8.880 -0.6340 -0.3505  1.6922
 1879TIP3   OH229831   3.515   4.973   8.541 -0.5815  0.1594 -0.2335
 1879TIP3    H129832   3.594   4.972   8.595 -0.4334  0.8548 -0.4251
 1879TIP3    H229833   3.509   5.063   8.508 -2.9402  0.9617  2.0035
 1880TIP3   OH229834   7.096   4.649   8.579  0.4545  0.0499  0.4046
 1880TIP3    H129835   7.075   4.622   8.669 -1.8156  1.6528  0.4573
 1880TIP3    H229836   7.085   4.744   8.580  0.0277  0.0652 -1.6481
 1881TIP3   OH229837   0.759   0.550   8.099  0.2301  0.1712 -0.6012
 1881TIP3    H129838   0.825   0.619   8.096 -0.2554  0.8733  2.0186
 1881TIP3    H229839   0.680   0.593   8.132 -0.1004 -1.5612  1.0957
 1882TIP3   OH229840   3.122   4.562   8.323 -0.2436 -0.0397  0.1472
 1882TIP3    H129841   3.101   4.522   8.239 -1.7103 -0.2838  0.5875
 1882TIP3    H229842   3.217   4.561   8.328 -0.1225  0.3623 -1.6796
 1883TIP3   OH229843   6.701   0.379   8.603  0.3981 -0.0549 -0.1903
 1883TIP3    H129844   6.660   0.304   8.560 -0.4162  0.9411 -1.2341
 1883TIP3    H229845   6.650   0.454   8.572 -0.1882  0.7386  2.4838
 1884TIP3   OH229846   2.184   5.916   8.229 -0.3020  0.2589 -0.4300
 1884TIP3    H129847   2.141   5.971   8.294 -0.0610  2.0508 -1.7182
 1884TIP3    H229848   2.253   5.871   8.278 -0.6955  0.8792  0.7260
 1885TIP3   OH229849   5.861   4.079   7.577  0.2287  0.0473 -0.3640
 1885TIP3    H129850   5.944   4.106   7.616  0.9990 -0.1271 -1.8049
 1885TIP3    H229851   5.840   4.148   7.514  0.1204 -0.6923 -1.1620
 1886TIP3   OH229852   0.492   0.294   8.484 -0.4018 -0.0585  0.5537
 1886TIP3    H129853   0.584   0.304   8.507 -0.0967 -2.6256  0.7212
 1886TIP3    H229854   0.484   0.337   8.399  0.3563  2.2483  1.5754
 1887TIP3   OH229855   6.289   4.154   6.492  0.0199  0.0550  0.6430
 1887TIP3    H129856   6.364   4.113   6.534  1.4688  0.3499 -1.5227
 1887TIP3    H229857   6.213   4.106   6.527  1.2700 -0.9561  2.0785
 1888TIP3   OH229858   1.681   2.031   6.388  0.0511 -0.6655  0.2328
 1888TIP3    H129859   1.741   1.963   6.418  0.9857 -0.2717 -0.6656
 1888TIP3    H229860   1.732   2.112   6.395 -0.1142 -0.4179 -1.2049
 1889TIP3   OH229861   5.310   1.912   9.171  0.2415  0.3262  0.0232
 1889TIP3    H129862   5.315   1.992   9.118  0.3348 -1.3664 -2.7294
 1889TIP3    H229863   5.221   1.880   9.158  0.5736 -0.6493  0.0602
 1890TIP3   OH229864   0.849   2.304   7.856 -0.5131  0.3602  0.3307
 1890TIP3    H129865   0.874   2.233   7.797 -0.2370  1.4752 -0.9423
 1890TIP3    H229866   0.897   2.380   7.824 -2.0519  1.5045  0.6359
 1891TIP3   OH229867   4.284   4.848   6.788 -0.2585  0.2287 -0.3998
 1891TIP3    H129868   4.237   4.925   6.819 -0.6259 -0.0678 -0.1996
 1891TIP3    H229869   4.230   4.774   6.817  1.0437 -0.1897  1.0744
 1892TIP3   OH229870   3.330   6.307   6.930  0.0816  0.1189 -0.0151
 1892TIP3    H129871   3.240   6.278   6.947  0.6906 -2.2112 -0.3986
 1892TIP3    H229872   3.379   6.279   7.007  1.0075 -1.4333 -1.1251
 1893TIP3   OH229873   2.304   3.332   9.321 -0.2475  0.3335 -0.2707
 1893TIP3    H129874   2.230   3.376   9.363  0.5462  0.3270  1.2024
 1893TIP3    H229875   2.290   3.240   9.340  1.0536  0.4677  1.6638
 1894TIP3   OH229876   6.680   1.695   8.630 -0.5293 -0.0294  0.1844
 1894TIP3    H129877   6.673   1.646   8.711 -0.9866 -0.0084  0.1576
 1894TIP3    H229878   6.621   1.650   8.569  0.5356 -0.6374 -0.4339
 1895TIP3   OH229879   4.129   7.027   8.756  0.2069 -0.0904 -0.1801
 1895TIP3    H129880   4.100   7.004   8.667  1.1830 -1.4890 -0.1652
 1895TIP3    H229881   4.070   6.979   8.814  1.0082 -1.0435 -0.1239
 1896TIP3   OH229882   3.272   5.058   7.252 -0.4169 -0.0549  0.2172
 1896TIP3    H129883   3.356   5.023   7.222 -1.4105 -1.2768 -1.2734
 1896TIP3    H229884   3.292   5.148   7.279  1.8484 -1.0461  2.3211
 1897TIP3   OH229885   5.878   1.999   8.926 -0.1471  0.0318 -0.0966
 1897TIP3    H129886   5.787   1.969   8.929 -1.1047  2.5658 -1.0061
 1897TIP3    H229887   5.921   1.938   8.866 -1.7566 -0.0888 -1.1814
 1898TIP3   OH229888   5.240   3.449   8.369  0.7160 -0.2139 -0.0085
 1898TIP3    H129889   5.281   3.531   8.342 -3.5449  0.9591 -4.1491
 1898TIP3    H229890   5.256   3.389   8.297 -2.9307 -0.2004 -1.0506
 1899TIP3   OH229891   0.222   5.700   8.129 -0.3489  0.3415  0.0043
 1899TIP3    H129892   0.237   5.751   8.209 -1.0357  0.6115 -0.0303
 1899TIP3    H229893   0.308   5.664   8.107  0.1623  1.4996  0.0249
 1900TIP3   OH229894   5.556   4.234   8.024  0.0424 -0.6636  0.5903
 1900TIP3    H129895   5.491   4.286   7.974 -0.2134 -1.7624 -0.2588
 1900TIP3    H229896   5.570   4.285   8.104 -1.7045 -0.2695  0.6987
 1901TIP3   OH229897   3.399   0.082   8.122  0.8363 -0.1667 -0.3266
 1901TIP3    H129898   3.311   0.054   8.097  1.1221 -1.5220  0.0768
 1901TIP3    H229899   3.385   0.146   8.191  0.1622 -0.6589  0.0061
 1902TIP3   OH229900   4.097   6.201   6.888 -0.0251  0.4320  0.3035
 1902TIP3    H129901   4.142   6.271   6.934  2.3297 -0.4045 -0.5739
 1902TIP3    H229902   4.107   6.223   6.795 -0.6050 -0.2922  0.0539
 1903TIP3   OH229903   1.890   1.236   8.573 -0.1359 -0.1358 -0.2109
 1903TIP3    H129904   1.853   1.321   8.597  1.3435  1.0231 -1.7333
 1903TIP3    H229905   1.820   1.173   8.591 -1.2347  1.3667  1.0815
 1904TIP3   OH229906   6.479   5.554   7.316 -0.5413  0.4309  0.2484
 1904TIP3    H129907   6.401   5.502   7.336 -0.2162  0.0780  0.6277
 1904TIP3    H229908   6.471   5.631   7.372 -0.0743 -0.1377  1.1388
 1905TIP3   OH229909   4.370   0.967   7.925  0.4460  0.6849 -0.3473
 1905TIP3    H129910   4.330   0.953   8.011 -1.3621 -1.7357 -1.4398
 1905TIP3    H229911   4.462   0.945   7.938  0.2378  0.4860  0.9883
 1906TIP3   OH229912   0.117   4.483   8.732  0.2907  0.3961  0.1675
 1906TIP3    H129913   0.046   4.547   8.721  0.6620  0.5991 -1.3641
 1906TIP3    H229914   0.077   4.411   8.780 -0.3734  1.3946  1.1609
 1907TIP3   OH229915   5.348   1.477   8.355 -0.0099 -0.4800  0.0366
 1907TIP3    H129916   5.421   1.532   8.382 -0.4725  0.7645 -1.0956
 1907TIP3    H229917   5.334   1.416   8.428  1.0467  0.3749  0.9797
 1908TIP3   OH229918   2.562   5.860   8.446  0.1676 -0.4698 -0.0011
 1908TIP3    H129919   2.544   5.821   8.360 -0.1051 -0.3786  0.0134
 1908TIP3    H229920   2.519   5.801   8.508 -0.3199 -0.1095  0.0153
 1909TIP3   OH229921   1.791   0.287   7.230  0.6389  0.2095 -0.3320
 1909TIP3    H129922   1.837   0.371   7.231 -0.3492  0.7830 -0.7059
 1909TIP3    H229923   1.798   0.254   7.319 -2.2786  2.6227  0.9927
 1910TIP3   OH229924   6.339   2.637   7.908 -0.1892  0.2994 -0.2711
 1910TIP3    H129925   6.301   2.559   7.948  0.1806  0.6540  0.8152
 1910TIP3    H229926   6.269   2.702   7.911  0.1981  0.6888  0.9344
 1911TIP3   OH229927   4.324   0.803   8.820  0.1579  0.0777  0.0131
 1911TIP3    H129928   4.398   0.743   8.810 -0.5729 -0.4346 -3.2698
 1911TIP3    H229929   4.248   0.745   8.835 -0.0469  0.4066  0.2661
 1912TIP3   OH229930   7.442   4.131   8.857  0.3682 -0.0982  0.3903
 1912TIP3    H129931   7.489   4.083   8.789 -0.5371  0.8806 -0.9747
 1912TIP3    H229932   7.475   4.221   8.849 -1.0885  0.4194 -0.0194
 1913TIP3   OH229933   0.627   4.127   8.550 -0.1048 -0.4945  0.5514
 1913TIP3    H129934   0.658   4.161   8.466 -0.4664 -1.2270  0.1082
 1913TIP3    H229935   0.632   4.202   8.610 -0.1273  0.1218 -0.1973
 1914TIP3   OH229936   4.894   5.217   7.951  0.0112 -0.4667 -0.3407
 1914TIP3    H129937   4.900   5.142   8.009  0.5907 -0.4752 -0.4095
 1914TIP3    H229938   4.837   5.188   7.879 -1.3246 -0.2138  0.5807
 1915TIP3   OH229939   0.559   5.120   6.844  0.2638  0.0059  0.1910
 1915TIP3    H129940   0.589   5.140   6.755  0.1692 -1.0115 -0.0745
 1915TIP3    H229941   0.634   5.078   6.886 -0.1980 -0.9361  0.0870
 1916TIP3   OH229942   1.733   3.188   8.011 -0.5792 -0.0640  0.1251
 1916TIP3    H129943   1.717   3.177   7.917  1.1921  0.6769 -0.3166
 1916TIP3    H229944   1.784   3.269   8.017  0.8683 -1.0154  1.5286
 1917TIP3   OH229945   1.889   5.210   8.954  0.3363  0.4027  0.0375
 1917TIP3    H129946   1.920   5.120   8.955  0.1257  0.3285  0.8082
 1917TIP3    H229947   1.889   5.235   8.862  0.5781 -0.3187 -0.1626
 1918TIP3   OH229948   7.015   1.710   9.496  0.0166  0.5201  0.0228
 1918TIP3    H129949   7.024   1.617   9.472  0.5982  0.5097  0.2713
 1918TIP3    H229950   6.978   1.751   9.418  1.0696  0.3281 -0.5973
 1919TIP3   OH229951   5.608   4.814   8.438 -0.3976  0.5303  0.1776
 1919TIP3    H129952   5.567   4.750   8.379  1.6447 -1.1121  0.4431
 1919TIP3    H229953   5.595   4.898   8.395 -1.6338 -0.2618 -1.0677
 1920TIP3   OH229954   3.234   6.129   8.653  0.1737  0.1481  0.1743
 1920TIP3    H129955   3.178   6.055   8.675 -1.3560  1.2035 -0.0407
 1920TIP3    H229956   3.180   6.206   8.671  0.3799  1.1726 -3.0203
 1921TIP3   OH229957   0.796   2.710   9.462  0.4650 -0.0632  0.2163
 1921TIP3    H129958   0.787   2.636   9.401 -1.0330 -1.5607  2.1369
 1921TIP3    H229959   0.858   2.769   9.419  1.6281 -2.3608 -1.4566
 1922TIP3   OH229960   1.317   4.890   7.588 -0.2334 -0.2082 -0.2432
 1922TIP3    H129961   1.284   4.882   7.499 -0.6315 -0.0224 -0.1169
 1922TIP3    H229962   1.409   4.915   7.578 -0.4248  0.3685 -0.6039
 1923TIP3   OH229963   6.657   6.641   7.659 -0.5086  0.2527 -0.2695
 1923TIP3    H129964   6.666   6.677   7.571  0.1474 -2.2931 -1.3415
 1923TIP3    H229965   6.570   6.599   7.658 -0.2675 -0.2633  0.0926
 1924TIP3   OH229966   7.157   2.337   8.053 -0.5658 -0.3289 -0.0299
 1924TIP3    H129967   7.168   2.357   8.146  1.6826 -0.4145 -0.2242
 1924TIP3    H229968   7.165   2.242   8.047 -1.2488 -0.3820 -0.2769
 1925TIP3   OH229969   3.673   7.097   8.006 -0.1530 -0.5697 -0.3070
 1925TIP3    H129970   3.761   7.074   7.974  0.0228 -0.1145 -0.1504
 1925TIP3    H229971   3.615   7.066   7.937  0.3679  2.8956 -2.5734
 1926TIP3   OH229972   2.242   1.119   8.290  0.4622  0.2790  0.7454
 1926TIP3    H129973   2.189   1.192   8.322 -0.7866 -0.0991 -0.3893
 1926TIP3    H229974   2.288   1.154   8.214 -1.3853 -0.4724 -0.8200
 1927TIP3   OH229975   1.607   3.091   8.961 -0.2709  0.3046  0.2111
 1927TIP3    H129976   1.615   3.114   9.054  1.3132 -2.4051  0.8427
 1927TIP3    H229977   1.513   3.097   8.943 -0.7756 -0.3438  2.3574
 1928TIP3   OH229978   6.926   4.910   8.829 -0.0351 -0.2149  0.5840
 1928TIP3    H129979   6.857   4.888   8.767  1.9021 -1.5102 -1.2220
 1928TIP3    H229980   6.905   4.858   8.907 -1.6776  0.3031  0.5372
 1929TIP3   OH229981   5.740   7.432   8.762  0.2302  0.4776  0.2424
 1929TIP3    H129982   5.796   7.509   8.772  0.8137  0.0294  0.4992
 1929TIP3    H229983   5.685   7.432   8.840 -0.5666  1.2581 -0.3015
 1930TIP3   OH229984   2.532   1.888   7.649 -0.5044  0.0763 -0.1463
 1930TIP3    H129985   2.473   1.812   7.653  0.4766 -0.9251 -2.5596
 1930TIP3    H229986   2.520   1.923   7.560  3.6336 -1.2510 -1.4980
 1931TIP3   OH229987   0.253   3.806   7.228  0.0739  0.4159 -0.2527
 1931TIP3    H129988   0.323   3.861   7.262 -0.3114  1.1498 -0.6228
 1931TIP3    H229989   0.215   3.765   7.306 -0.7241  1.9794  0.2169
 1932TIP3   OH229990   4.596   3.790   8.470 -0.2019  0.1029 -0.0153
 1932TIP3    H129991   4.536   3.865   8.468  0.1854  0.4087 -1.9973
 1932TIP3    H229992   4.671   3.821   8.522 -0.5508  0.6853  0.1486
 1933TIP3   OH229993   0.076   1.843   6.955 -0.4876  0.1643  0.0629
 1933TIP3    H129994   0.124   1.772   6.913  1.0094  0.8850  0.5118
 1933TIP3    H229995  -0.000   1.857   6.898  1.5796  1.2883 -2.6757
 1934TIP3   OH229996   1.389   3.096   8.592  0.0629  0.1502  0.4994
 1934TIP3    H129997   1.445   3.048   8.531  2.1077  2.4689  0.4179
 1934TIP3    H229998   1.440   3.173   8.616 -3.2153  2.6186  0.1792
 1935TIP3   OH229999   2.576   5.491   8.648  0.4444  0.0263 -0.7407
 1935TIP3    H130000   2.596   5.479   8.741  0.7049  0.8250 -0.6784
 1935TIP3    H230001   2.493   5.538   8.647 -0.5866 -1.7496 -0.9664
 1936TIP3   OH230002   6.416   5.035   8.732 -0.8827 -0.0011  0.1128
 1936TIP3    H130003   6.327   5.007   8.712 -0.6779  0.3174 -1.4127
 1936TIP3    H230004   6.407   5.127   8.758 -1.1840 -0.4903  1.8727
 1937TIP3   OH230005   1.811   3.655   7.539  0.0541  0.2396  0.0443
 1937TIP3    H130006   1.900   3.668   7.571 -0.4312 -0.1084  1.6011
 1937TIP3    H230007   1.821   3.649   7.444  1.4698  1.9077  0.0348
 1938TIP3   OH230008   2.275   0.560   8.411 -0.5223 -0.2519 -0.4253
 1938TIP3    H130009   2.278   0.565   8.316  0.2463 -0.9501 -0.4471
 1938TIP3    H230010   2.282   0.467   8.431 -2.8471 -0.3275  0.2715
 1939TIP3   OH230011   5.655   6.382   8.465 -0.5246 -0.2058 -0.1559
 1939TIP3    H130012   5.571   6.413   8.498 -0.5527  0.3496 -0.7172
 1939TIP3    H230013   5.642   6.288   8.450 -1.3829  0.0532 -1.2018
 1940TIP3   OH230014   4.033   4.799   7.910  0.3718  0.3049 -0.5085
 1940TIP3    H130015   4.024   4.895   7.915 -2.0686  0.0568  2.1233
 1940TIP3    H230016   4.010   4.778   7.819 -3.6922  1.9615 -0.0854
 1941TIP3   OH230017   0.616   5.389   7.856 -0.0649 -0.5302 -0.4655
 1941TIP3    H130018   0.648   5.298   7.853  2.4200  0.2841 -3.3535
 1941TIP3    H230019   0.667   5.430   7.926 -0.3224 -1.0404  0.0320
 1942TIP3   OH230020   2.636   0.769   7.890 -0.7429 -0.1511 -0.2968
 1942TIP3    H130021   2.670   0.826   7.958 -1.8196  0.5975 -0.3562
 1942TIP3    H230022   2.713   0.726   7.853 -0.1993 -1.5481  2.2235
 1943TIP3   OH230023   2.781   5.385   8.851 -0.1286  0.6116  0.1963
 1943TIP3    H130024   2.719   5.313   8.858  0.3497  0.1894  0.1437
 1943TIP3    H230025   2.835   5.379   8.930  1.6379 -0.7433 -1.0281
 1944TIP3   OH230026   5.200   4.939   8.548 -0.1748 -0.5503  0.1138
 1944TIP3    H130027   5.287   4.921   8.583 -0.7398 -0.8498  1.4252
 1944TIP3    H230028   5.215   5.002   8.477  1.1319 -0.8625  0.0998
 1945TIP3   OH230029   6.860   4.637   8.462 -0.0900  0.3853  0.1758
 1945TIP3    H130030   6.952   4.627   8.486  0.0431  0.2529 -0.3861
 1945TIP3    H230031   6.823   4.549   8.470 -0.2469  0.4937  0.7049
 1946TIP3   OH230032   2.377   4.265   7.171  0.4201  0.0595 -0.6167
 1946TIP3    H130033   2.410   4.175   7.165  0.4174  0.0369 -0.2855
 1946TIP3    H230034   2.287   4.260   7.139  0.0605 -0.2564  0.4152
 1947TIP3   OH230035   2.260   2.708   7.097 -0.3285  0.1901 -0.5257
 1947TIP3    H130036   2.194   2.649   7.134 -0.0387  0.7454  0.9195
 1947TIP3    H230037   2.211   2.786   7.071 -0.5359 -0.2116 -1.3732
 1948TIP3   OH230038   5.868   0.773   8.261 -0.1181  0.1125  0.3437
 1948TIP3    H130039   5.803   0.762   8.191  0.9450 -1.2476 -0.5077
 1948TIP3    H230040   5.840   0.712   8.329 -0.0553 -0.0479  0.2266
 1949TIP3   OH230041   0.747   0.057   8.319  0.2570 -0.0257  0.4346
 1949TIP3    H130042   0.737   0.030   8.228  1.4686 -0.6171  0.4603
 1949TIP3    H230043   0.769   0.150   8.314 -0.7900  0.2199  0.1921
 1950TIP3   OH230044   5.686   0.797   7.851  0.1367 -0.6238  0.2230
 1950TIP3    H130045   5.623   0.743   7.803  0.5939 -1.3126  0.3814
 1950TIP3    H230046   5.710   0.743   7.926  0.3209 -0.0365  0.5872
 1951TIP3   OH230047   2.859   6.186   9.605  0.0429 -0.2543 -0.2629
 1951TIP3    H130048   2.926   6.190   9.537 -1.5285  0.3252 -1.8386
 1951TIP3    H230049   2.858   6.274   9.643  0.7231 -0.4973  0.3344
 1952TIP3   OH230050   3.513   5.333   6.777  0.6434 -0.3025 -0.6504
 1952TIP3    H130051   3.517   5.239   6.763  0.2253 -0.3498 -0.4692
 1952TIP3    H230052   3.587   5.368   6.727  0.2114 -0.6313 -1.5568
 1953TIP3   OH230053   4.063   6.168   7.912  0.0258  0.4823 -0.8374
 1953TIP3    H130054   4.132   6.133   7.968 -0.0678  0.9580 -0.4245
 1953TIP3    H230055   4.101   6.168   7.824 -0.0658 -0.9251 -0.9002
 1954TIP3   OH230056   5.543   4.786   7.872 -0.5279 -0.1518  0.4205
 1954TIP3    H130057   5.471   4.739   7.831 -1.4047  1.2078  0.3423
 1954TIP3    H230058   5.616   4.776   7.810 -0.4772 -1.9390  0.7296
 1955TIP3   OH230059   1.608   1.460   9.661 -0.0574 -0.1499 -0.4611
 1955TIP3    H130060   1.601   1.555   9.670 -0.0631 -0.3194  2.1375
 1955TIP3    H230061   1.525   1.434   9.622 -0.6405  0.7887  0.1056
 1956TIP3   OH230062   7.436   0.184   8.748 -0.2590 -0.3381 -0.0124
 1956TIP3    H130063   7.371   0.122   8.716 -1.3229  0.2027  1.0524
 1956TIP3    H230064   7.448   0.160   8.840 -0.2283  0.6464  0.2480
 1957TIP3   OH230065   2.016   2.542   7.113  0.8277 -0.5591 -0.1570
 1957TIP3    H130066   1.990   2.532   7.021  2.2142 -0.4938 -0.5879
 1957TIP3    H230067   2.047   2.456   7.138  1.5988 -0.2847 -0.1419
 1958TIP3   OH230068   0.971   2.828   7.819 -0.4450  0.4633  0.4589
 1958TIP3    H130069   1.064   2.814   7.801 -0.6112 -0.9580  0.6142
 1958TIP3    H230070   0.965   2.920   7.845  0.9400  0.5257  0.6066
 1959TIP3   OH230071   5.835   3.251   8.286  0.2882  0.1890  0.2656
 1959TIP3    H130072   5.807   3.316   8.351  2.4265  2.2738 -0.7647
 1959TIP3    H230073   5.803   3.285   8.203  2.1577  0.4009 -0.3995
 1960TIP3   OH230074   0.402   4.002   7.303  0.9531  0.2851 -0.2907
 1960TIP3    H130075   0.469   4.017   7.236  1.3407 -0.3344 -0.0591
 1960TIP3    H230076   0.369   4.089   7.325  1.5319  0.5804 -0.5732
 1961TIP3   OH230077   2.898   3.143   9.558 -0.3317 -0.2552  0.5108
 1961TIP3    H130078   2.823   3.142   9.499  0.2767  0.3478 -0.3065
 1961TIP3    H230079   2.949   3.066   9.534 -0.1416 -0.0720  0.3242
 1962TIP3   OH230080   1.542   0.075   7.344 -0.4225  0.4146 -0.1463
 1962TIP3    H130081   1.506   0.124   7.270  2.5836  0.9260 -1.4451
 1962TIP3    H230082   1.576   0.143   7.403 -0.9311 -0.0413  0.6855
 1963TIP3   OH230083   2.961   3.653   8.871  0.0693  0.4462  0.2657
 1963TIP3    H130084   2.912   3.734   8.857 -0.2068  0.5949  1.9196
 1963TIP3    H230085   3.039   3.663   8.817  0.3027  2.0800  0.8436
 1964TIP3   OH230086   3.252   2.391   7.230 -0.6095  0.1533  0.4345
 1964TIP3    H130087   3.338   2.421   7.258 -1.0744 -0.6852  3.0715
 1964TIP3    H230088   3.267   2.304   7.193 -0.3376 -0.1114  1.1530
 1965TIP3   OH230089   3.203   3.712   8.715 -0.3432 -0.5077  0.9121
 1965TIP3    H130090   3.225   3.677   8.628 -2.2114 -1.5686  0.8060
 1965TIP3    H230091   3.284   3.703   8.765  0.4387 -1.0124 -0.3711
 1966TIP3   OH230092   0.549   6.180   7.850  0.5287 -0.5067 -0.1064
 1966TIP3    H130093   0.531   6.223   7.933  0.5902 -2.3347  0.8945
 1966TIP3    H230094   0.639   6.205   7.829 -0.4506  2.4552 -1.2540
 1967TIP3   OH230095   2.280   2.464   7.909  0.5210  0.2028 -0.6885
 1967TIP3    H130096   2.369   2.440   7.886  0.2144 -1.8732  0.1244
 1967TIP3    H230097   2.278   2.463   8.004 -0.1469  1.2320 -0.6674
 1968TIP3   OH230098   3.050   2.824   9.129 -0.5758  0.1452 -0.8455
 1968TIP3    H130099   3.067   2.817   9.035  1.9055  0.0945 -0.4583
 1968TIP3    H230100   2.986   2.755   9.146  1.3308 -2.0696 -2.0127
 1969TIP3   OH230101   5.938   3.294   7.931 -0.2499 -0.2667  0.5268
 1969TIP3    H130102   5.843   3.296   7.940 -0.3865 -2.9272  0.7102
 1969TIP3    H230103   5.970   3.321   8.017 -0.8038  0.9503  0.3702
 1970TIP3   OH230104   2.692   1.295   7.854 -0.3694 -0.3099 -0.6657
 1970TIP3    H130105   2.642   1.377   7.856 -1.3817 -0.9161 -0.5827
 1970TIP3    H230106   2.731   1.294   7.767  0.8466  0.9484 -0.1650
 1971TIP3   OH230107   2.797   2.273   6.612  0.3344 -0.0011 -0.3886
 1971TIP3    H130108   2.775   2.249   6.702  0.2213  0.3442 -0.3244
 1971TIP3    H230109   2.829   2.192   6.573  1.8993  0.1826  0.4338
 1972TIP3   OH230110   3.742   6.656   7.249  0.5854  0.3062  0.1638
 1972TIP3    H130111   3.801   6.652   7.324  0.9595  2.9047  0.1230
 1972TIP3    H230112   3.799   6.679   7.175 -0.0026 -0.6330 -0.5973
 1973TIP3   OH230113   7.333   6.685   8.043  0.1520  0.2827  0.2007
 1973TIP3    H130114   7.402   6.630   8.004 -0.1755 -0.9984  1.3528
 1973TIP3    H230115   7.325   6.759   7.983  2.4593  0.4348 -0.0329
 1974TIP3   OH230116   2.621   0.757   9.273  0.3770  0.0387 -0.1191
 1974TIP3    H130117   2.609   0.736   9.181 -1.3495 -0.8499  0.2651
 1974TIP3    H230118   2.538   0.795   9.300  1.5824  2.4134  0.5800
 1975TIP3   OH230119   1.508   1.474   6.751  0.2166 -0.2569 -0.3558
 1975TIP3    H130120   1.585   1.508   6.796 -0.1036 -0.9503  0.7654
 1975TIP3    H230121   1.507   1.380   6.773 -0.7487 -0.3221 -0.6247
 1976TIP3   OH230122   2.699   5.094   9.682 -0.2406 -0.1684  0.5205
 1976TIP3    H130123   2.712   5.177   9.728 -0.0061  0.1032 -0.0262
 1976TIP3    H230124   2.744   5.106   9.598 -1.9368 -0.0874 -0.4232
 1977TIP3   OH230125   0.637   5.724   7.131 -0.3078 -0.0534 -0.2963
 1977TIP3    H130126   0.699   5.734   7.058  0.2057  0.6135  0.2168
 1977TIP3    H230127   0.554   5.757   7.097 -0.1811 -0.1606 -0.7173
 1978TIP3   OH230128   6.360   1.592   9.158 -0.1885  0.6961  0.9598
 1978TIP3    H130129   6.395   1.507   9.132 -0.1348 -0.0039  3.1337
 1978TIP3    H230130   6.437   1.649   9.163 -0.1604  0.7679  0.0385
 1979TIP3   OH230131   5.078   4.149   8.862 -0.2918  0.1077  0.0630
 1979TIP3    H130132   5.075   4.232   8.909  0.0188  0.2530 -0.1698
 1979TIP3    H230133   5.123   4.169   8.780  1.2094 -0.6034  0.6756
 1980TIP3   OH230134   7.546   2.194   7.795  0.1349  0.2732 -0.1215
 1980TIP3    H130135   7.479   2.127   7.778 -0.0659  0.2864  0.6004
 1980TIP3    H230136   7.500   2.263   7.842  0.3083  1.0086 -1.0034
 1981TIP3   OH230137   3.407   0.188   7.310 -0.3029 -0.7254 -0.4734
 1981TIP3    H130138   3.434   0.274   7.276 -0.9350 -0.0119  0.7427
 1981TIP3    H230139   3.331   0.165   7.257 -0.6334 -0.1376 -0.2687
 1982TIP3   OH230140   2.842   1.894   7.278 -0.0522  0.2185 -0.1716
 1982TIP3    H130141   2.936   1.893   7.260 -0.0159  0.9045 -0.0401
 1982TIP3    H230142   2.803   1.930   7.199 -0.3691 -1.4681 -0.8443
 1983TIP3   OH230143   0.060   5.781   7.797 -0.0419 -0.3867  0.4016
 1983TIP3    H130144   0.103   5.783   7.711 -1.6624  4.6637 -0.6341
 1983TIP3    H230145  -0.030   5.752   7.778  0.6613 -3.6984  1.3710
 1984TIP3   OH230146   2.583   2.207   8.496 -0.8073  1.0267 -0.0082
 1984TIP3    H130147   2.597   2.228   8.404  3.2978  0.8249  0.3846
 1984TIP3    H230148   2.606   2.114   8.503  3.0119  1.9128  1.6819
 1985TIP3   OH230149   2.166   0.187   9.131 -0.0001  0.1488 -1.0423
 1985TIP3    H130150   2.074   0.170   9.151 -0.1885  1.0294 -1.1090
 1985TIP3    H230151   2.188   0.125   9.062 -0.0605 -1.1954  0.0888
 1986TIP3   OH230152   3.955   6.371   8.350  0.1266 -0.6671  0.4966
 1986TIP3    H130153   3.937   6.280   8.376  0.8807 -0.6593  1.0813
 1986TIP3    H230154   4.043   6.368   8.313  0.1001 -0.1969  0.3997
 1987TIP3   OH230155   2.864   1.348   9.225  0.1680  0.1296 -0.1700
 1987TIP3    H130156   2.833   1.260   9.203  1.6622 -0.3326 -0.5514
 1987TIP3    H230157   2.790   1.390   9.268 -0.1884 -1.7232  1.1318
 1988TIP3   OH230158   0.334   0.871   8.104  0.2315  0.1840  0.3841
 1988TIP3    H130159   0.256   0.913   8.068  1.0685  1.6308  0.2105
 1988TIP3    H230160   0.300   0.800   8.159 -1.2639  1.5100  1.2417
 1989TIP3   OH230161   6.932   0.557   7.687  0.4605 -0.0128 -0.2444
 1989TIP3    H130162   6.920   0.467   7.656  0.2341 -0.6885  1.6614
 1989TIP3    H230163   7.006   0.590   7.636  0.7669 -1.4057 -0.7475
 1990TIP3   OH230164   1.557   3.871   7.349  0.1399 -0.3430  0.1976
 1990TIP3    H130165   1.514   3.948   7.314  2.1034  0.2461 -1.0455
 1990TIP3    H230166   1.530   3.868   7.441 -0.5283  1.4064  0.0861
 1991TIP3   OH230167   6.944   2.372   7.454 -0.3061 -0.1221  0.2547
 1991TIP3    H130168   6.896   2.298   7.417  1.0935 -0.0617 -1.8908
 1991TIP3    H230169   7.013   2.332   7.507 -1.6511 -0.2263  2.0289
 1992TIP3   OH230170   3.073   4.667   6.797 -0.2503 -0.0920 -0.5590
 1992TIP3    H130171   2.991   4.629   6.764 -0.8176  0.9550 -0.4084
 1992TIP3    H230172   3.109   4.599   6.854 -0.7278 -0.7895 -1.0649
 1993TIP3   OH230173   6.427   6.428   8.043 -0.3012  0.0918 -0.1732
 1993TIP3    H130174   6.417   6.458   8.133  0.5033 -0.6725  0.1918
 1993TIP3    H230175   6.451   6.507   7.994 -1.2903  0.6164  0.1668
 1994TIP3   OH230176   6.967   3.306   7.783  0.1693  0.3698 -0.7159
 1994TIP3    H130177   6.923   3.389   7.801 -0.3400  0.1708 -1.0315
 1994TIP3    H230178   7.051   3.331   7.743 -0.3957  0.7118 -1.7192
 1995TIP3   OH230179   5.088   7.262   7.709 -0.3677  0.0202  0.2490
 1995TIP3    H130180   5.008   7.234   7.753 -0.7840 -0.5695 -0.8408
 1995TIP3    H230181   5.063   7.272   7.617  1.5213 -3.6176 -0.8711
 1996TIP3   OH230182   4.372   6.242   6.723  0.2652 -0.2757 -0.0479
 1996TIP3    H130183   4.425   6.191   6.661 -0.9521 -0.7298 -0.7326
 1996TIP3    H230184   4.295   6.267   6.674 -0.6566 -0.5069  1.2339
 1997TIP3   OH230185   0.308   4.372   8.062  0.0820 -0.3069 -0.2747
 1997TIP3    H130186   0.351   4.337   8.140 -0.2811  1.5953  0.8453
 1997TIP3    H230187   0.269   4.296   8.019  1.0992 -1.5153  0.8918
 1998TIP3   OH230188   7.371   5.543   7.743  0.0286  0.2305 -0.2704
 1998TIP3    H130189   7.372   5.493   7.662 -0.3970  1.2126 -0.9012
 1998TIP3    H230190   7.292   5.596   7.738  0.4379  0.9396  0.3878
 1999TIP3   OH230191   3.100   1.847   7.177 -0.3887  0.1598  0.3150
 1999TIP3    H130192   3.143   1.855   7.092  0.1731  0.9036  0.6571
 1999TIP3    H230193   3.140   1.770   7.217 -0.4617 -0.0328  0.0228
 2000TIP3   OH230194   4.395   5.152   8.860 -0.5493 -0.2137  0.9702
 2000TIP3    H130195   4.485   5.135   8.889  0.5433  1.1253 -1.3102
 2000TIP3    H230196   4.354   5.066   8.859  1.4164 -1.2266 -0.0313
 2001TIP3   OH230197   6.248   5.767   7.287 -0.6262  0.1913  0.0903
 2001TIP3    H130198   6.161   5.804   7.304 -0.8576  0.3266 -1.2299
 2001TIP3    H230199   6.249   5.684   7.335 -1.4727  0.2121  0.1612
 2002TIP3   OH230200   0.751   1.612   7.391 -0.0062  0.5720 -0.1285
 2002TIP3    H130201   0.745   1.644   7.481 -0.8851 -0.7606  0.3160
 2002TIP3    H230202   0.845   1.600   7.376  0.1189  0.3217  0.7946
 2003TIP3   OH230203   4.989   4.083   9.268  0.0568 -0.1987  0.0807
 2003TIP3    H130204   4.924   4.072   9.338  0.5936  0.7422  0.7539
 2003TIP3    H230205   4.940   4.124   9.197 -0.4462 -0.9670 -0.0314
 2004TIP3   OH230206   3.710   5.504   6.676  0.6632 -0.6140 -0.2500
 2004TIP3    H130207   3.649   5.574   6.702  2.2470 -0.1295  2.6498
 2004TIP3    H230208   3.789   5.550   6.650  0.8875 -1.2944 -0.7888
 2005TIP3   OH230209   4.127   4.739   9.402 -0.3802  0.3052  0.2382
 2005TIP3    H130210   4.128   4.643   9.408 -0.8141  0.0726 -2.3536
 2005TIP3    H230211   4.055   4.765   9.460 -0.7469 -0.9823  0.4025
 2006TIP3   OH230212   2.832   4.242   8.607 -0.3013  0.7719 -0.9293
 2006TIP3    H130213   2.739   4.263   8.611 -0.8110 -1.4530  0.9084
 2006TIP3    H230214   2.836   4.156   8.566  1.0150  0.9478 -1.2510
 2007TIP3   OH230215   6.897   4.225   8.151  0.4465  0.3459  0.8607
 2007TIP3    H130216   6.874   4.279   8.226  0.6313  1.8511 -0.1282
 2007TIP3    H230217   6.993   4.228   8.147  0.4088  0.8882  0.1504
 2008TIP3   OH230218   3.595   2.110   9.278 -0.1604 -0.6546  0.3784
 2008TIP3    H130219   3.582   2.127   9.371  1.3182 -0.0455  0.4975
 2008TIP3    H230220   3.544   2.179   9.234  1.1826  0.6346  0.7893
 2009TIP3   OH230221   2.036   0.257   7.408  0.6426  0.3132 -0.5227
 2009TIP3    H130222   2.104   0.318   7.437  0.0215  0.3918  0.8356
 2009TIP3    H230223   2.071   0.170   7.428 -0.1379  0.3923  1.3795
 2010TIP3   OH230224   1.453   4.499   9.491 -0.0802  0.2903  0.0314
 2010TIP3    H130225   1.545   4.501   9.517 -0.0328  0.1051 -0.1250
 2010TIP3    H230226   1.433   4.406   9.478  0.6455  0.4925 -3.2618
 2011TIP3   OH230227   0.099   1.259   8.234  0.3848 -0.1675 -0.1989
 2011TIP3    H130228   0.128   1.175   8.270 -2.4353 -1.1225  0.1238
 2011TIP3    H230229   0.068   1.308   8.309 -1.3692 -0.3590 -0.7562
 2012TIP3   OH230230   3.296   5.155   9.037  0.3957  0.1158  0.0810
 2012TIP3    H130231   3.332   5.117   9.117  0.0628  0.5002  0.4197
 2012TIP3    H230232   3.331   5.244   9.036 -0.5244  0.4977  0.4178
 2013TIP3   OH230233   0.992   2.084   8.762  0.5402 -0.9015  0.0509
 2013TIP3    H130234   1.073   2.034   8.758 -0.7983 -3.1740 -0.1543
 2013TIP3    H230235   0.922   2.019   8.751 -1.3664  0.8023  1.2532
 2014TIP3   OH230236   4.336   6.582   8.406  0.2156  0.4938  0.3334
 2014TIP3    H130237   4.305   6.591   8.496 -3.1191 -0.1309 -0.6511
 2014TIP3    H230238   4.284   6.645   8.356  0.4101 -0.7351 -1.5024
 2015TIP3   OH230239   0.734   0.040   8.601  0.7066  0.4853 -0.0462
 2015TIP3    H130240   0.761   0.012   8.514 -0.2827  1.6511 -0.7695
 2015TIP3    H230241   0.743   0.135   8.599 -0.7188  0.6572  0.6054
 2016TIP3   OH230242   1.397   2.959   9.299 -0.1287 -0.1430  0.1658
 2016TIP3    H130243   1.411   2.876   9.253  0.8061 -1.2133  2.2344
 2016TIP3    H230244   1.351   2.935   9.379 -2.3213  1.7472 -0.4205
 2017TIP3   OH230245   6.285   4.351   8.224  0.5771 -0.4898  0.1025
 2017TIP3    H130246   6.248   4.405   8.154 -0.0531  1.0174  1.5471
 2017TIP3    H230247   6.230   4.272   8.224  0.1767 -0.2213 -0.6739
 2018TIP3   OH230248   5.228   3.714   8.742  0.4115 -0.6305 -0.3865
 2018TIP3    H130249   5.205   3.718   8.649 -1.3519  1.4543  0.0450
 2018TIP3    H230250   5.174   3.644   8.778 -0.9790  0.3445 -0.4907
 2019TIP3   OH230251   5.951   5.346   8.836 -0.6707 -0.0844 -0.0716
 2019TIP3    H130252   5.951   5.430   8.789 -1.7607 -0.4112 -0.7076
 2019TIP3    H230253   5.864   5.310   8.819 -0.5251 -0.9401  0.9322
 2020TIP3   OH230254   6.517   2.875   8.916  0.3723  0.3103 -0.0626
 2020TIP3    H130255   6.433   2.880   8.961  0.1113  0.2461 -0.5440
 2020TIP3    H230256   6.568   2.812   8.968 -0.5477 -1.1304 -0.8523
 2021TIP3   OH230257   1.768   1.448   9.293 -0.1650  0.1069 -0.9472
 2021TIP3    H130258   1.863   1.456   9.283 -0.3155  1.0589 -1.8307
 2021TIP3    H230259   1.740   1.535   9.323 -0.6669 -0.4420  0.2245
 2022TIP3   OH230260   3.342   6.380   8.536  0.0478 -0.0861  0.2700
 2022TIP3    H130261   3.388   6.462   8.554 -0.3048  0.5902 -1.6415
 2022TIP3    H230262   3.259   6.408   8.497  0.6659 -1.3163 -2.0977
 2023TIP3   OH230263   1.074   1.296   8.234 -0.0209  0.1279 -0.1450
 2023TIP3    H130264   1.147   1.235   8.240 -1.2691 -1.5470 -1.1948
 2023TIP3    H230265   0.996   1.241   8.243 -1.1837  1.6597 -0.4750
 2024TIP3   OH230266   1.783   5.820   7.277  0.1855 -0.3290  0.3866
 2024TIP3    H130267   1.778   5.725   7.274 -0.3723 -0.2883 -0.0116
 2024TIP3    H230268   1.843   5.844   7.206  1.2538 -0.4400  1.2182
 2025TIP3   OH230269   4.459   0.946   6.955  0.0053 -0.3000  0.1930
 2025TIP3    H130270   4.539   0.964   7.005 -0.9183 -0.1898  1.6877
 2025TIP3    H230271   4.420   1.033   6.942  0.0251 -0.3740 -0.3495
 2026TIP3   OH230272   4.757   5.736   8.833  0.3900  0.1301  1.0545
 2026TIP3    H130273   4.740   5.781   8.750 -0.6081 -0.7856  0.7350
 2026TIP3    H230274   4.713   5.790   8.899 -0.1162  0.0540  0.7835
 2027TIP3   OH230275   0.711   4.196   7.916 -0.4035  0.2602 -0.0771
 2027TIP3    H130276   0.689   4.180   7.824  0.1728 -3.3472  0.2824
 2027TIP3    H230277   0.778   4.131   7.937  0.8077  2.1398  2.4758
 2028TIP3   OH230278   1.833   0.955   7.744 -0.5115 -0.7525 -0.0825
 2028TIP3    H130279   1.752   0.908   7.765 -2.6634  2.9584  0.8709
 2028TIP3    H230280   1.895   0.927   7.811 -1.4809 -2.4583  0.1690
 2029TIP3   OH230281   7.304   6.613   8.717  0.2419 -0.1258 -0.9279
 2029TIP3    H130282   7.215   6.644   8.706  0.2684  0.5344  0.4780
 2029TIP3    H230283   7.357   6.693   8.725  0.6898 -0.4936  0.0044
 2030TIP3   OH230284   0.785   5.224   8.089  0.5492 -0.6622 -0.1245
 2030TIP3    H130285   0.832   5.170   8.025 -0.6049 -0.8132 -0.8689
 2030TIP3    H230286   0.840   5.302   8.100 -0.2448  0.4036 -2.9662
 2031TIP3   OH230287   7.131   7.288   9.407  0.1921  0.5013 -1.2021
 2031TIP3    H130288   7.191   7.296   9.481 -1.7464  0.0536  0.5175
 2031TIP3    H230289   7.119   7.378   9.376 -0.3007  0.9422  0.1931
 2032TIP3   OH230290   3.353   3.581   7.648  0.3084 -0.4250 -0.5553
 2032TIP3    H130291   3.283   3.596   7.711  2.0157 -1.1539  1.6389
 2032TIP3    H230292   3.311   3.588   7.562 -2.0706  0.7990  0.6365
 2033TIP3   OH230293   1.498   2.143   8.764  0.2293  0.8280 -0.3685
 2033TIP3    H130294   1.419   2.163   8.715  0.4405  0.8164 -0.7192
 2033TIP3    H230295   1.569   2.181   8.712  0.9848 -3.0149 -2.4766
 2034TIP3   OH230296   6.255   1.889   8.574  0.2325  0.0485  0.2373
 2034TIP3    H130297   6.348   1.894   8.599  0.2045 -2.3199  1.0742
 2034TIP3    H230298   6.254   1.911   8.481  1.8473 -0.9936 -0.0779
 2035TIP3   OH230299   4.688   3.432   7.042 -0.2218  0.7952  0.1287
 2035TIP3    H130300   4.607   3.381   7.051  0.0157  0.0508 -1.5906
 2035TIP3    H230301   4.708   3.460   7.131 -1.4449 -0.4325  0.8396
 2036TIP3   OH230302   6.999   2.933   8.969  0.2559 -0.2398 -0.0784
 2036TIP3    H130303   6.983   2.997   9.038 -0.4863 -0.0167 -0.4421
 2036TIP3    H230304   7.011   2.985   8.889 -0.9484 -0.5514 -0.4848
 2037TIP3   OH230305   0.277   5.082   8.202 -0.1544  0.6968  0.0875
 2037TIP3    H130306   0.335   5.134   8.147  1.5291  0.9176  1.9725
 2037TIP3    H230307   0.265   5.000   8.153  2.5581  0.2453  0.0044
 2038TIP3   OH230308   6.142   5.467   7.929  0.1891 -0.2424 -0.2929
 2038TIP3    H130309   6.135   5.459   8.024 -0.1988 -1.1812 -0.3945
 2038TIP3    H230310   6.060   5.509   7.902  0.0439 -0.5091 -0.2701
 2039TIP3   OH230311   0.946   1.037   6.434 -0.0583 -0.6533 -0.3981
 2039TIP3    H130312   1.025   1.024   6.380 -0.0993  0.2649 -0.6870
 2039TIP3    H230313   0.880   0.980   6.394 -0.3227  0.6018 -1.8280
 2040TIP3   OH230314   5.258   2.194   7.450  0.1075 -0.0668 -0.1009
 2040TIP3    H130315   5.201   2.141   7.506 -1.7686  0.5259 -1.3420
 2040TIP3    H230316   5.228   2.283   7.463  2.0586  0.5477  0.6104
 2041TIP3   OH230317   1.833   5.421   8.102  0.1736  0.7496 -0.1244
 2041TIP3    H130318   1.900   5.480   8.137 -0.2215  0.8594  0.4515
 2041TIP3    H230319   1.873   5.334   8.108 -1.0421  0.3132  3.6620
 2042TIP3   OH230320   1.983   0.861   6.883 -0.0140  0.2353  0.1843
 2042TIP3    H130321   1.972   0.854   6.788  0.9707  0.6344  0.0351
 2042TIP3    H230322   2.076   0.844   6.898 -0.4318 -1.3804  1.2427
 2043TIP3   OH230323   2.638   4.930   7.491  0.0377  0.5918 -0.6588
 2043TIP3    H130324   2.627   5.023   7.509 -0.1531  0.3350  0.6582
 2043TIP3    H230325   2.713   4.904   7.544  0.5627  0.1421 -1.5967
 2044TIP3   OH230326   4.137   5.893   7.513 -0.2779  0.5120  0.4419
 2044TIP3    H130327   4.224   5.884   7.474 -0.2563 -0.2619  0.6530
 2044TIP3    H230328   4.094   5.810   7.495 -1.1840  1.0974 -0.1435
 2045TIP3   OH230329   4.168   3.571   7.473 -0.0633  0.1165  0.2403
 2045TIP3    H130330   4.097   3.593   7.534 -0.9798 -0.1547 -0.7077
 2045TIP3    H230331   4.184   3.651   7.424  0.5077  0.2641  0.6564
 2046TIP3   OH230332   3.321   5.856   7.707  0.0760  0.5210 -1.3748
 2046TIP3    H130333   3.371   5.788   7.663  0.6318 -0.4718  0.6773
 2046TIP3    H230334   3.237   5.859   7.660  0.6302 -0.4830 -2.4528
 2047TIP3   OH230335   5.592   1.109   8.835  0.4375 -0.3786 -0.2891
 2047TIP3    H130336   5.557   1.180   8.781  0.8267  0.4348  0.5020
 2047TIP3    H230337   5.519   1.084   8.891  0.4561 -0.2266 -0.1949
 2048TIP3   OH230338   1.652   3.506   9.840 -0.3748  0.7183 -0.1212
 2048TIP3    H130339   1.566   3.492   9.880 -0.5024  0.4138 -0.4989
 2048TIP3    H230340   1.644   3.589   9.794 -0.9414  0.0042 -1.3805
 2049TIP3   OH230341   6.758   1.652   9.044  0.3659 -0.1654  0.5506
 2049TIP3    H130342   6.828   1.664   9.108  0.3174 -0.9836  0.7672
 2049TIP3    H230343   6.713   1.573   9.072  0.2530 -0.4615 -0.4179
 2050TIP3   OH230344   2.924   3.622   7.552  0.3381  0.1372  0.1481
 2050TIP3    H130345   2.858   3.629   7.483  0.5926  0.9303 -0.0172
 2050TIP3    H230346   2.977   3.701   7.544  1.0648 -0.2991  0.5413
 2051TIP3   OH230347   1.121   3.340   7.865  0.3132  0.2350 -0.1647
 2051TIP3    H130348   1.116   3.428   7.902 -0.2060  0.2519 -0.2694
 2051TIP3    H230349   1.211   3.311   7.884  1.0883  1.4620 -1.6750
 2052TIP3   OH230350   6.489   5.325   7.108  0.4899 -0.0356  0.1174
 2052TIP3    H130351   6.450   5.238   7.122  1.4958 -0.6918 -0.9108
 2052TIP3    H230352   6.416   5.380   7.081 -0.0395 -0.7739 -0.0036
 2053TIP3   OH230353   4.567   0.424   8.549 -0.3678 -0.6778 -0.3296
 2053TIP3    H130354   4.533   0.507   8.515 -0.8014 -0.1657  1.2802
 2053TIP3    H230355   4.634   0.398   8.486 -1.2347  0.1422 -1.6341
 2054TIP3   OH230356   5.865   4.639   8.237  0.2599 -0.1573 -0.1653
 2054TIP3    H130357   5.834   4.728   8.222 -3.8952 -1.2611  0.6319
 2054TIP3    H230358   5.874   4.602   8.149 -3.0336 -0.2932 -0.5889
 2055TIP3   OH230359   6.343   2.843   8.443 -0.0344 -0.0492  0.0360
 2055TIP3    H130360   6.259   2.873   8.477 -0.0273  1.7192 -1.3289
 2055TIP3    H230361   6.333   2.748   8.434 -2.0358  0.1685 -0.4493
 2056TIP3   OH230362   5.603   7.166   7.862 -0.3685  0.1624 -0.1968
 2056TIP3    H130363   5.637   7.250   7.833 -0.0413  0.9920  2.3106
 2056TIP3    H230364   5.650   7.101   7.810  2.8668  1.3867  0.9598
 2057TIP3   OH230365   2.170   5.443   8.102 -0.6765 -0.0241  0.1177
 2057TIP3    H130366   2.211   5.400   8.177 -0.8259 -0.7329 -0.1947
 2057TIP3    H230367   2.200   5.393   8.027  0.9702  1.8008 -0.5038
 2058TIP3   OH230368   5.195   5.133   8.785 -0.2213 -0.2944 -0.2208
 2058TIP3    H130369   5.128   5.196   8.759 -1.5018 -1.1622  0.8460
 2058TIP3    H230370   5.190   5.064   8.720 -0.2446 -0.2724 -0.2423
 2059TIP3   OH230371   6.784   0.737   8.791  0.0994 -0.1738 -0.1872
 2059TIP3    H130372   6.854   0.688   8.834  0.3766 -1.3746 -1.9002
 2059TIP3    H230373   6.704   0.706   8.834  0.4582 -0.1979  0.4876
 2060TIP3   OH230374   5.976   4.554   7.646 -0.0237  0.3223 -0.1475
 2060TIP3    H130375   5.953   4.530   7.556  0.2679 -1.5007  0.2205
 2060TIP3    H230376   6.067   4.581   7.641  0.6968 -1.8929 -0.1186
 2061TIP3   OH230377   0.402   0.161   7.646  0.7105 -0.2157 -0.3918
 2061TIP3    H130378   0.399   0.223   7.719 -1.7325  0.4904 -1.0180
 2061TIP3    H230379   0.452   0.207   7.578 -0.0549  0.5868 -0.4249
 2062TIP3   OH230380   0.212   3.045   7.062 -0.2441  0.4111  0.1678
 2062TIP3    H130381   0.205   3.016   7.153  1.4262 -1.8081 -0.3505
 2062TIP3    H230382   0.124   3.078   7.041 -1.8556 -2.6851  1.4091
 2063TIP3   OH230383   7.420   3.297   8.200 -0.1661  0.5228  0.2067
 2063TIP3    H130384   7.509   3.332   8.186 -0.7577  2.3041  0.5610
 2063TIP3    H230385   7.364   3.374   8.191 -1.7109 -0.6240 -0.2469
 2064TIP3   OH230386   6.727   3.926   6.903  0.0741  0.0812  0.1522
 2064TIP3    H130387   6.809   3.876   6.903 -0.1233 -0.2474 -0.0454
 2064TIP3    H230388   6.662   3.864   6.936 -0.3788 -0.1388 -1.0948
 2065TIP3   OH230389   1.724   6.183   7.303 -0.6775 -0.4171 -0.0415
 2065TIP3    H130390   1.804   6.210   7.257  1.1256 -2.1471  1.9072
 2065TIP3    H230391   1.692   6.263   7.344  1.1253  0.0070  0.6401
 2066TIP3   OH230392   5.758   4.734   7.675  0.3928  0.4404 -0.2806
 2066TIP3    H130393   5.777   4.762   7.586 -0.1719  0.7549 -0.3109
 2066TIP3    H230394   5.823   4.667   7.694  0.6926  0.5708 -0.8284
 2067TIP3   OH230395   0.677   3.021   8.212 -0.7724  0.0322  0.2934
 2067TIP3    H130396   0.733   3.092   8.240  0.7627 -0.8629 -0.4047
 2067TIP3    H230397   0.685   2.955   8.280  0.2653 -0.7302 -0.5361
 2068TIP3   OH230398   5.044   1.233   7.556 -0.7030  0.1925 -0.6420
 2068TIP3    H130399   5.043   1.300   7.489  0.2822  0.5029 -0.3659
 2068TIP3    H230400   5.135   1.205   7.561 -0.9197 -0.4525 -0.0471
 2069TIP3   OH230401   4.660   0.983   7.147  0.1377 -0.7585  0.4030
 2069TIP3    H130402   4.749   0.946   7.144  1.0117  1.2670 -0.4548
 2069TIP3    H230403   4.673   1.076   7.161 -1.9338 -0.5292  1.2014
 2070TIP3   OH230404   4.666   0.847   7.407  0.1827  0.1713  0.8938
 2070TIP3    H130405   4.657   0.852   7.312  1.6316  1.5347  0.7803
 2070TIP3    H230406   4.576   0.847   7.440 -0.3605  2.1718 -0.4079
 2071TIP3   OH230407   7.505   3.983   6.718 -0.5653  0.1968 -0.0542
 2071TIP3    H130408   7.445   4.039   6.668 -1.9941 -0.0681  1.2846
 2071TIP3    H230409   7.576   3.964   6.657 -1.8255  0.5577 -1.7191
 2072TIP3   OH230410   7.178   2.681   7.954 -0.0644  0.2028 -0.3086
 2072TIP3    H130411   7.227   2.728   7.887 -1.7238  2.3661 -0.1059
 2072TIP3    H230412   7.244   2.656   8.019  1.5065 -1.5573 -2.4505
 2073TIP3   OH230413   6.726   2.725   9.031  0.1265  0.3832  0.1752
 2073TIP3    H130414   6.778   2.647   9.049 -0.2983 -0.2669 -1.2495
 2073TIP3    H230415   6.790   2.790   9.001  0.3207  0.1078 -0.0118
 2074TIP3   OH230416   2.443   5.502   8.892  0.3991  0.7172 -0.1698
 2074TIP3    H130417   2.371   5.450   8.857  1.0116  1.6546 -3.1483
 2074TIP3    H230418   2.403   5.584   8.922  0.0835  0.7993 -0.8093
 2075TIP3   OH230419   6.685   2.447   9.195 -0.3242  0.4926 -0.0943
 2075TIP3    H130420   6.673   2.480   9.284 -1.2874  1.0012 -0.3914
 2075TIP3    H230421   6.746   2.374   9.204  0.3008  1.1054  0.8593
 2076TIP3   OH230422   4.484   4.605   7.502  0.3876 -0.0350  0.4463
 2076TIP3    H130423   4.426   4.662   7.553  0.8559 -0.8811  1.9921
 2076TIP3    H230424   4.432   4.582   7.424 -0.6520  0.6819  0.8986
 2077TIP3   OH230425   5.797   1.538   7.135  0.7049 -0.1182  0.4779
 2077TIP3    H130426   5.752   1.478   7.076 -0.7539 -0.3933  1.7904
 2077TIP3    H230427   5.750   1.621   7.126  2.3893  0.7401 -0.9458
 2078TIP3   OH230428   4.644   5.788   9.084  0.3492  0.0355  0.6035
 2078TIP3    H130429   4.565   5.766   9.034  0.9998 -1.1518  0.0301
 2078TIP3    H230430   4.647   5.722   9.153  1.8874 -1.2822 -0.6190
 2079TIP3   OH230431   3.640   3.726   6.919 -0.4871  0.3577 -0.0929
 2079TIP3    H130432   3.710   3.789   6.904  0.0938 -0.3686 -0.4723
 2079TIP3    H230433   3.682   3.650   6.959 -1.2259  0.3007  0.6231
 2080TIP3   OH230434   0.130   1.424   8.441 -0.0918 -0.1560  0.0963
 2080TIP3    H130435   0.176   1.421   8.525 -0.7093  0.1404  0.4577
 2080TIP3    H230436   0.157   1.507   8.402 -0.6691  0.2482  0.5261
 2081TIP3   OH230437   0.659   3.786   7.698  0.1152  0.1371  0.8094
 2081TIP3    H130438   0.637   3.840   7.773  3.0426 -1.1180  2.7535
 2081TIP3    H230439   0.670   3.698   7.734 -1.3676 -1.1910 -1.6813
 2082TIP3   OH230440   1.713   6.298   8.327 -0.6420 -0.1834 -0.5334
 2082TIP3    H130441   1.728   6.214   8.368 -1.6093  0.6124  1.5712
 2082TIP3    H230442   1.683   6.355   8.398 -1.0871  1.6344 -2.0917
 2083TIP3   OH230443   5.083   3.217   8.733 -0.5148 -0.4116 -0.7836
 2083TIP3    H130444   5.040   3.166   8.802  0.1207  0.7987  0.5558
 2083TIP3    H230445   5.171   3.234   8.766 -0.7031  1.5529 -1.1465
 2084TIP3   OH230446   0.133   1.815   7.798  0.0564 -0.4785 -0.5754
 2084TIP3    H130447   0.106   1.778   7.882  0.7542  0.9891  0.3471
 2084TIP3    H230448   0.051   1.835   7.754 -0.3962  0.7651  0.7328
 2085TIP3   OH230449   4.305   5.747   9.594 -0.5731 -0.4872 -0.3649
 2085TIP3    H130450   4.359   5.824   9.609 -0.3054 -0.7520  0.0547
 2085TIP3    H230451   4.221   5.768   9.634 -0.4353 -0.4881 -0.0713
 2086TIP3   OH230452   7.125   1.184   7.536 -0.5280  0.0513 -0.3945
 2086TIP3    H130453   7.191   1.211   7.472 -1.6050  0.9059 -1.1730
 2086TIP3    H230454   7.130   1.251   7.605  0.2865 -0.5965  0.2015
 2087TIP3   OH230455   6.875   0.332   7.571 -0.1455 -0.4900  0.1558
 2087TIP3    H130456   6.812   0.271   7.610  0.5454 -1.2379  0.1203
 2087TIP3    H230457   6.885   0.302   7.480 -1.8732  1.3447 -0.7071
 2088TIP3   OH230458   0.241   0.860   8.973 -0.3504 -0.4969  0.4097
 2088TIP3    H130459   0.162   0.856   9.026 -0.8614 -2.6919 -0.4130
 2088TIP3    H230460   0.212   0.895   8.889  0.2537  1.9426  1.1478
 2089TIP3   OH230461   2.123   2.922   7.030  0.1149  0.5770  0.2488
 2089TIP3    H130462   2.027   2.919   7.037 -0.1191 -0.9317 -2.3381
 2089TIP3    H230463   2.139   2.946   6.939  2.0176 -3.9126 -0.8650
 2090TIP3   OH230464   2.127   7.414   9.949  0.5541  0.0493 -0.0371
 2090TIP3    H130465   2.081   7.337   9.916  1.0502 -1.1478  1.9203
 2090TIP3    H230466   2.169   7.385  10.030  0.5065  2.4532  0.9510
 2091TIP3   OH230467   0.726   2.184   9.592  0.3577  0.1550  0.8403
 2091TIP3    H130468   0.654   2.123   9.574 -0.4901  1.1008  0.8974
 2091TIP3    H230469   0.683   2.260   9.632  1.2473  1.2000 -0.1137
 2092TIP3   OH230470   1.385   4.243   9.502 -0.0130 -0.6060  0.1076
 2092TIP3    H130471   1.397   4.170   9.441 -0.7785 -0.6821  0.0348
 2092TIP3    H230472   1.367   4.202   9.586 -0.4245 -0.5062  0.0715
 2093TIP3   OH230473   4.264   4.982   9.426  0.6887 -0.1856  0.6954
 2093TIP3    H130474   4.196   4.915   9.419 -0.2507  0.8406 -0.6663
 2093TIP3    H230475   4.259   5.029   9.343  3.3918 -0.3290  0.3918
 2094TIP3   OH230476   7.055   5.654   8.323  0.3845 -0.0167 -0.3919
 2094TIP3    H130477   6.959   5.657   8.328  0.3315 -0.2749 -1.1371
 2094TIP3    H230478   7.081   5.744   8.301  0.5391  0.8242  2.7334
 2095TIP3   OH230479   0.407   0.355   8.205  0.2014 -0.1324 -0.6249
 2095TIP3    H130480   0.362   0.432   8.171 -0.9335 -0.4790  0.0575
 2095TIP3    H230481   0.346   0.283   8.192  1.0082 -0.8250 -0.6965
 2096TIP3   OH230482   3.849   0.839   6.820  0.1038 -0.5120  0.3268
 2096TIP3    H130483   3.905   0.765   6.842 -0.3464 -0.6655  1.0103
 2096TIP3    H230484   3.760   0.807   6.837 -0.0738  0.2919  0.9644
 2097TIP3   OH230485   5.753   2.335   7.433  0.1790 -0.5854 -0.1164
 2097TIP3    H130486   5.778   2.312   7.344  1.4411  0.4476 -0.0620
 2097TIP3    H230487   5.835   2.362   7.475 -0.6001  0.2725  0.9301
 2098TIP3   OH230488   3.688   6.022   8.997 -0.4357 -0.1464 -0.3249
 2098TIP3    H130489   3.706   5.956   8.930  1.2659 -0.0047 -0.0673
 2098TIP3    H230490   3.622   5.982   9.053  0.6218 -1.7021 -0.1164
 2099TIP3   OH230491   3.549   1.839   9.328  0.5265  0.7001 -0.0511
 2099TIP3    H130492   3.566   1.926   9.292 -2.7718  1.3027 -0.4247
 2099TIP3    H230493   3.524   1.786   9.253 -2.8154  0.9985  0.6844
 2100TIP3   OH230494   2.016   5.195   6.953  0.2264 -0.6381 -0.0148
 2100TIP3    H130495   2.000   5.285   6.979  3.8639 -0.1006  0.8747
 2100TIP3    H230496   2.035   5.149   7.034 -0.5363 -1.9931 -0.5672
 2101TIP3   OH230497   0.268   0.155   8.121  0.0165 -0.4313 -0.0931
 2101TIP3    H130498   0.251   0.087   8.187 -2.2856 -1.0937 -1.2400
 2101TIP3    H230499   0.259   0.109   8.037  0.7247  0.8263 -0.8825
 2102TIP3   OH230500   4.889   7.147   9.498  0.1145  0.6023  0.3578
 2102TIP3    H130501   4.825   7.179   9.561  0.5786  0.3331  0.9900
 2102TIP3    H230502   4.949   7.220   9.485 -0.8346  1.1835 -0.9717
 2103TIP3   OH230503   7.522   5.171   7.421 -0.3437  0.3314  0.5239
 2103TIP3    H130504   7.431   5.139   7.420  0.3091 -1.6765  0.3546
 2103TIP3    H230505   7.558   5.143   7.338  1.2596 -1.6248  1.7895
 2104TIP3   OH230506   5.726   6.357   8.961 -0.8232 -0.4045 -0.1317
 2104TIP3    H130507   5.639   6.398   8.968 -1.0819 -0.9276 -0.2162
 2104TIP3    H230508   5.732   6.301   9.038 -0.5327 -0.3160 -0.0920
 2105TIP3   OH230509   7.219   5.286   8.767 -0.3590 -0.4100  0.0419
 2105TIP3    H130510   7.270   5.365   8.781  0.9516 -1.2533  0.2402
 2105TIP3    H230511   7.224   5.271   8.672  0.2449 -0.7893  0.1284
 2106TIP3   OH230512   3.484   4.007   8.805 -0.4661 -0.2008  0.9244
 2106TIP3    H130513   3.471   4.056   8.886  1.1161  2.1693 -0.1278
 2106TIP3    H230514   3.485   3.915   8.832 -0.6331  0.4619  3.4621
 2107TIP3   OH230515   5.790   1.332   7.365  0.2526  0.3039  0.4441
 2107TIP3    H130516   5.781   1.402   7.301  1.6467  0.9696  0.9357
 2107TIP3    H230517   5.702   1.320   7.401 -0.3395  0.6085 -0.8494
 2108TIP3   OH230518   4.824   3.526   7.682 -0.3482 -0.1293  0.2082
 2108TIP3    H130519   4.901   3.488   7.724 -0.1088 -0.9975 -0.9902
 2108TIP3    H230520   4.815   3.612   7.723 -0.1573 -0.9510  2.0572
 2109TIP3   OH230521   2.041   0.985   8.128 -0.1407  0.4146 -0.0053
 2109TIP3    H130522   2.099   1.021   8.195  2.8801  0.3866 -2.3924
 2109TIP3    H230523   1.995   1.061   8.093  0.8774  0.9496 -0.2121
 2110TIP3   OH230524   2.580   6.120   8.373  0.0194  0.1309 -0.8129
 2110TIP3    H130525   2.665   6.088   8.343  0.5829  1.3553 -0.5676
 2110TIP3    H230526   2.542   6.046   8.420  0.8971 -0.4701 -1.0310
 2111TIP3   OH230527   5.803   1.407   6.445 -0.4101  0.3882  0.3241
 2111TIP3    H130528   5.787   1.388   6.538 -1.0363  0.1488  0.1776
 2111TIP3    H230529   5.731   1.465   6.420 -0.5628  0.0018 -0.1460
 2112TIP3   OH230530   0.500   2.234   9.839  0.2434 -0.2092 -0.1791
 2112TIP3    H130531   0.410   2.231   9.808  0.4876  0.3353 -0.9663
 2112TIP3    H230532   0.493   2.229   9.934 -0.8743  3.2636  0.0831
 2113TIP3   OH230533   3.375   2.946   9.000 -0.7186  0.1377  0.2723
 2113TIP3    H130534   3.433   3.022   8.993 -1.5838  0.7306 -0.7966
 2113TIP3    H230535   3.386   2.916   9.090 -0.3953  1.5720  0.7399
 2114TIP3   OH230536   2.336   3.867   9.109  0.0534 -0.4195 -0.3065
 2114TIP3    H130537   2.426   3.834   9.116  0.6641  1.2247 -0.0384
 2114TIP3    H230538   2.330   3.903   9.021  0.1204  0.6927  0.1216
 2115TIP3   OH230539   4.952   6.211   9.033 -0.4118 -0.2713  0.0165
 2115TIP3    H130540   5.021   6.151   9.059 -0.4542  0.0464  0.8928
 2115TIP3    H230541   4.872   6.172   9.068 -0.5765 -0.2490 -0.3333
 2116TIP3   OH230542   1.389   6.532   8.270 -0.5641 -0.9392 -0.1824
 2116TIP3    H130543   1.407   6.438   8.265 -0.7934 -1.0270  0.6156
 2116TIP3    H230544   1.295   6.540   8.256 -0.4769 -0.7772 -0.7321
 2117TIP3   OH230545   0.507   2.029   9.572  0.0816 -0.0145 -0.3974
 2117TIP3    H130546   0.430   2.086   9.573  0.6895  0.8254  0.2684
 2117TIP3    H230547   0.503   1.985   9.487 -0.2065  1.2988 -1.0988
 2118TIP3   OH230548   3.758   3.969   9.083 -0.0600 -0.2871 -0.0413
 2118TIP3    H130549   3.730   3.878   9.077 -1.3817 -0.1523  2.6223
 2118TIP3    H230550   3.678   4.017   9.103  0.6820  1.4450 -1.0246
 2119TIP3   OH230551   4.712   1.119   7.700  0.5675  0.1036  0.4646
 2119TIP3    H130552   4.707   1.166   7.617  3.2350 -0.3087 -0.0062
 2119TIP3    H230553   4.744   1.032   7.678 -1.6920 -1.1434  1.6455
 2120TIP3   OH230554   7.524   2.613   6.882  0.4584 -0.0646  0.2926
 2120TIP3    H130555   7.572   2.679   6.832  0.9370 -0.0459  0.7645
 2120TIP3    H230556   7.578   2.534   6.877 -0.1613 -0.4613 -0.3514
 2121TIP3   OH230557   3.580   7.129   7.588 -0.1538  0.3329  0.9844
 2121TIP3    H130558   3.644   7.066   7.555  0.6880  1.6155  0.1081
 2121TIP3    H230559   3.550   7.090   7.670  2.6680  0.2262  2.1064
 2122TIP3   OH230560   3.493   1.123   7.364  0.0864 -0.1299 -0.0116
 2122TIP3    H130561   3.510   1.150   7.454  1.1534 -1.2102  0.1426
 2122TIP3    H230562   3.580   1.111   7.326 -0.3540  0.0228 -1.1015
 2123TIP3   OH230563   5.312   0.889   6.811  0.0170  0.7069 -0.2996
 2123TIP3    H130564   5.252   0.961   6.790 -1.3350 -0.7283 -1.5168
 2123TIP3    H230565   5.386   0.933   6.854 -0.7192  2.8332 -1.0402
 2124TIP3   OH230566   3.952   5.799   9.352  0.6647  0.1259  0.2715
 2124TIP3    H130567   3.937   5.762   9.264  2.3823 -1.2607  0.5099
 2124TIP3    H230568   3.992   5.884   9.335  0.9391 -0.1060 -0.2921
 2125TIP3   OH230569   6.308   2.201   8.616 -0.1074  0.7645 -0.5449
 2125TIP3    H130570   6.231   2.177   8.669  1.4728 -0.9111  1.1457
 2125TIP3    H230571   6.273   2.214   8.528 -1.9268 -3.4332 -0.6544
 2126TIP3   OH230572   3.395   6.017   9.400  0.2942  0.1879  0.1174
 2126TIP3    H130573   3.367   6.108   9.403  0.8269  0.3474  0.2264
 2126TIP3    H230574   3.314   5.967   9.412 -0.3512  0.5973 -2.0602
 2127TIP3   OH230575   3.391   6.804   8.764  0.3329 -0.0359  0.3809
 2127TIP3    H130576   3.485   6.789   8.755  0.2085 -0.7330  0.2027
 2127TIP3    H230577   3.380   6.838   8.853  0.6014 -1.2625  0.9065
 2128TIP3   OH230578   1.576   0.057   8.644 -0.2453  0.1655  0.0209
 2128TIP3    H130579   1.658   0.007   8.649 -0.7195 -0.5426  0.8291
 2128TIP3    H230580   1.559   0.064   8.550  1.8784  2.2407 -0.3210
 2129TIP3   OH230581   1.260   2.412   9.216  0.0262 -0.6320 -0.5338
 2129TIP3    H130582   1.349   2.383   9.196  1.2993  1.2141  1.8936
 2129TIP3    H230583   1.227   2.346   9.278  0.6008 -0.1635  0.2944
 2130TIP3   OH230584   2.680   4.122   9.356 -0.8790 -0.2940 -0.1070
 2130TIP3    H130585   2.612   4.151   9.295 -2.8529 -0.2477  2.0068
 2130TIP3    H230586   2.653   4.157   9.441  0.1565 -2.8027  1.3585
 2131TIP3   OH230587   0.214   6.948   9.085  0.1105  0.0076  0.5539
 2131TIP3    H130588   0.229   7.042   9.074 -0.7484  0.0224 -0.7185
 2131TIP3    H230589   0.295   6.908   9.053 -0.2547  0.2727 -0.7698
 2132TIP3   OH230590   5.073   4.382   7.520 -0.4244  0.2534  0.3743
 2132TIP3    H130591   5.161   4.395   7.555 -0.5510 -0.6331  1.0549
 2132TIP3    H230592   5.067   4.287   7.506 -1.0735  0.3756 -0.2084
 2133TIP3   OH230593   7.024   6.740   7.453 -0.6194  0.3730  0.1899
 2133TIP3    H130594   7.032   6.646   7.464  0.7065  0.4273 -0.0550
 2133TIP3    H230595   6.963   6.751   7.380 -0.2827 -0.3188 -0.2023
 2134TIP3   OH230596   0.059   1.188   9.162  0.6291  0.4621  0.0451
 2134TIP3    H130597   0.057   1.202   9.068 -0.2039 -2.1236 -0.4095
 2134TIP3    H230598   0.151   1.198   9.186  0.6630  2.4452 -0.7648
 2135TIP3   OH230599   1.100   3.975   7.653 -0.5018  0.0821 -0.1327
 2135TIP3    H130600   1.027   3.976   7.592  0.7940  0.5065 -1.7330
 2135TIP3    H230601   1.122   3.882   7.663 -0.3669  0.0449 -0.7603
 2136TIP3   OH230602   1.370   2.169   8.992  0.7065 -0.2794  0.0334
 2136TIP3    H130603   1.399   2.166   8.901  0.5560  0.0849 -0.0262
 2136TIP3    H230604   1.303   2.101   8.998  0.9318 -0.5104 -0.0499
 2137TIP3   OH230605   0.162   2.332   9.046  0.5432 -0.0215 -0.6501
 2137TIP3    H130606   0.088   2.353   8.988 -1.8502  1.7264  2.7037
 2137TIP3    H230607   0.140   2.247   9.084  1.7703 -0.8527 -1.7161
 2138TIP3   OH230608   1.954   4.090   7.993  0.3540 -0.6174  0.6141
 2138TIP3    H130609   2.020   4.025   8.016 -0.7428 -2.1146 -0.2633
 2138TIP3    H230610   1.890   4.086   8.064  0.3171 -0.4454  0.5921
 2139TIP3   OH230611   1.587   0.477   7.277 -0.0354  0.0015  0.5600
 2139TIP3    H130612   1.652   0.447   7.213 -1.7290  0.8608 -1.6994
 2139TIP3    H230613   1.640   0.515   7.347  1.9351 -0.9460 -0.3123
 2140TIP3   OH230614   2.388   6.152   8.134  0.0958 -0.0584 -0.3599
 2140TIP3    H130615   2.439   6.139   8.213 -1.6613 -3.3626  0.4565
 2140TIP3    H230616   2.301   6.177   8.165 -0.8494 -2.1946 -1.0401
 2141TIP3   OH230617   4.229   1.034   7.265  0.8775  0.0811  0.1481
 2141TIP3    H130618   4.292   1.028   7.337  3.3484 -0.4018 -1.8680
 2141TIP3    H230619   4.213   0.944   7.239  1.4847  0.2759 -1.0095
 2142TIP3   OH230620   4.336   4.406   8.515 -0.0749 -0.0157  0.1477
 2142TIP3    H130621   4.411   4.465   8.523 -1.3624  1.7031  0.0626
 2142TIP3    H230622   4.323   4.372   8.603  0.4479  0.1073  0.2788
 2143TIP3   OH230623   7.035   6.322   8.310 -0.5346  0.0105  0.5831
 2143TIP3    H130624   7.108   6.373   8.345 -0.6005  0.7246 -0.2653
 2143TIP3    H230625   6.976   6.308   8.384 -0.2151  0.6558  0.9575
 2144TIP3   OH230626   3.169   6.993   9.564 -0.4106 -0.0248 -0.0144
 2144TIP3    H130627   3.154   7.057   9.496 -0.3350  0.9722  0.8839
 2144TIP3    H230628   3.084   6.982   9.607 -0.7176 -1.4490 -0.9146
 2145TIP3   OH230629   2.600   4.414   7.029  0.1276 -0.6138 -0.5876
 2145TIP3    H130630   2.518   4.378   7.062  0.2925  0.3404  0.9678
 2145TIP3    H230631   2.633   4.348   6.969 -0.5747 -2.1146  0.6228
 2146TIP3   OH230632   3.724   5.109   7.301 -0.2631 -0.3311  0.0914
 2146TIP3    H130633   3.647   5.151   7.265 -0.0435 -0.0096 -0.0001
 2146TIP3    H230634   3.733   5.146   7.389  0.0457 -0.0428 -0.0632
 2147TIP3   OH230635   2.418   3.163   7.893  0.3620  0.4821  0.2325
 2147TIP3    H130636   2.389   3.072   7.892  1.0068  0.2436 -2.0769
 2147TIP3    H230637   2.469   3.173   7.813  3.5753  1.8521  2.2436
 2148TIP3   OH230638   3.651   0.381   9.039 -0.4692 -0.1933 -0.1487
 2148TIP3    H130639   3.723   0.320   9.024  1.7898  1.4293  2.9069
 2148TIP3    H230640   3.583   0.328   9.082  0.0584 -1.2029 -0.5299
 2149TIP3   OH230641   5.940   1.228   8.298  0.1495 -0.4521 -0.1741
 2149TIP3    H130642   5.969   1.148   8.342  1.3264 -0.6133 -1.1756
 2149TIP3    H230643   6.017   1.257   8.248 -1.1924 -0.4495 -2.3682
 2150TIP3   OH230644   5.262   1.336   8.577  0.1307  0.6968 -0.3520
 2150TIP3    H130645   5.217   1.417   8.601 -0.7232  0.0327  0.3893
 2150TIP3    H230646   5.237   1.274   8.646  0.2149 -0.3799 -1.2565
 2151TIP3   OH230647   2.373   5.382   9.211 -0.4046 -0.6790  0.0152
 2151TIP3    H130648   2.298   5.393   9.268 -1.3381 -0.6188 -1.1856
 2151TIP3    H230649   2.336   5.375   9.123  0.9573 -1.1486 -0.5556
 2152TIP3   OH230650   0.563   0.436   7.045 -0.0826  0.3907  0.2471
 2152TIP3    H130651   0.605   0.410   7.127  1.4864 -0.8180 -0.8648
 2152TIP3    H230652   0.631   0.484   6.998 -0.1855 -0.8209 -1.2316
 2153TIP3   OH230653   0.201   1.019   8.722  0.1236  0.3994  0.0832
 2153TIP3    H130654   0.288   1.001   8.686 -1.4000 -3.1687 -2.3790
 2153TIP3    H230655   0.143   1.022   8.646 -2.5857 -2.2174  1.8165
 2154TIP3   OH230656   7.128   1.986   8.622  0.1453  0.2432  0.4833
 2154TIP3    H130657   7.057   1.923   8.613 -0.3894  0.9273 -0.2403
 2154TIP3    H230658   7.204   1.942   8.583 -0.0473 -0.2101  0.6118
 2155TIP3   OH230659   3.149   1.889   9.167 -0.1434  0.3844 -0.0028
 2155TIP3    H130660   3.071   1.861   9.118 -0.3236  0.9488 -0.0469
 2155TIP3    H230661   3.218   1.831   9.137 -0.4265  0.2274 -0.3643
 2156TIP3   OH230662   5.498   5.728   7.813 -0.7553  0.1543 -0.2898
 2156TIP3    H130663   5.460   5.653   7.767 -1.0451  0.7231 -1.0045
 2156TIP3    H230664   5.434   5.753   7.879 -1.4738  0.8592 -1.2237
 2157TIP3   OH230665   7.309   1.129   8.557 -0.7688 -0.2347  0.0060
 2157TIP3    H130666   7.260   1.201   8.597 -0.3133  1.0188 -1.5797
 2157TIP3    H230667   7.270   1.118   8.471  1.4630  0.5973 -1.1795
 2158TIP3   OH230668   3.158   6.032   9.239  0.3271 -0.6786  0.2614
 2158TIP3    H130669   3.096   6.091   9.281 -0.2030 -0.5120 -0.7224
 2158TIP3    H230670   3.197   6.085   9.169  1.4381 -0.8406  0.7293
 2159TIP3   OH230671   6.752   3.171   7.496 -0.3453 -0.2594 -0.0554
 2159TIP3    H130672   6.756   3.266   7.511  0.0966 -0.0398 -1.4371
 2159TIP3    H230673   6.668   3.144   7.534 -1.6337  1.1092 -1.7651
 2160TIP3   OH230674   2.973   5.814   8.055 -0.3137 -0.5631 -0.2868
 2160TIP3    H130675   2.947   5.819   7.963  1.2591  0.8330 -0.6888
 2160TIP3    H230676   3.026   5.735   8.060 -0.9959 -1.0418 -0.3998
 2161TIP3   OH230677   3.140   0.217   7.445 -0.2117  0.2962  0.3660
 2161TIP3    H130678   3.088   0.294   7.423  0.9576  1.3687  1.2094
 2161TIP3    H230679   3.225   0.232   7.404 -0.3826 -1.2130 -0.6106
 2162TIP3   OH230680   6.045   6.946   7.939 -0.3292 -0.0079  0.4414
 2162TIP3    H130681   6.007   6.860   7.923  0.9755 -0.6299  0.5943
 2162TIP3    H230682   6.120   6.930   7.996  0.8392  1.0187 -0.7283
 2163TIP3   OH230683   1.957   5.813   7.879  0.0750  0.1210  0.2854
 2163TIP3    H130684   1.906   5.882   7.836  0.2124 -0.7022 -1.2457
 2163TIP3    H230685   1.903   5.787   7.954 -0.9952  0.3832 -0.3709
 2164TIP3   OH230686   6.725   3.142   7.859 -0.5127 -0.7941 -0.0384
 2164TIP3    H130687   6.688   3.074   7.915 -1.8393  0.2955  0.4522
 2164TIP3    H230688   6.726   3.220   7.914 -1.2199  0.1498 -1.3192
 2165TIP3   OH230689   4.658   0.815   8.263 -0.1342 -0.7897  0.3060
 2165TIP3    H130690   4.625   0.791   8.176 -1.3753 -1.3958  0.9166
 2165TIP3    H230691   4.695   0.734   8.298  0.1802 -0.5975  0.4166
 2166TIP3   OH230692   0.157   2.540   9.833 -0.2291 -0.6323  0.0002
 2166TIP3    H130693   0.242   2.555   9.875 -0.8064  0.6995  0.7633
 2166TIP3    H230694   0.119   2.628   9.824 -1.8739 -1.2718  0.4291
 2167TIP3   OH230695   3.607   5.563   9.025 -0.1929 -0.0954 -0.7037
 2167TIP3    H130696   3.582   5.559   9.117  0.1329 -0.8138 -0.6380
 2167TIP3    H230697   3.554   5.495   8.983 -0.1626  0.0649 -1.0044
 2168TIP3   OH230698   3.432   4.496   7.412  0.0864 -0.0428 -0.0179
 2168TIP3    H130699   3.472   4.469   7.329 -0.5128  0.3472 -0.4474
 2168TIP3    H230700   3.395   4.583   7.394 -1.0441 -0.4332  0.3172
 2169TIP3   OH230701   6.903   7.563   8.494 -0.5872  0.4450  0.0774
 2169TIP3    H130702   6.977   7.548   8.435  0.2093  1.4345  0.7744
 2169TIP3    H230703   6.918   7.504   8.568 -2.1085 -1.5192 -1.0848
 2170TIP3   OH230704   6.268   7.202   8.274  0.3528  0.5814 -0.1914
 2170TIP3    H130705   6.315   7.175   8.354  1.4123  1.1865 -0.5802
 2170TIP3    H230706   6.319   7.276   8.241  0.6265 -0.3890 -2.0770
 2171TIP3   OH230707   2.218   0.432   7.913 -0.7307 -0.0382  0.3917
 2171TIP3    H130708   2.229   0.400   8.003 -0.0654  1.9677  1.0820
 2171TIP3    H230709   2.234   0.527   7.920  0.8935 -0.0561 -2.1024
 2172TIP3   OH230710   7.372   0.465   8.578 -1.0596  0.0793 -0.3006
 2172TIP3    H130711   7.439   0.412   8.535  0.0481  1.0444  0.1699
 2172TIP3    H230712   7.387   0.452   8.672 -0.9141  1.0199 -0.1822
 2173TIP3   OH230713   5.146   5.356   8.168 -0.2360  0.1083 -0.3777
 2173TIP3    H130714   5.087   5.379   8.096  0.6210  0.8082 -0.8870
 2173TIP3    H230715   5.109   5.399   8.245 -2.2705 -2.2452  0.0920
 2174TIP3   OH230716   5.828   0.673   9.368 -0.3800 -0.1427  0.1792
 2174TIP3    H130717   5.836   0.759   9.327  1.9034  0.9534  2.5616
 2174TIP3    H230718   5.912   0.631   9.351 -0.1739 -0.4822  1.8505
 2175TIP3   OH230719   5.046   7.561   8.647  0.2576 -0.4011 -0.4233
 2175TIP3    H130720   5.063   7.470   8.671 -0.4456 -1.1768 -2.6032
 2175TIP3    H230721   5.099   7.613   8.707 -0.9178 -2.1395  2.2734
 2176TIP3   OH230722   3.504   2.154   7.947  0.2131 -0.1955 -0.1871
 2176TIP3    H130723   3.459   2.173   8.029  2.4643 -0.9117  1.2815
 2176TIP3    H230724   3.491   2.061   7.933 -0.7836  0.0534 -1.0934
 2177TIP3   OH230725   1.335   4.263   6.488  0.3692 -0.1354  0.0938
 2177TIP3    H130726   1.397   4.242   6.557  0.3063  1.2192  0.5719
 2177TIP3    H230727   1.387   4.261   6.408  0.9829  0.7292  0.4625
 2178TIP3   OH230728   6.572   7.237   7.529 -0.6944 -0.3605 -0.0353
 2178TIP3    H130729   6.505   7.237   7.596  1.5669 -2.5871  2.4643
 2178TIP3    H230730   6.540   7.177   7.462 -2.0484  0.2132  0.0691
 2179TIP3   OH230731   2.697   6.961   9.618  0.1155 -0.2160 -0.3150
 2179TIP3    H130732   2.774   7.016   9.630  1.2716 -1.7296 -0.5315
 2179TIP3    H230733   2.727   6.873   9.641 -1.1684 -1.0637 -1.7556
 2180TIP3   OH230734   5.513   0.617   7.099 -0.4033 -0.2107 -0.3734
 2180TIP3    H130735   5.421   0.638   7.110  0.0357  1.3365  0.5850
 2180TIP3    H230736   5.524   0.607   7.004 -1.4187  0.2737 -0.5520
 2181TIP3   OH230737   4.136   1.770   7.126 -0.0707 -0.1241 -0.1264
 2181TIP3    H130738   4.079   1.832   7.080  0.0550 -0.9327 -1.4464
 2181TIP3    H230739   4.088   1.747   7.205  0.6028  2.8956  1.3193
 2182TIP3   OH230740   4.385   1.963   7.640 -0.4271  0.0013 -0.0590
 2182TIP3    H130741   4.467   1.917   7.623 -1.2098 -1.3361 -0.3559
 2182TIP3    H230742   4.336   1.957   7.558 -1.3778 -0.4511  0.5178
 2183TIP3   OH230743   5.227   5.083   7.301  0.1689  0.2466  0.5506
 2183TIP3    H130744   5.244   5.158   7.245  2.8684 -0.8397 -0.2570
 2183TIP3    H230745   5.223   5.119   7.390  3.1896  1.2561  0.3893
 2184TIP3   OH230746   5.300   4.460   7.650  0.2124 -0.2240 -0.5866
 2184TIP3    H130747   5.391   4.443   7.626  0.1026 -0.4448 -0.8603
 2184TIP3    H230748   5.291   4.555   7.642  0.9003  0.0163  1.2056
 2185TIP3   OH230749   3.419   1.410   9.015  0.1404 -0.3822  0.5439
 2185TIP3    H130750   3.416   1.378   9.105 -2.0236 -0.9066  0.3352
 2185TIP3    H230751   3.498   1.371   8.978 -0.7958 -3.0758  1.2038
 2186TIP3   OH230752   2.113   0.410   8.250 -0.1010 -0.8073 -0.4835
 2186TIP3    H130753   2.183   0.345   8.241  0.3666 -0.6180  1.4243
 2186TIP3    H230754   2.042   0.362   8.293  0.3950 -0.0132  1.3171
 2187TIP3   OH230755   0.352   3.592   9.058 -0.3466  0.5667  0.0602
 2187TIP3    H130756   0.436   3.550   9.041  0.1715  1.5086  0.2377
 2187TIP3    H230757   0.352   3.669   9.001 -1.0548  0.6260  0.1277
 2188TIP3   OH230758   1.416   2.026   7.878 -0.6107  0.6484 -0.1708
 2188TIP3    H130759   1.481   1.958   7.890 -3.1126 -1.8229  0.4349
 2188TIP3    H230760   1.382   2.013   7.790 -2.3568 -0.1597  0.5697
 2189TIP3   OH230761   1.287   0.856   8.928 -0.3950 -0.1806 -0.2514
 2189TIP3    H130762   1.201   0.839   8.966  0.0398 -0.2833  0.7227
 2189TIP3    H230763   1.304   0.782   8.870  0.2981 -1.7401  1.8359
 2190TIP3   OH230764   7.067   5.021   9.309 -0.1740  0.1244 -0.2528
 2190TIP3    H130765   7.103   4.976   9.233  1.7517 -1.5972  1.5339
 2190TIP3    H230766   7.143   5.046   9.361 -1.3890  1.8705  0.7945
 2191TIP3   OH230767   6.468   2.348   9.423  0.3028  0.1242  0.3021
 2191TIP3    H130768   6.528   2.423   9.415  0.1861  0.3886  1.6644
 2191TIP3    H230769   6.503   2.298   9.497 -0.6527 -0.1938  0.5415
 2192TIP3   OH230770   1.896   0.657   8.775 -0.0377  0.0056  0.4964
 2192TIP3    H130771   1.874   0.732   8.720  2.9955  1.4886  1.0716
 2192TIP3    H230772   1.965   0.611   8.726 -0.8964 -1.6542  0.7791
 2193TIP3   OH230773   4.329   5.898   8.216  0.3717  0.3983 -0.9154
 2193TIP3    H130774   4.302   5.963   8.152 -0.5332  0.3783 -0.5648
 2193TIP3    H230775   4.415   5.928   8.245 -0.7119  2.3802  0.4615
 2194TIP3   OH230776   5.174   6.101   7.827  0.2848 -0.3320  0.1483
 2194TIP3    H130777   5.224   6.025   7.796  1.5565  0.7948 -0.7148
 2194TIP3    H230778   5.114   6.122   7.755  0.3320 -0.1869  0.1500
 2195TIP3   OH230779   4.384   4.337   8.070  0.5660  0.0021  0.1757
 2195TIP3    H130780   4.323   4.277   8.027  0.5653  0.1861 -0.0822
 2195TIP3    H230781   4.372   4.320   8.164 -0.5613  0.6774  0.1832
 2196TIP3   OH230782   0.808   1.789   7.161  0.3148 -0.1037  0.0226
 2196TIP3    H130783   0.811   1.735   7.082  2.0580 -1.0743  0.7082
 2196TIP3    H230784   0.788   1.727   7.231 -1.4293  0.7806  0.3659
 2197TIP3   OH230785   6.047   2.650   8.479 -0.0738  0.0617 -0.0017
 2197TIP3    H130786   6.090   2.643   8.564 -0.9269 -0.5541  0.3987
 2197TIP3    H230787   5.963   2.694   8.497 -0.1182  0.2313 -0.5783
 2198TIP3   OH230788   0.362   1.488   7.869 -0.2811 -0.3065 -0.2584
 2198TIP3    H130789   0.417   1.543   7.813  0.0930 -0.9949 -0.5839
 2198TIP3    H230790   0.285   1.542   7.888 -0.0038  0.2600 -0.7120
 2199TIP3   OH230791   0.938   5.995   7.129 -0.6963  0.1945  0.3941
 2199TIP3    H130792   0.988   5.914   7.120 -1.6364 -0.3677  0.1388
 2199TIP3    H230793   1.004   6.064   7.120 -0.2971 -0.4563 -2.5100
 2200TIP3   OH230794   7.511   6.464   6.962 -0.1521  0.6006  0.6177
 2200TIP3    H130795   7.468   6.401   6.905  3.4435 -0.3130 -1.3716
 2200TIP3    H230796   7.508   6.424   7.049 -0.0277 -1.1774 -0.1618
 2201TIP3   OH230797   2.071   3.677   7.663  0.2831 -0.4538 -0.1321
 2201TIP3    H130798   2.052   3.599   7.715 -1.5472  0.0654  0.0435
 2201TIP3    H230799   2.150   3.654   7.613  0.4314 -1.9911  0.7507
 2202TIP3   OH230800   5.245   4.105   8.022 -0.2125 -0.2167 -0.4104
 2202TIP3    H130801   5.231   4.190   7.980  0.9420 -0.0701 -0.5257
 2202TIP3    H230802   5.324   4.116   8.075  0.5843 -1.5147 -1.2657
 2203TIP3   OH230803   2.513   4.217   9.172 -0.2039  0.1124  0.7439
 2203TIP3    H130804   2.542   4.308   9.165  1.2099 -0.2696  1.2340
 2203TIP3    H230805   2.422   4.223   9.200 -0.1894  1.3741  0.6077
 2204TIP3   OH230806   3.607   1.310   8.787 -0.0166 -0.5294  0.2663
 2204TIP3    H130807   3.588   1.281   8.697 -1.0684 -1.3308  0.7284
 2204TIP3    H230808   3.617   1.405   8.780  0.2956 -0.6210 -0.7590
 2205TIP3   OH230809   6.280   4.825   9.144  0.4618  0.0249 -0.2567
 2205TIP3    H130810   6.371   4.826   9.116  1.0215  1.7460  1.3483
 2205TIP3    H230811   6.275   4.894   9.211 -1.6606 -1.0445  0.8077
 2206TIP3   OH230812   7.394   0.056   7.695 -0.2090 -0.1105  0.7885
 2206TIP3    H130813   7.425   0.015   7.777  0.0526 -0.7129  0.3964
 2206TIP3    H230814   7.469   0.108   7.665  0.1276 -0.8610  0.3029
 2207TIP3   OH230815   2.784   6.289   6.955 -0.4111  0.2168 -0.2493
 2207TIP3    H130816   2.732   6.355   6.911  0.1391  0.9217  0.1390
 2207TIP3    H230817   2.724   6.249   7.018 -1.6752 -1.8960 -2.6088
 2208TIP3   OH230818   3.122   5.692   8.895 -0.0549 -0.3537  0.1333
 2208TIP3    H130819   3.056   5.651   8.839  1.0475 -2.0380 -0.0008
 2208TIP3    H230820   3.205   5.661   8.860  0.9331  2.6004 -0.4063
 2209TIP3   OH230821   2.057   4.248   9.862  0.3845  0.1666 -0.2147
 2209TIP3    H130822   2.081   4.284   9.777  1.9892 -2.0057 -0.7953
 2209TIP3    H230823   2.118   4.288   9.924  0.4527  0.3731 -0.4153
 2210TIP3   OH230824   2.126   7.015  10.153  0.0007 -0.1219 -0.2700
 2210TIP3    H130825   2.130   7.083  10.220  0.5456 -0.7087  0.3016
 2210TIP3    H230826   2.064   7.049  10.088  2.2580  2.1661 -1.4052
 2211TIP3   OH230827   5.409   6.654   7.366  0.9732 -0.0219  0.5032
 2211TIP3    H130828   5.370   6.572   7.337  0.4099  0.6055 -0.5824
 2211TIP3    H230829   5.342   6.694   7.421  0.9972 -0.0058  0.5203
 2212TIP3   OH230830   0.784   0.175   9.040  0.0590  0.5629  0.3674
 2212TIP3    H130831   0.803   0.224   9.120  0.9670 -0.1799  0.6190
 2212TIP3    H230832   0.754   0.090   9.071 -0.3069  0.5238 -0.0858
 2213TIP3   OH230833   7.128   1.684   7.017 -0.1084  0.1266  0.4496
 2213TIP3    H130834   7.146   1.683   7.111 -2.3713 -1.3035  0.9569
 2213TIP3    H230835   7.154   1.597   6.987 -1.8145 -0.3918  0.3486
 2214TIP3   OH230836   3.312   1.989   7.019 -0.0182 -0.1612 -0.5739
 2214TIP3    H130837   3.366   2.057   7.059  1.4887 -1.7115  0.1590
 2214TIP3    H230838   3.369   1.947   6.955  0.2720 -2.7998  1.2461
 2215TIP3   OH230839   6.577   1.067   7.583  0.8639  0.4192 -0.5822
 2215TIP3    H130840   6.492   1.110   7.587  0.8929  0.3878  1.1707
 2215TIP3    H230841   6.568   1.002   7.513 -0.6291  0.2465 -0.2602
 2216TIP3   OH230842   6.486   7.496   8.534  0.3917  0.7229  0.3768
 2216TIP3    H130843   6.414   7.515   8.473  1.0824  1.8900 -0.1119
 2216TIP3    H230844   6.546   7.569   8.523  0.7937  0.6999  2.0858
 2217TIP3   OH230845   5.347   0.372   9.366 -0.3567  0.1464 -0.6520
 2217TIP3    H130846   5.372   0.459   9.398  2.5534 -0.4669 -1.0073
 2217TIP3    H230847   5.258   0.360   9.399 -0.9388  3.2710 -0.6924
 2218TIP3   OH230848   5.160   6.173   8.753 -0.3811  0.3185 -0.2711
 2218TIP3    H130849   5.173   6.255   8.801  0.3002  0.9482 -1.4864
 2218TIP3    H230850   5.069   6.176   8.724 -0.2261  0.8781 -0.7173
 2219TIP3   OH230851   3.044   4.717   8.537  0.5725  0.6732  0.9877
 2219TIP3    H130852   3.009   4.806   8.533  1.7667  1.1636  1.0913
 2219TIP3    H230853   3.075   4.700   8.448 -2.0181 -0.6693  0.2595
 2220TIP3   OH230854   6.497   3.493   8.625 -0.3981 -0.2483  0.4088
 2220TIP3    H130855   6.564   3.466   8.688  0.3902 -1.8025 -1.0443
 2220TIP3    H230856   6.448   3.561   8.671  2.0385  0.8321  1.6126
 2221TIP3   OH230857   0.962   7.069   8.565  0.2116 -1.0536 -0.1469
 2221TIP3    H130858   1.051   7.042   8.543  0.0683  0.1282 -2.5165
 2221TIP3    H230859   0.939   7.132   8.497 -2.3489 -1.0969  0.5841
 2222TIP3   OH230860   2.159   5.382   9.378 -0.0367 -0.2316  0.2541
 2222TIP3    H130861   2.177   5.316   9.445 -2.2559 -0.7213  0.4622
 2222TIP3    H230862   2.149   5.464   9.427  1.8005  0.1236  0.0946
 2223TIP3   OH230863   4.382   1.022   6.653 -0.5831  0.1772  0.1712
 2223TIP3    H130864   4.302   0.990   6.693 -1.0136 -0.3473 -1.0418
 2223TIP3    H230865   4.442   0.948   6.656 -0.6267  0.1264 -0.1668
 2224TIP3   OH230866   4.740   2.560   9.201  0.1335 -0.0820 -0.2108
 2224TIP3    H130867   4.745   2.467   9.180 -0.5545 -0.1043 -0.2978
 2224TIP3    H230868   4.811   2.575   9.263  0.0340 -0.7416  0.0720
 2225TIP3   OH230869   1.152   1.685   8.046  0.1330 -0.1114 -0.7920
 2225TIP3    H130870   1.156   1.657   8.137 -0.2564 -1.0144 -1.0392
 2225TIP3    H230871   1.071   1.647   8.012 -0.3726  1.2381 -1.1970
 2226TIP3   OH230872   0.445   7.279   7.703  0.0643 -0.2860 -0.0326
 2226TIP3    H130873   0.361   7.239   7.682 -1.2530  1.9066  0.7345
 2226TIP3    H230874   0.442   7.293   7.798  0.9722  0.5609 -0.1148
 2227TIP3   OH230875   2.557   6.682   6.763 -0.1503  0.0939 -0.1875
 2227TIP3    H130876   2.590   6.771   6.774  1.0190 -0.4579  1.1473
 2227TIP3    H230877   2.462   6.692   6.759 -0.0105  1.4339 -0.5793
 2228TIP3   OH230878   7.064   3.092   8.409  0.4351  0.1135  0.4767
 2228TIP3    H130879   6.982   3.109   8.363  0.4109 -0.6133  0.2329
 2228TIP3    H230880   7.098   3.179   8.431  0.2226  0.4699 -0.5296
 2229TIP3   OH230881   0.891   6.916   8.164 -0.2772  0.6985 -0.3060
 2229TIP3    H130882   0.817   6.859   8.179 -0.1116  0.2554 -1.0920
 2229TIP3    H230883   0.944   6.871   8.098  0.9884  0.7386  0.6379
 2230TIP3   OH230884   4.653   3.964   8.828 -0.8738  0.6196  0.4760
 2230TIP3    H130885   4.654   3.875   8.794 -0.4343  0.8588 -0.1578
 2230TIP3    H230886   4.682   3.956   8.919  1.6097  0.3790 -0.2808
 2231TIP3   OH230887   5.648   6.133   8.377  1.0489  0.0856  0.7832
 2231TIP3    H130888   5.732   6.091   8.395  2.1133  0.8562 -1.9876
 2231TIP3    H230889   5.640   6.132   8.282 -0.7439  2.5716  0.8094
 2232TIP3   OH230890   0.206   4.858   7.491 -0.2838  0.3579  0.0703
 2232TIP3    H130891   0.115   4.844   7.467 -0.4482 -2.9063  2.0178
 2232TIP3    H230892   0.205   4.867   7.586  1.3678  1.3261  0.0444
 2233TIP3   OH230893   3.198   1.394   7.669 -0.2015  0.2543 -0.1000
 2233TIP3    H130894   3.150   1.396   7.586 -0.8887  1.8168  0.3055
 2233TIP3    H230895   3.242   1.309   7.668 -0.5356  0.0499 -1.8632
 2234TIP3   OH230896   4.650   1.894   9.390 -0.3713 -0.1353 -0.5092
 2234TIP3    H130897   4.591   1.855   9.455 -0.1644  0.3985  0.0063
 2234TIP3    H230898   4.731   1.911   9.438  0.5621 -1.7120 -1.4215
 2235TIP3   OH230899   0.224   1.854   8.877  0.1917 -0.2779 -0.1839
 2235TIP3    H130900   0.227   1.926   8.815 -0.1827 -0.8650 -0.8896
 2235TIP3    H230901   0.136   1.856   8.913  0.1798 -0.3820 -0.2059
 2236TIP3   OH230902   1.339   6.319   7.483  0.3502  0.0315 -0.4313
 2236TIP3    H130903   1.280   6.379   7.529 -0.9904  0.2469 -2.3283
 2236TIP3    H230904   1.303   6.313   7.394  1.6589 -1.9710 -0.8874
 2237TIP3   OH230905   0.883   5.252   7.651  0.0752 -0.0850 -0.0583
 2237TIP3    H130906   0.964   5.226   7.608  0.8093 -1.4233  1.9497
 2237TIP3    H230907   0.906   5.331   7.700 -0.1626  0.2070 -0.4155
 2238TIP3   OH230908   2.794   0.385   9.641 -0.6034  0.0501 -0.9065
 2238TIP3    H130909   2.888   0.364   9.638 -0.3842  0.4687  1.0881
 2238TIP3    H230910   2.785   0.462   9.585 -0.3460 -1.6912 -3.4885
 2239TIP3   OH230911   5.575   0.379   7.822  0.7096  0.6624  0.3502
 2239TIP3    H130912   5.661   0.354   7.853  0.6095 -0.6075 -0.3154
 2239TIP3    H230913   5.515   0.352   7.892  0.5713 -1.4044 -0.4708
 2240TIP3   OH230914   7.000   1.627   7.526 -0.2746  0.2765 -0.1463
 2240TIP3    H130915   6.964   1.710   7.560 -2.0516  0.3120 -1.9332
 2240TIP3    H230916   6.961   1.560   7.581 -0.0268  0.5332  0.3508
 2241TIP3   OH230917   6.680   6.602   9.091 -0.6470  1.0383 -0.1928
 2241TIP3    H130918   6.727   6.536   9.141 -0.8755 -0.4379 -1.8186
 2241TIP3    H230919   6.610   6.554   9.047 -1.6867  2.6213 -0.3673
 2242TIP3   OH230920   3.962   6.023   7.062 -0.2742 -0.0758  0.0956
 2242TIP3    H130921   3.901   6.004   6.991 -1.2869  1.9257  0.3435
 2242TIP3    H230922   4.028   6.079   7.022  0.0656 -0.2698  0.3777
 2243TIP3   OH230923   2.713   2.515   7.762  0.5699  0.7474  0.0617
 2243TIP3    H130924   2.710   2.601   7.722  0.2212 -0.0055 -1.5969
 2243TIP3    H230925   2.746   2.531   7.851 -0.2018  2.6535  0.0433
 2244TIP3   OH230926   6.048   1.118   8.660 -0.0737  0.1619  0.4282
 2244TIP3    H130927   5.994   1.197   8.653  2.4015  1.8208 -1.2368
 2244TIP3    H230928   6.003   1.054   8.605  0.0091  1.7643 -1.6381
 2245TIP3   OH230929   1.447   0.706   7.259  0.3747  0.4263 -0.1959
 2245TIP3    H130930   1.521   0.766   7.252  0.3772  0.2863 -1.9332
 2245TIP3    H230931   1.487   0.619   7.256  0.1865  0.3504 -0.5737
 2246TIP3   OH230932   2.129   2.403   7.586 -0.2650  0.3394 -0.1680
 2246TIP3    H130933   2.179   2.428   7.663  0.1199 -0.2524 -0.2123
 2246TIP3    H230934   2.140   2.308   7.580 -3.1336 -0.1773  1.0486
 2247TIP3   OH230935   0.700   6.648   9.580  0.1040  0.1039  0.3264
 2247TIP3    H130936   0.747   6.730   9.562  0.4610  0.1261  1.2769
 2247TIP3    H230937   0.609   6.674   9.590  0.2080  0.3919  0.5745
 2248TIP3   OH230938   7.491   4.686   8.964  0.2083  0.3212  0.3951
 2248TIP3    H130939   7.467   4.719   8.877 -0.6075 -2.0453 -0.3444
 2248TIP3    H230940   7.580   4.717   8.978  0.9691 -0.5808 -2.0234
 2249TIP3   OH230941   2.559   0.005   8.905  0.3634  0.0884 -0.5919
 2249TIP3    H130942   2.554  -0.090   8.916 -0.1197  0.1835  0.0893
 2249TIP3    H230943   2.633   0.031   8.960 -1.1376  0.3926  1.3914
 2250TIP3   OH230944   3.979   0.887   8.402  0.4286 -0.0451  0.2774
 2250TIP3    H130945   3.997   0.959   8.463 -0.8646  1.3331 -0.9098
 2250TIP3    H230946   3.952   0.814   8.459 -3.1348  1.8931  1.3574
 2251TIP3   OH230947   2.272   0.383   7.441  0.5356  0.1262  0.2879
 2251TIP3    H130948   2.340   0.428   7.390  2.1513 -1.8797  0.5098
 2251TIP3    H230949   2.301   0.392   7.532  0.4946 -0.7124  0.3876
 2252TIP3   OH230950   1.446   0.481   8.182  0.0924  0.6789 -0.0993
 2252TIP3    H130951   1.401   0.558   8.214  1.0217  1.0988  0.2496
 2252TIP3    H230952   1.448   0.421   8.257 -1.9772 -0.3645 -0.7938
 2253TIP3   OH230953   4.190   6.779   7.080  0.1374 -0.3598  0.2492
 2253TIP3    H130954   4.262   6.728   7.116 -0.3522 -1.6902 -0.5589
 2253TIP3    H230955   4.158   6.726   7.007 -0.8347  0.8102 -0.2042
 2254TIP3   OH230956   0.296   4.261   7.398  0.3204  0.2322 -0.1684
 2254TIP3    H130957   0.323   4.348   7.370 -0.1314  0.3794 -0.1435
 2254TIP3    H230958   0.275   4.271   7.491  1.1448 -0.1031  0.0634
 2255TIP3   OH230959   0.065   2.030   7.167  0.4939 -0.6431  0.1283
 2255TIP3    H130960  -0.006   2.018   7.103  0.5071 -1.2656  0.2240
 2255TIP3    H230961   0.144   2.002   7.120  0.9131  1.3425 -0.4488
 2256TIP3   OH230962   4.978   5.469   7.972 -0.0009 -0.1964 -0.5785
 2256TIP3    H130963   4.948   5.513   7.892 -2.8871  0.3877  0.7008
 2256TIP3    H230964   4.934   5.385   7.971 -0.3713 -0.0365  0.5446
 2257TIP3   OH230965   0.185   2.665   9.227 -0.0257  0.4507  0.3534
 2257TIP3    H130966   0.104   2.690   9.273 -0.5983 -0.6083 -0.0443
 2257TIP3    H230967   0.232   2.610   9.290 -0.4817 -0.4317 -0.0762
 2258TIP3   OH230968   0.024   0.238   7.976 -0.4865  0.5177 -0.1184
 2258TIP3    H130969  -0.020   0.310   8.022  0.1726  0.2634  0.9605
 2258TIP3    H230970   0.116   0.246   8.001 -0.4218 -0.7811  0.1485
 2259TIP3   OH230971   6.155   3.826   9.113 -0.6855 -0.0079 -0.0048
 2259TIP3    H130972   6.090   3.873   9.165 -0.6333 -0.5912  0.5958
 2259TIP3    H230973   6.103   3.763   9.062 -0.8778  1.4111 -1.6444
 2260TIP3   OH230974   4.535   4.138   7.860 -0.3307 -0.0058  0.3209
 2260TIP3    H130975   4.540   4.222   7.814  0.1927 -0.8658 -1.2727
 2260TIP3    H230976   4.444   4.131   7.888 -0.1998  1.4308  1.1633
 2261TIP3   OH230977   1.959   3.048   8.683 -0.7435  0.4315 -0.0192
 2261TIP3    H130978   1.981   3.083   8.597 -1.1918  0.4854 -0.1131
 2261TIP3    H230979   2.027   2.983   8.701  0.4024  1.7123  0.3868
 2262TIP3   OH230980   1.151   5.416   8.504  0.0996 -0.5435 -0.8089
 2262TIP3    H130981   1.061   5.390   8.485  0.0096 -0.7376 -0.1495
 2262TIP3    H230982   1.175   5.476   8.433 -0.7372 -0.0662 -0.6896
 2263TIP3   OH230983   1.118   0.391   8.889  0.1192  0.0766 -0.2162
 2263TIP3    H130984   1.180   0.326   8.923  0.4295  0.6691  0.3823
 2263TIP3    H230985   1.079   0.430   8.967 -1.9755 -1.1565 -0.5725
 2264TIP3   OH230986   3.430   3.533   8.864 -0.0369 -0.1105  0.1413
 2264TIP3    H130987   3.495   3.519   8.933  2.1611  0.7119 -1.6075
 2264TIP3    H230988   3.358   3.475   8.886  0.5574  0.1100  3.0806
 2265TIP3   OH230989   6.817   0.426   9.096 -0.2182  0.5916  0.0546
 2265TIP3    H130990   6.743   0.485   9.115  0.0771  1.2084 -0.6319
 2265TIP3    H230991   6.777   0.353   9.049 -0.1544  2.0210 -2.4287
 2266TIP3   OH230992   5.970   1.555   8.347  0.2815 -0.1353 -0.2864
 2266TIP3    H130993   5.920   1.584   8.271  0.8168 -0.3082 -0.7203
 2266TIP3    H230994   5.951   1.619   8.415 -0.9794 -0.5257 -0.2517
 2267TIP3   OH230995   3.313   0.899   8.540 -0.5058 -0.1180  0.1511
 2267TIP3    H130996   3.313   0.804   8.540 -2.0363 -0.1344  0.9719
 2267TIP3    H230997   3.231   0.924   8.498  0.1094  0.8632 -0.5294
 2268TIP3   OH230998   7.289   4.988   9.112  0.1068  0.1885  0.4989
 2268TIP3    H130999   7.331   4.928   9.050 -0.5516  0.1701  0.0618
 2268TIP3    H231000   7.295   5.074   9.069  0.4994  0.3407  0.8484
 2269TIP3   OH231001   6.646   6.683   8.200 -0.2276  0.2487 -0.5090
 2269TIP3    H131002   6.619   6.623   8.270 -0.1055 -2.6418 -2.7783
 2269TIP3    H231003   6.736   6.658   8.180 -0.4451  0.6499 -2.0603
 2270TIP3   OH231004   0.611   6.666   7.836  0.2698 -0.4319  0.0838
 2270TIP3    H131005   0.576   6.584   7.801 -1.2534  0.3308 -0.2910
 2270TIP3    H231006   0.573   6.734   7.780  1.4942  0.5334  0.3902
 2271TIP3   OH231007   3.363   4.701   8.921 -0.1438  0.2496 -0.2667
 2271TIP3    H131008   3.300   4.685   8.992  0.1617  2.3220  0.5518
 2271TIP3    H231009   3.380   4.615   8.884  0.2332 -1.0311  2.6374
 2272TIP3   OH231010   7.230   3.561   9.179 -0.3181 -0.3845 -0.0833
 2272TIP3    H131011   7.148   3.609   9.191 -0.0515  0.1192 -0.2496
 2272TIP3    H231012   7.292   3.627   9.146  0.5348 -0.4181  1.3608
 2273TIP3   OH231013   6.642   0.669   8.143  0.3478  0.0055  0.0439
 2273TIP3    H131014   6.716   0.648   8.200 -0.8247 -0.0456  1.5942
 2273TIP3    H231015   6.565   0.654   8.197 -0.7729  1.0766 -1.1918
 2274TIP3   OH231016   3.316   2.616   7.791 -0.1706 -0.4080  0.0278
 2274TIP3    H131017   3.292   2.531   7.827  0.3468 -0.5019  0.1553
 2274TIP3    H231018   3.370   2.656   7.859  1.1617 -0.7542 -0.8039
 2275TIP3   OH231019   6.046   6.867   9.396 -0.3732  0.2925  0.1342
 2275TIP3    H131020   6.044   6.886   9.490  3.1163 -2.1582  0.9020
 2275TIP3    H231021   6.024   6.774   9.390 -0.2339  0.3338 -1.4701
 2276TIP3   OH231022   5.263   0.619   7.157 -0.2120  0.2460 -0.0330
 2276TIP3    H131023   5.257   0.529   7.126  0.9730 -0.5043  1.7263
 2276TIP3    H231024   5.183   0.661   7.125 -1.5700 -1.8462  0.4298
 2277TIP3   OH231025   2.374   4.497   7.376 -0.0209  0.0410 -0.2053
 2277TIP3    H131026   2.421   4.424   7.335 -0.2801 -0.4461  0.3390
 2277TIP3    H231027   2.357   4.467   7.466 -0.3969  0.6515 -0.0642
 2278TIP3   OH231028   1.961   5.021   8.417  0.4528  0.1229 -0.4098
 2278TIP3    H131029   2.008   4.949   8.376  0.9180  0.4979 -0.5434
 2278TIP3    H231030   1.910   5.060   8.345  2.4923  1.7864 -1.0556
 2279TIP3   OH231031   2.473   4.631   8.711  0.1236 -0.0785 -0.0247
 2279TIP3    H131032   2.440   4.653   8.798 -0.4262  0.6696 -0.4100
 2279TIP3    H231033   2.425   4.552   8.686 -1.7576  1.2323 -0.7545
 2280TIP3   OH231034   4.574   3.212   7.319  0.5145  0.4025  0.5326
 2280TIP3    H131035   4.657   3.211   7.367  0.4995  0.6534  0.5653
 2280TIP3    H231036   4.586   3.281   7.254  0.3850  0.3378  0.4417
 2281TIP3   OH231037   4.703   6.876   6.985  0.1651 -0.2118  0.7376
 2281TIP3    H131038   4.783   6.886   6.933  0.7442 -2.7686  1.0062
 2281TIP3    H231039   4.701   6.954   7.040 -0.2060  2.3997 -2.6155
 2282TIP3   OH231040   0.261   0.472   8.542  0.0079 -0.3076  0.0287
 2282TIP3    H131041   0.176   0.428   8.542  0.5913 -1.5176  1.7601
 2282TIP3    H231042   0.323   0.404   8.518  0.5639  0.4796 -0.8402
 2283TIP3   OH231043   0.466   1.264   7.376  0.4539 -0.2699 -0.1824
 2283TIP3    H131044   0.535   1.313   7.332 -0.1271 -0.5766 -1.4815
 2283TIP3    H231045   0.481   1.173   7.350 -0.2165 -0.3849 -0.1906
 2284TIP3   OH231046   1.018   1.946   7.230 -0.5833 -0.5057  0.4847
 2284TIP3    H131047   0.929   1.910   7.229 -0.1624 -1.6385  1.5076
 2284TIP3    H231048   1.044   1.949   7.139 -0.7991 -2.4249  0.3338
 2285TIP3   OH231049   0.463   2.792   7.568 -0.2789  0.0691  0.0252
 2285TIP3    H131050   0.380   2.754   7.598  0.0067 -0.4538  0.1734
 2285TIP3    H231051   0.459   2.883   7.595 -1.1640  0.2618 -0.7121
 2286TIP3   OH231052   6.436   6.508   7.632  0.1045  0.1078  0.0729
 2286TIP3    H131053   6.427   6.421   7.594  1.3942 -0.6698  1.4616
 2286TIP3    H231054   6.349   6.548   7.622 -0.5923 -1.4387 -0.2882
 2287TIP3   OH231055   0.163   2.412   7.082  0.8980  0.2658  0.5456
 2287TIP3    H131056   0.135   2.376   6.998  1.3345 -2.0456  1.3059
 2287TIP3    H231057   0.131   2.502   7.082  1.3668  0.5140 -2.2851
 2288TIP3   OH231058   6.511   7.555   7.650  0.5821  0.0263  0.0496
 2288TIP3    H131059   6.529   7.580   7.560  1.7713 -0.1769  0.2191
 2288TIP3    H231060   6.433   7.500   7.645 -0.4760  1.5078 -0.6333
 2289TIP3   OH231061   0.853   1.451   8.898 -0.2679 -0.2243 -0.0492
 2289TIP3    H131062   0.795   1.379   8.927 -0.6892  0.0264 -0.2639
 2289TIP3    H231063   0.799   1.529   8.905 -0.1975 -0.0806 -0.9771
 2290TIP3   OH231064   3.433   3.292   7.562 -0.8430  0.2826 -0.4787
 2290TIP3    H131065   3.468   3.214   7.520  2.5408  0.7073  1.2154
 2290TIP3    H231066   3.461   3.364   7.507  0.3852  0.5745  0.4758
 2291TIP3   OH231067   5.151   7.161   8.766 -0.7699 -0.4679  0.0709
 2291TIP3    H131068   5.219   7.187   8.705  0.2776 -0.8301  1.0382
 2291TIP3    H231069   5.152   7.228   8.834  0.6145 -1.8812  1.5560
 2292TIP3   OH231070   5.880   7.308   8.049 -0.5607  0.0825 -0.3189
 2292TIP3    H131071   5.914   7.257   8.123 -0.7522 -2.2251 -1.6946
 2292TIP3    H231072   5.913   7.262   7.972  0.4016  2.9444 -1.7284
 2293TIP3   OH231073   0.397   1.283   8.447  0.1465 -0.4586  0.1580
 2293TIP3    H131074   0.343   1.209   8.418 -0.0279 -0.0516 -0.6028
 2293TIP3    H231075   0.400   1.341   8.371  1.2295 -0.2208  0.3628
 2294TIP3   OH231076   2.221   5.639   7.057 -0.0414 -0.2375 -0.1944
 2294TIP3    H131077   2.296   5.645   6.998 -1.8041  0.2000 -2.5425
 2294TIP3    H231078   2.257   5.602   7.138  2.2260 -2.6592 -2.1062
 2295TIP3   OH231079   1.381   1.705   7.720  0.2113 -0.5374 -0.2312
 2295TIP3    H131080   1.471   1.680   7.699  0.5952  1.1401 -0.6870
 2295TIP3    H231081   1.372   1.684   7.813  0.6209 -1.9355 -0.4765
 2296TIP3   OH231082   3.767   5.812   8.801  0.2850 -0.1342 -0.4729
 2296TIP3    H131083   3.846   5.864   8.786 -0.3008  0.8103 -0.3489
 2296TIP3    H231084   3.756   5.761   8.720  1.2733 -0.6383 -0.3082
 2297TIP3   OH231085   3.896   2.381   7.064  0.4312  0.7886 -0.0303
 2297TIP3    H131086   3.823   2.325   7.090  0.1220  1.9294  1.7743
 2297TIP3    H231087   3.878   2.405   6.974  0.0241 -1.1077 -0.5067
 2298TIP3   OH231088   2.563   6.928   9.110  0.1772  0.1915 -0.2731
 2298TIP3    H131089   2.648   6.972   9.110 -0.5274  1.6046  0.7613
 2298TIP3    H231090   2.512   6.974   9.044  1.1398 -2.7486 -3.4024
 2299TIP3   OH231091   1.448   2.384   8.054 -0.1627 -0.2294  0.0675
 2299TIP3    H131092   1.403   2.375   8.138 -0.3587 -0.7107 -0.0844
 2299TIP3    H231093   1.441   2.477   8.033 -1.1810 -0.3109 -0.0018
 2300TIP3   OH231094   3.947   0.199   8.276  0.1335 -0.0778 -0.1808
 2300TIP3    H131095   3.874   0.180   8.335  0.9319 -3.0739  0.0164
 2300TIP3    H231096   3.942   0.129   8.210  2.3466  0.0967 -0.5922
 2301TIP3   OH231097   1.883   6.770   8.801  0.4272  0.0297 -0.2877
 2301TIP3    H131098   1.802   6.816   8.827 -0.4317 -1.5117 -0.1357
 2301TIP3    H231099   1.953   6.823   8.840 -0.5122  1.2195 -0.1372
 2302TIP3   OH231100   3.093   6.927   9.862  0.8152  0.2352 -0.3754
 2302TIP3    H131101   3.057   6.840   9.880  1.0716 -0.5349 -3.0378
 2302TIP3    H231102   3.185   6.910   9.839  0.3439  0.8097 -3.0585
 2303TIP3   OH231103   6.835   0.662   8.480 -0.0269  0.5683 -0.3160
 2303TIP3    H131104   6.908   0.630   8.426 -0.6585  1.1022 -1.5209
 2303TIP3    H231105   6.873   0.732   8.533  0.7268 -0.3122  0.3585
 2304TIP3   OH231106   3.976   0.590   6.927 -0.1854 -0.0401  0.6706
 2304TIP3    H131107   3.943   0.547   7.006 -1.2027  0.3950  0.5083
 2304TIP3    H231108   3.985   0.520   6.863 -1.9729 -0.0525  0.3605
 2305TIP3   OH231109   1.186   3.145   8.405  0.2220  0.2059 -0.0583
 2305TIP3    H131110   1.138   3.087   8.346 -0.8905 -0.1788  1.1888
 2305TIP3    H231111   1.263   3.094   8.432  0.2389  0.0318 -0.4281
 2306TIP3   OH231112   2.764   7.281   7.772 -0.4515  0.3885 -0.3601
 2306TIP3    H131113   2.714   7.203   7.796 -0.9566  0.1005 -2.1382
 2306TIP3    H231114   2.707   7.327   7.710  0.0523  1.9291  0.2725
 2307TIP3   OH231115   1.148   3.784   8.201 -0.0975  0.0045  0.1900
 2307TIP3    H131116   1.190   3.861   8.164  2.1027 -1.8534 -1.4329
 2307TIP3    H231117   1.191   3.771   8.286 -0.1795  0.2975  0.2780
 2308TIP3   OH231118   5.397   3.871   8.926  0.5651  0.5471 -0.7551
 2308TIP3    H131119   5.369   3.848   8.837  0.3170 -0.0111 -0.5323
 2308TIP3    H231120   5.412   3.966   8.921 -0.9981  0.8235 -0.9983
 2309TIP3   OH231121   6.814   0.103   9.278  0.0866 -0.3516  0.3017
 2309TIP3    H131122   6.771   0.069   9.356  0.7234 -1.3294  0.2467
 2309TIP3    H231123   6.760   0.177   9.251 -0.2624 -0.1344  1.5389
 2310TIP3   OH231124   1.689   5.075   9.544  0.1132 -0.1718  0.0014
 2310TIP3    H131125   1.628   5.064   9.617  0.9922 -1.6842  0.5597
 2310TIP3    H231126   1.722   4.987   9.528  1.2571  0.4281 -1.0820
 2311TIP3   OH231127   2.435   0.604   8.172 -0.1102  0.3143 -0.0221
 2311TIP3    H131128   2.378   0.602   8.095 -0.8761  1.9282  0.4478
 2311TIP3    H231129   2.434   0.696   8.200  2.2133  0.2465  0.4172
 2312TIP3   OH231130   0.942   5.937   7.741  0.1189 -0.1363 -0.8058
 2312TIP3    H131131   1.015   5.998   7.746 -0.0436  0.2929 -2.8028
 2312TIP3    H231132   0.936   5.915   7.648 -3.3464  1.1765 -1.0288
 2313TIP3   OH231133   2.318   6.296   6.821  0.2248  0.3381 -0.0923
 2313TIP3    H131134   2.270   6.236   6.764 -0.2842 -0.6517  1.3123
 2313TIP3    H231135   2.255   6.366   6.840 -0.7430 -0.9302  1.7029
 2314TIP3   OH231136   6.338   6.521   8.324 -0.3970  0.5105  0.0099
 2314TIP3    H131137   6.413   6.530   8.382  0.0005 -0.1442 -0.3817
 2314TIP3    H231138   6.275   6.468   8.372  0.2528 -0.6966 -0.4348
 2315TIP3   OH231139   1.208   3.487   8.995  0.0138  0.2732 -0.3925
 2315TIP3    H131140   1.189   3.456   9.083  0.2144  1.9355  0.2720
 2315TIP3    H231141   1.165   3.423   8.937 -1.2244 -0.1382  0.9212
 2316TIP3   OH231142   3.691   3.342   7.704  0.2291 -0.3283  0.3316
 2316TIP3    H131143   3.607   3.326   7.661  0.8143  0.0374 -0.9914
 2316TIP3    H231144   3.685   3.432   7.738 -0.7560 -1.0899  2.3251
 2317TIP3   OH231145   3.885   6.502   8.585  0.6430  0.2197  0.5731
 2317TIP3    H131146   3.911   6.460   8.503  0.3696  1.2157 -0.0528
 2317TIP3    H231147   3.792   6.483   8.593  0.1244  1.9959 -0.5710
 2318TIP3   OH231148   5.289   6.302   7.966 -0.2016 -0.0788 -0.0856
 2318TIP3    H131149   5.272   6.226   7.911 -0.7892 -0.8750  1.1628
 2318TIP3    H231150   5.217   6.303   8.029  0.6137  0.6243  0.8655
 2319TIP3   OH231151   4.212   2.270   8.196  0.2637  0.1002 -0.2913
 2319TIP3    H131152   4.281   2.327   8.231  0.3160 -0.5781  0.7573
 2319TIP3    H231153   4.143   2.273   8.263  0.1823 -0.8962 -0.3204
 2320TIP3   OH231154   7.040   5.099   7.758 -0.2532  0.2210 -0.0810
 2320TIP3    H131155   6.949   5.077   7.738  0.0446  0.4474 -1.8459
 2320TIP3    H231156   7.054   5.066   7.847 -2.2301  0.7439  0.4607
 2321TIP3   OH231157   3.070   5.956   8.763  0.1322 -0.0316  0.2088
 2321TIP3    H131158   3.062   5.872   8.809  0.0083 -0.0375  0.1766
 2321TIP3    H231159   2.988   6.002   8.782 -0.5198 -0.5882 -1.1117
 2322TIP3   OH231160   6.685   0.568   7.784  0.5852  0.7803 -0.2455
 2322TIP3    H131161   6.603   0.562   7.734  0.6360  1.1587 -0.3770
 2322TIP3    H231162   6.752   0.535   7.724  0.8113  2.2482 -0.8377
 2323TIP3   OH231163   7.540   5.675   8.694 -0.7957  0.0105  0.0047
 2323TIP3    H131164   7.602   5.672   8.767 -0.0037 -1.6537 -0.6736
 2323TIP3    H231165   7.455   5.655   8.735 -0.2171 -1.9264  0.4026
 2324TIP3   OH231166   0.621   0.311   7.287 -0.1675 -0.3242  0.0807
 2324TIP3    H131167   0.568   0.231   7.287 -1.2685  0.3657 -1.2291
 2324TIP3    H231168   0.624   0.338   7.378 -2.3858 -0.2154  0.1678
 2325TIP3   OH231169   5.814   1.812   8.512  0.4277  0.1695  0.1569
 2325TIP3    H131170   5.760   1.736   8.491  0.1442  0.5806 -0.6516
 2325TIP3    H231171   5.753   1.886   8.515  0.8433  0.5266 -0.0754
 2326TIP3   OH231172   4.064   1.276   8.342 -0.2111  0.4063  0.1770
 2326TIP3    H131173   4.058   1.194   8.293  1.6894 -0.2439  0.9159
 2326TIP3    H231174   3.974   1.296   8.368 -0.7480 -1.2368 -0.3298
 2327TIP3   OH231175   3.021   4.858   8.219  0.1209 -0.0985 -0.9823
 2327TIP3    H131176   2.982   4.819   8.141  1.4695 -1.1295 -1.1847
 2327TIP3    H231177   3.116   4.851   8.205  0.3988  1.0027  0.1181
 2328TIP3   OH231178   3.478   2.748   8.690  0.1422  0.1255  0.7496
 2328TIP3    H131179   3.495   2.660   8.657 -0.6841  0.6268 -1.1658
 2328TIP3    H231180   3.383   2.750   8.704  0.1484  0.7343  0.7074
 2329TIP3   OH231181   5.388   4.664   7.281  0.5107  0.2617  0.4141
 2329TIP3    H131182   5.420   4.630   7.364  2.0572  0.0251 -0.2447
 2329TIP3    H231183   5.465   4.706   7.241  0.3547 -1.3101 -1.7488
 2330TIP3   OH231184   6.856   0.862   7.742 -0.8000 -0.0940 -0.3126
 2330TIP3    H131185   6.827   0.772   7.726 -0.6758 -0.0300 -0.9173
 2330TIP3    H231186   6.784   0.916   7.709  0.0980  0.0755 -2.0994
 2331TIP3   OH231187   0.577   4.999   7.493 -0.1557 -0.3274  0.2174
 2331TIP3    H131188   0.601   5.037   7.408 -2.6710  0.7328 -0.0935
 2331TIP3    H231189   0.514   4.930   7.472 -4.0444  2.5341  1.2033
 2332TIP3   OH231190   3.174   2.550   8.542  0.0659  0.4470 -0.7791
 2332TIP3    H131191   3.109   2.619   8.558  1.5285  2.0356 -1.4085
 2332TIP3    H231192   3.127   2.484   8.491 -1.7808  0.2219  1.0712
 2333TIP3   OH231193   3.793   4.319   8.523  0.4748  0.2451  0.2781
 2333TIP3    H131194   3.847   4.298   8.599 -0.6774 -3.5216  0.2569
 2333TIP3    H231195   3.706   4.288   8.546  0.0258 -0.7258 -2.4237
 2334TIP3   OH231196   1.572   2.405   8.948 -0.1965  0.1349 -0.4567
 2334TIP3    H131197   1.648   2.377   8.896 -0.5310 -1.5087 -0.1191
 2334TIP3    H231198   1.525   2.324   8.966 -2.4327  1.1916 -1.2326
 2335TIP3   OH231199   5.336   2.663   7.895 -0.1439  0.0269 -0.5742
 2335TIP3    H131200   5.317   2.754   7.872 -0.3493  0.1343 -0.0101
 2335TIP3    H231201   5.346   2.619   7.811  0.5891  0.6983 -0.8500
 2336TIP3   OH231202   1.051   0.515   7.392 -0.0262  0.1273 -0.6278
 2336TIP3    H131203   1.067   0.425   7.364  1.0965 -0.1664  0.8794
 2336TIP3    H231204   1.138   0.554   7.399 -0.2476  0.3361  1.8026
 2337TIP3   OH231205   1.166   0.485   6.443  0.3051 -0.6257 -0.2070
 2337TIP3    H131206   1.107   0.504   6.371  0.2043 -2.9873 -0.8468
 2337TIP3    H231207   1.109   0.475   6.519  0.3333  1.0666  0.0734
 2338TIP3   OH231208   1.275   5.237   9.497 -0.0841  0.1189  0.0932
 2338TIP3    H131209   1.254   5.155   9.542 -0.2691  0.1397  0.0447
 2338TIP3    H231210   1.370   5.244   9.504  0.0241 -0.5141 -0.6128
 2339TIP3   OH231211   6.714   6.969   7.646 -0.1387 -0.1761  0.2269
 2339TIP3    H131212   6.794   6.933   7.684  1.2686  0.5209 -1.9461
 2339TIP3    H231213   6.742   7.013   7.566 -2.7856 -0.5696 -1.0292
 2340TIP3   OH231214   2.441   1.198   8.718  0.1951 -0.3446 -0.0447
 2340TIP3    H131215   2.463   1.257   8.790 -0.8851  1.7889 -1.3393
 2340TIP3    H231216   2.489   1.232   8.643 -1.2326 -0.4514 -1.0616
 2341TIP3   OH231217   2.422   6.981   6.920 -0.1201  0.4252 -0.0650
 2341TIP3    H131218   2.378   6.951   6.841 -0.6214  0.5714  0.1578
 2341TIP3    H231219   2.516   6.977   6.898 -0.1734 -0.9780 -0.1518
 2342TIP3   OH231220   0.428   0.099   7.327  0.3304 -0.4683  0.0795
 2342TIP3    H131221   0.343   0.103   7.284  0.1891 -0.3272  0.3717
 2342TIP3    H231222   0.415   0.039   7.401  0.5926 -0.7723 -0.1165
 2343TIP3   OH231223   7.126   6.447   7.789 -0.2224 -0.7319  0.2825
 2343TIP3    H131224   7.104   6.460   7.882  0.5381 -1.9345  0.6446
 2343TIP3    H231225   7.041   6.452   7.745 -0.4303  1.4806  0.8120
 2344TIP3   OH231226   0.181   0.757   8.479  0.1841  0.4590  0.6100
 2344TIP3    H131227   0.103   0.737   8.531 -0.6058  0.1047 -0.6851
 2344TIP3    H231228   0.224   0.672   8.468  0.6126  0.6106  1.0829
 2345TIP3   OH231229   2.184   1.617   9.694  0.1396  0.6048 -0.5552
 2345TIP3    H131230   2.096   1.580   9.697  0.0817  0.7136 -0.8335
 2345TIP3    H231231   2.172   1.707   9.665  0.1483  1.3422  1.5597
 2346TIP3   OH231232   2.514   3.686   7.634  0.3297 -0.6952  0.2589
 2346TIP3    H131233   2.521   3.655   7.724  0.4562 -0.1573  0.4335
 2346TIP3    H231234   2.515   3.781   7.641 -1.8097 -0.5875 -0.1164
 2347TIP3   OH231235   1.559   6.928   9.845  0.0462  0.2128 -0.2639
 2347TIP3    H131236   1.521   6.977   9.917 -0.0555  1.2399 -0.9914
 2347TIP3    H231237   1.653   6.924   9.864 -0.1533 -0.7611  0.6192
 2348TIP3   OH231238   4.536   1.091   8.162  0.1729  0.2719 -0.2967
 2348TIP3    H131239   4.467   1.066   8.223 -0.2585  0.6722 -0.6156
 2348TIP3    H231240   4.564   1.008   8.122  0.6399 -0.0251  0.6195
 2349TIP3   OH231241   0.986   6.698   8.559  0.3016 -0.2879 -0.2534
 2349TIP3    H131242   1.047   6.748   8.504  0.6962  0.9036  1.1942
 2349TIP3    H231243   0.903   6.745   8.550 -0.1613 -1.2792 -1.3774
 2350TIP3   OH231244   7.516   5.367   8.588 -0.3228  0.3951 -0.4084
 2350TIP3    H131245   7.454   5.309   8.543  0.7794 -0.3233 -1.0627
 2350TIP3    H231246   7.483   5.455   8.572 -0.5175  0.0962 -1.7779
 2351TIP3   OH231247   5.320   4.370   7.935  0.1038 -0.0849 -0.3318
 2351TIP3    H131248   5.294   4.366   7.843  1.7692  0.3847 -0.8485
 2351TIP3    H231249   5.290   4.456   7.964  0.6870  0.2764 -0.7935
 2352TIP3   OH231250   6.365   5.886   8.342  0.2300 -0.1712 -0.2808
 2352TIP3    H131251   6.271   5.870   8.356 -0.1083  1.0792 -0.9852
 2352TIP3    H231252   6.388   5.825   8.271 -0.0957 -0.3352 -0.2515
 2353TIP3   OH231253   2.149   3.717   8.865 -0.0732  0.2375  0.0547
 2353TIP3    H131254   2.179   3.808   8.876  1.2230 -0.2832  1.2753
 2353TIP3    H231255   2.165   3.677   8.951  0.9741 -1.5790 -0.9394
 2354TIP3   OH231256   6.266   0.121   8.295  0.1211  0.1154 -0.0932
 2354TIP3    H131257   6.261   0.060   8.222  0.0147 -0.8061  0.6697
 2354TIP3    H231258   6.203   0.087   8.360 -1.4444  2.1364 -0.4451
 2355TIP3   OH231259   2.567   5.212   8.104 -0.5676  0.1330 -0.5169
 2355TIP3    H131260   2.623   5.142   8.071  1.5652  1.4734  0.0773
 2355TIP3    H231261   2.493   5.166   8.145  1.5839 -1.9259  1.4094
 2356TIP3   OH231262   7.253   4.807   7.297 -0.1220 -0.5422  0.5589
 2356TIP3    H131263   7.192   4.824   7.226 -0.9559  0.8466  1.5472
 2356TIP3    H231264   7.235   4.716   7.323 -1.5383 -0.2842  0.5825
 2357TIP3   OH231265   2.106   2.794   8.734 -0.4123  0.0085  0.4851
 2357TIP3    H131266   2.173   2.736   8.697  0.3547 -0.0011  1.8239
 2357TIP3    H231267   2.025   2.743   8.727 -0.3818  0.1245 -1.3974
 2358TIP3   OH231268   1.910   4.396   8.886  0.2651  0.0066  0.3935
 2358TIP3    H131269   1.927   4.483   8.923 -0.6222  0.4175 -0.1072
 2358TIP3    H231270   1.910   4.411   8.791 -1.8720 -0.0954  0.3174
 2359TIP3   OH231271   1.940   4.564   7.018 -0.4613 -0.4525 -0.2779
 2359TIP3    H131272   1.862   4.592   7.066 -1.0200 -0.4532 -1.1755
 2359TIP3    H231273   1.937   4.611   6.935  0.9673  0.2171  0.0195
 2360TIP3   OH231274   3.768   5.672   9.536 -0.5168 -0.2410  0.3274
 2360TIP3    H131275   3.700   5.673   9.469  0.0224  1.2370 -0.2264
 2360TIP3    H231276   3.838   5.727   9.501  0.3154 -0.4635  1.5591
 2361TIP3   OH231277   6.502   4.125   7.604 -0.3681 -0.4961  0.0705
 2361TIP3    H131278   6.469   4.050   7.555 -0.0377 -0.3640 -0.3605
 2361TIP3    H231279   6.570   4.163   7.548 -1.1362  0.6568 -0.1328
 2362TIP3   OH231280   5.527   6.847   7.187 -0.0833 -0.0021  0.7793
 2362TIP3    H131281   5.505   6.777   7.249 -1.6937  0.1713  0.4625
 2362TIP3    H231282   5.560   6.802   7.110 -0.1879 -0.3549  0.9394
 2363TIP3   OH231283   6.437   0.325   8.301  0.0506  0.4437 -0.0241
 2363TIP3    H131284   6.515   0.311   8.355 -0.4872  1.6145  1.1130
 2363TIP3    H231285   6.393   0.241   8.301  0.7109  0.0877  0.3194
 2364TIP3   OH231286   4.132   0.771   7.920  0.3926 -0.3396 -0.2334
 2364TIP3    H131287   4.171   0.848   7.961 -1.2798  0.1766  0.4695
 2364TIP3    H231288   4.193   0.700   7.940  2.2364  0.8317 -1.3231
 2365TIP3   OH231289   4.552   3.428   8.197  0.4805  0.0767  0.1917
 2365TIP3    H131290   4.587   3.343   8.225  0.4517 -0.6200 -1.7560
 2365TIP3    H231291   4.562   3.428   8.102  0.6924  2.3728  0.1667
 2366TIP3   OH231292   0.908   3.648   7.671  0.1111  0.1988  0.6451
 2366TIP3    H131293   0.889   3.685   7.757 -1.2848  0.9932  0.0341
 2366TIP3    H231294   0.846   3.691   7.612  1.4512  0.1594 -0.8833
 2367TIP3   OH231295   1.920   0.215   9.304  0.2968 -0.1270 -0.1757
 2367TIP3    H131296   1.982   0.196   9.374 -1.2244 -1.4024  0.9136
 2367TIP3    H231297   1.840   0.169   9.330 -0.6861  0.3200 -2.1872
 2368TIP3   OH231298   6.356   1.180   8.875  0.0178 -0.0746 -0.5989
 2368TIP3    H131299   6.351   1.181   8.779 -2.1901 -0.5276 -0.5236
 2368TIP3    H231300   6.296   1.111   8.902  0.3490  0.2767  1.1353
 2369TIP3   OH231301   3.023   2.254   9.584 -0.7465  0.3412  0.0586
 2369TIP3    H131302   3.091   2.254   9.516  0.3974 -2.0286  1.1114
 2369TIP3    H231303   2.965   2.327   9.559  1.3341  1.5166 -1.6983
 2370TIP3   OH231304   1.080   2.168   7.352  0.2202 -0.1092  0.0540
 2370TIP3    H131305   1.049   2.086   7.314  0.4142  0.2116 -0.8240
 2370TIP3    H231306   1.175   2.167   7.336  0.1669  0.4597 -0.3146
 2371TIP3   OH231307   6.085   6.219   8.711 -0.1432  0.0829 -0.6423
 2371TIP3    H131308   6.068   6.274   8.788 -1.0303 -1.4651  0.3198
 2371TIP3    H231309   6.007   6.165   8.703  1.0986 -1.7274 -0.9432
 2372TIP3   OH231310   2.570   0.687   8.995  0.0440 -0.8403  0.6968
 2372TIP3    H131311   2.541   0.710   8.906  0.2964  0.0695  0.8329
 2372TIP3    H231312   2.490   0.686   9.047  0.0370 -0.0486  0.7202
 2373TIP3   OH231313   2.511   6.804   7.253 -0.0412  0.1017 -0.1197
 2373TIP3    H131314   2.554   6.886   7.279  2.1415 -1.4275  1.4607
 2373TIP3    H231315   2.426   6.806   7.296  0.3262  1.1902  0.5909
 2374TIP3   OH231316   6.930   1.019   9.260 -0.3831 -0.6484 -0.7579
 2374TIP3    H131317   6.987   1.076   9.208  0.3405  0.9566  1.6136
 2374TIP3    H231318   6.856   1.000   9.203 -0.4395  2.3484 -1.8495
 2375TIP3   OH231319   7.203   1.192   7.288  0.3573 -0.2074 -0.0957
 2375TIP3    H131320   7.240   1.194   7.200  0.9633 -0.1282  0.1539
 2375TIP3    H231321   7.130   1.254   7.286 -1.0825 -1.8466 -1.1699
 2376TIP3   OH231322   3.253   1.874   8.740  0.0318  0.6359  0.5623
 2376TIP3    H131323   3.221   1.801   8.794  0.6768 -0.7279 -0.8219
 2376TIP3    H231324   3.197   1.872   8.662  1.1676  0.5155 -0.2657
 2377TIP3   OH231325   4.530   6.420   7.711  0.1591 -0.2189 -0.1256
 2377TIP3    H131326   4.601   6.402   7.649  1.4446  1.1748  0.8450
 2377TIP3    H231327   4.494   6.504   7.683 -1.3282 -1.0552 -0.7763
 2378TIP3   OH231328   0.443   0.311   7.884  0.0651 -0.5111  0.3541
 2378TIP3    H131329   0.476   0.293   7.972  0.2959  0.3744  0.4493
 2378TIP3    H231330   0.418   0.403   7.886 -0.4532 -0.6318 -0.3443
 2379TIP3   OH231331   4.496   4.471   7.105  0.6850  0.3055  0.2059
 2379TIP3    H131332   4.509   4.471   7.011  0.4251  0.0404  0.1693
 2379TIP3    H231333   4.412   4.513   7.118  0.3166 -0.4296  0.2585
 2380TIP3   OH231334   5.352   3.240   8.875  0.1118  0.0400  0.4291
 2380TIP3    H131335   5.326   3.208   8.961  0.9740  0.1075  0.7311
 2380TIP3    H231336   5.406   3.316   8.894 -1.5155  1.4259 -0.2605
 2381TIP3   OH231337   0.715   5.688   7.782  0.3107  0.6279 -0.3564
 2381TIP3    H131338   0.648   5.636   7.738 -2.7109  4.4428 -0.8676
 2381TIP3    H231339   0.683   5.698   7.872  1.1280  1.1012 -0.1061
 2382TIP3   OH231340   5.722   1.935   7.947 -0.2856 -0.7648  0.2179
 2382TIP3    H131341   5.729   1.953   8.041  1.7862 -1.6313  0.2663
 2382TIP3    H231342   5.725   1.839   7.941  3.5792 -0.7282 -0.8920
 2383TIP3   OH231343   4.684   6.034   9.788 -0.5110  0.3522  0.3696
 2383TIP3    H131344   4.643   6.111   9.748  0.5696  0.8178  0.1148
 2383TIP3    H231345   4.673   6.047   9.882 -0.1016  0.9486  0.3347
 2384TIP3   OH231346   7.170   3.831   7.934  0.0327 -0.4421  0.0408
 2384TIP3    H131347   7.125   3.889   7.873  1.2475  1.0158  0.4638
 2384TIP3    H231348   7.100   3.780   7.976 -0.9935  0.1503 -0.9127
 2385TIP3   OH231349   0.205   6.871   8.115 -0.3636 -0.2087 -0.0833
 2385TIP3    H131350   0.298   6.891   8.122 -0.5356  0.9380 -0.8291
 2385TIP3    H231351   0.192   6.853   8.022 -1.3973  2.5642 -0.5653
 2386TIP3   OH231352   1.377   0.264   7.196 -0.0321  0.2979 -0.6796
 2386TIP3    H131353   1.442   0.325   7.229 -0.6932  0.6542 -0.0098
 2386TIP3    H231354   1.350   0.301   7.111  0.4471  0.2785 -0.8448
 2387TIP3   OH231355   5.201   0.566   6.879  0.3407  0.1395  0.1296
 2387TIP3    H131356   5.151   0.623   6.937 -1.1513  0.3865 -1.3363
 2387TIP3    H231357   5.223   0.490   6.933 -0.4678  0.6283  1.1851
 2388TIP3   OH231358   7.254   5.881   8.585  0.0597  0.0394  0.3284
 2388TIP3    H131359   7.161   5.869   8.607 -0.4747  0.4366 -1.5385
 2388TIP3    H231360   7.269   5.823   8.511  1.2075  0.2901  0.3414
 2389TIP3   OH231361   2.825   4.565   8.394  0.1803  0.0982 -0.2816
 2389TIP3    H131362   2.920   4.568   8.385  0.0034  1.5249 -2.4853
 2389TIP3    H231363   2.810   4.562   8.489  2.4130  3.0245  0.3138
 2390TIP3   OH231364   2.260   0.915   8.955 -0.2242 -0.2264 -0.0937
 2390TIP3    H131365   2.243   0.914   8.861  0.9657  0.2546 -0.3283
 2390TIP3    H231366   2.192   0.973   8.991  0.5213  1.2188 -0.9263
 2391TIP3   OH231367   4.121   3.776   9.480  0.4430  0.0083 -0.4955
 2391TIP3    H131368   4.114   3.825   9.563  1.5247 -0.4028 -0.1498
 2391TIP3    H231369   4.049   3.810   9.427 -1.0698 -0.5853  1.0499
 2392TIP3   OH231370   7.156   1.944   8.265 -0.2037  0.6336 -0.1889
 2392TIP3    H131371   7.111   1.985   8.339 -0.0930  3.0933 -1.3829
 2392TIP3    H231372   7.239   1.913   8.301 -0.9596  0.0062  1.0921
 2393TIP3   OH231373   1.322   3.748   9.501  0.1820  0.0267 -0.0638
 2393TIP3    H131374   1.343   3.663   9.462  1.0835  1.0213 -1.8766
 2393TIP3    H231375   1.226   3.751   9.502  0.0596  0.3147 -3.2603
 2394TIP3   OH231376   2.799   2.848   7.394  0.4568 -0.8764 -0.2153
 2394TIP3    H131377   2.887   2.848   7.358 -0.2212 -2.6241 -2.0519
 2394TIP3    H231378   2.792   2.766   7.442  0.0249 -0.4569  0.4583
 2395TIP3   OH231379   5.321   2.476   8.845  0.1788  0.4832  0.9361
 2395TIP3    H131380   5.393   2.421   8.814 -0.3354 -0.0366  0.6540
 2395TIP3    H231381   5.246   2.451   8.792 -0.0532  1.5067  0.7549
 2396TIP3   OH231382   3.764   0.300   6.699 -0.1422 -0.9451 -0.2602
 2396TIP3    H131383   3.838   0.341   6.743  0.0974 -0.9207 -0.6801
 2396TIP3    H231384   3.779   0.206   6.709 -1.2333 -0.9708  1.6118
 2397TIP3   OH231385   6.816   2.522   7.632  0.5746 -0.4705  0.4665
 2397TIP3    H131386   6.879   2.485   7.571  0.4111  2.2766 -1.5296
 2397TIP3    H231387   6.778   2.596   7.586 -1.0481  0.5444  3.1871
 2398TIP3   OH231388   1.050   4.811   7.033  0.6852 -0.4228 -0.2846
 2398TIP3    H131389   1.048   4.779   6.942 -0.4693 -1.3799  0.0659
 2398TIP3    H231390   1.116   4.757   7.076  0.1738 -0.9860 -0.1962
 2399TIP3   OH231391   3.451   5.246   9.314  0.0259  0.2028 -0.6536
 2399TIP3    H131392   3.411   5.161   9.335  0.0659  0.6474  1.5032
 2399TIP3    H231393   3.529   5.249   9.369  0.3457  1.3855 -1.1530
 2400TIP3   OH231394   6.331   7.085   8.680  0.3143 -0.1253 -0.3267
 2400TIP3    H131395   6.255   7.143   8.685  0.5127  0.1660 -0.6745
 2400TIP3    H231396   6.328   7.035   8.762 -0.8045 -0.8157 -0.7653
 2401TIP3   OH231397   6.165   5.186   8.919 -0.3407  0.3863  0.0738
 2401TIP3    H131398   6.139   5.098   8.944  1.4363 -0.3845 -0.6195
 2401TIP3    H231399   6.083   5.231   8.900 -1.2466 -1.3602 -0.3699
 2402TIP3   OH231400   5.109   1.298   6.976 -0.6170 -0.1654  0.3988
 2402TIP3    H131401   5.030   1.332   7.019  0.1984  1.3058  0.7849
 2402TIP3    H231402   5.166   1.374   6.967  0.7636 -1.2050  0.0921
 2403TIP3   OH231403   0.780   3.900   8.516  0.3506  0.2256  0.6462
 2403TIP3    H131404   0.870   3.921   8.538  0.8313  1.9926 -2.3617
 2403TIP3    H231405   0.733   3.983   8.525 -0.2024  0.1277 -0.9502
 2404TIP3   OH231406   3.255   5.554   8.348  0.8104 -0.2516  0.1683
 2404TIP3    H131407   3.257   5.649   8.356 -2.1386 -0.1087  0.2566
 2404TIP3    H231408   3.264   5.522   8.437  0.0819  0.0565  0.3649
 2405TIP3   OH231409   7.306   5.024   8.807 -0.2658  0.1826 -0.6681
 2405TIP3    H131410   7.345   4.998   8.723 -0.6010  0.0655 -0.7912
 2405TIP3    H231411   7.261   5.106   8.788 -1.0836 -0.2870 -0.8239
 2406TIP3   OH231412   3.785   5.448   8.230  0.5303 -0.4626  0.8525
 2406TIP3    H131413   3.735   5.400   8.164 -0.5054  1.1719  0.3944
 2406TIP3    H231414   3.834   5.380   8.277 -0.1424 -1.8487 -0.3727
 2407TIP3   OH231415   4.487   6.023   9.494  0.2909 -0.4962  0.2218
 2407TIP3    H131416   4.417   6.086   9.475  0.0126 -0.6885  0.5878
 2407TIP3    H231417   4.513   6.044   9.584  0.5519 -0.5710  0.1629
 2408TIP3   OH231418   0.543   6.373   7.370  0.1376 -0.0162 -0.3919
 2408TIP3    H131419   0.603   6.395   7.299 -0.2450 -0.3398 -0.8230
 2408TIP3    H231420   0.468   6.432   7.357  1.0132  1.5162  1.0789
 2409TIP3   OH231421   1.887   5.948   8.207 -0.4064  0.2137 -0.5216
 2409TIP3    H131422   1.941   5.870   8.197 -0.1818  0.2635  0.2781
 2409TIP3    H231423   1.801   5.922   8.173 -0.4437 -0.5111  0.1087
 2410TIP3   OH231424   1.606   6.751   9.619  0.4143 -0.5036 -0.1827
 2410TIP3    H131425   1.620   6.795   9.703  1.9680 -0.3153 -0.5075
 2410TIP3    H231426   1.691   6.713   9.597  0.7811  1.5062 -2.8218
 2411TIP3   OH231427   7.556   4.040   8.644  0.4705 -0.2105 -0.7383
 2411TIP3    H131428   7.582   3.990   8.566  0.6025  0.9773 -1.4778
 2411TIP3    H231429   7.538   4.128   8.611  3.3805  1.1830  0.9393
 2412TIP3   OH231430   1.078   1.999   6.958 -0.2957 -0.2528 -0.3588
 2412TIP3    H131431   1.035   2.059   6.897 -2.2705 -0.4829  0.7035
 2412TIP3    H231432   1.070   1.913   6.917  1.2706 -0.0275 -1.2194
 2413TIP3   OH231433   1.947   2.743   9.133 -0.1183 -0.6697  0.0897
 2413TIP3    H131434   2.012   2.784   9.076 -0.5359  0.7410  0.6120
 2413TIP3    H231435   1.865   2.787   9.112 -0.9458 -2.3879 -0.5171
 2414TIP3   OH231436   3.279   5.115   8.609  0.1672 -0.0582  0.8554
 2414TIP3    H131437   3.348   5.055   8.637 -0.9648 -0.8805  1.9899
 2414TIP3    H231438   3.197   5.071   8.632 -0.8509  0.0027 -2.2120
 2415TIP3   OH231439   7.127   0.990   7.766 -0.4551  0.1297  0.6325
 2415TIP3    H131440   7.069   0.915   7.750 -1.5864  1.3152 -1.0730
 2415TIP3    H231441   7.119   1.044   7.688  0.6423  1.8615  1.6586
 2416TIP3   OH231442   0.682   2.182   9.188 -0.5355  0.0542 -0.1591
 2416TIP3    H131443   0.605   2.200   9.133 -2.0213 -0.2532  1.7119
 2416TIP3    H231444   0.648   2.128   9.259  1.5428 -0.4979  0.4726
 2417TIP3   OH231445   2.896   2.156   8.361  0.4932 -0.3739 -0.2690
 2417TIP3    H131446   2.931   2.241   8.389 -0.5257  0.2167 -0.7149
 2417TIP3    H231447   2.813   2.178   8.319 -1.8551 -1.8773  3.1085
 2418TIP3   OH231448   7.208   0.874   8.085  0.7017 -0.0175  0.3806
 2418TIP3    H131449   7.265   0.808   8.047  0.7265  1.0382 -1.5132
 2418TIP3    H231450   7.124   0.830   8.097  1.0622 -0.7259  0.3019
 2419TIP3   OH231451   7.155   1.415   6.987 -0.2694 -0.3863  0.1453
 2419TIP3    H131452   7.184   1.326   7.003 -1.3194 -0.6176  0.8833
 2419TIP3    H231453   7.060   1.411   6.995 -0.4474  0.5281 -1.2303
 2420TIP3   OH231454   3.553   0.581   9.321 -0.0369 -0.3046  0.1560
 2420TIP3    H131455   3.498   0.512   9.359  1.0225 -0.9925  0.4650
 2420TIP3    H231456   3.534   0.578   9.227 -0.8109 -0.2677  0.3043
 2421TIP3   OH231457   5.181   2.624   8.458  0.0546  0.0690  0.2411
 2421TIP3    H131458   5.253   2.589   8.511 -0.2702  0.8523  1.2329
 2421TIP3    H231459   5.137   2.546   8.425 -0.2104 -0.4880  1.7896
 2422TIP3   OH231460   1.745   6.182   9.609  0.2116 -0.2935  0.0442
 2422TIP3    H131461   1.714   6.149   9.524 -1.2608 -2.2264  1.2410
 2422TIP3    H231462   1.665   6.209   9.654  1.0120  1.0420  0.7042
 2423TIP3   OH231463   7.187   0.457   7.850 -0.4887  0.3700  0.1750
 2423TIP3    H131464   7.138   0.528   7.890 -1.8142 -0.9292  0.9439
 2423TIP3    H231465   7.186   0.477   7.756 -2.6735  0.3406  0.1281
 2424TIP3   OH231466   6.767   4.747   8.238 -0.4561  0.4913  0.5118
 2424TIP3    H131467   6.791   4.697   8.316  1.2733  2.2420  1.1920
 2424TIP3    H231468   6.730   4.829   8.273 -0.7903  0.7992 -0.5227
 2425TIP3   OH231469   6.231   3.631   6.291 -0.3200  0.2853  0.4716
 2425TIP3    H131470   6.243   3.635   6.196 -2.4752 -0.4933  0.1140
 2425TIP3    H231471   6.306   3.581   6.322 -0.0842 -0.3096 -0.9632
 2426TIP3   OH231472   0.337   0.528   7.507 -0.7086 -0.2364  0.8171
 2426TIP3    H131473   0.374   0.574   7.431 -1.3028  1.6185  1.5971
 2426TIP3    H231474   0.305   0.445   7.471  0.9365 -0.3447 -0.5390
 2427TIP3   OH231475   5.692   6.714   9.362  0.4241  0.1730 -0.2879
 2427TIP3    H131476   5.692   6.709   9.267 -0.5817 -0.8189 -0.2522
 2427TIP3    H231477   5.687   6.623   9.391  4.2341  0.1454  0.8020
 2428TIP3   OH231478   3.821   6.704   7.687 -0.0797  0.1815  0.3019
 2428TIP3    H131479   3.725   6.710   7.684  0.0145  1.7780 -1.4925
 2428TIP3    H231480   3.844   6.645   7.616  0.2997  0.6821  0.0020
 2429TIP3   OH231481   0.254   7.282   7.110 -0.2304  0.2358 -0.7146
 2429TIP3    H131482   0.297   7.216   7.165  1.0950 -0.0592 -2.0647
 2429TIP3    H231483   0.246   7.241   7.024 -1.4277  1.0392 -1.0148
 2430TIP3   OH231484   4.547   5.405   8.809 -0.1702  0.5679  0.1827
 2430TIP3    H131485   4.583   5.411   8.720 -1.0761  0.8725 -0.1746
 2430TIP3    H231486   4.502   5.321   8.810  1.5103 -0.3807  1.0157
 2431TIP3   OH231487   3.143   2.848   8.865 -0.5785  0.2144 -0.7745
 2431TIP3    H131488   3.221   2.892   8.900 -0.4399 -1.4689  1.2154
 2431TIP3    H231489   3.152   2.856   8.770  2.3630 -0.4383 -0.6580
 2432TIP3   OH231490   3.497   2.401   8.322  0.3059  0.0540  0.0603
 2432TIP3    H131491   3.486   2.494   8.305  2.2178  0.0750 -1.3687
 2432TIP3    H231492   3.582   2.395   8.366  0.4984 -1.0507 -0.4298
 2433TIP3   OH231493   6.730   0.632   7.216  0.1813  0.6897  0.3154
 2433TIP3    H131494   6.673   0.579   7.270 -0.8479  0.5480 -0.8718
 2433TIP3    H231495   6.741   0.714   7.265 -1.5507  0.9599  0.3035
 2434TIP3   OH231496   5.384   2.393   8.025 -0.4542 -0.4242 -0.4081
 2434TIP3    H131497   5.416   2.399   8.115 -0.6011 -3.7038 -0.0248
 2434TIP3    H231498   5.315   2.459   8.020  0.2957  0.6064  1.5122
 2435TIP3   OH231499   4.598   0.617   8.063 -0.6337 -0.4220  0.5160
 2435TIP3    H131500   4.620   0.565   8.140  1.1844 -0.9026 -0.2654
 2435TIP3    H231501   4.676   0.612   8.007 -0.7564  2.3224 -0.0683
 2436TIP3   OH231502   6.794   5.722   8.425 -0.0523  0.4883  0.2614
 2436TIP3    H131503   6.751   5.806   8.437 -0.0406  0.3248  1.6138
 2436TIP3    H231504   6.759   5.667   8.495 -0.7087 -0.9145 -1.0940
 2437TIP3   OH231505   4.441   0.965   9.063 -0.3681  0.1071  0.3336
 2437TIP3    H131506   4.457   1.018   8.985  0.5315 -0.4303  0.1450
 2437TIP3    H231507   4.488   0.884   9.046  0.2042  0.1570  1.6253
 2438TIP3   OH231508   4.224   5.006   7.104 -0.2847  0.6783  0.6693
 2438TIP3    H131509   4.180   4.995   7.021 -1.1968 -1.1464  1.3580
 2438TIP3    H231510   4.222   4.920   7.145  2.8452  0.7630  1.2982
 2439TIP3   OH231511   0.302   3.342   7.979 -0.6418  0.5557  0.3136
 2439TIP3    H131512   0.372   3.345   8.044  1.0247 -0.8752 -1.2942
 2439TIP3    H231513   0.342   3.378   7.899 -1.2249 -1.6139 -1.0384
 2440TIP3   OH231514   1.583   4.825   8.443  0.2817  0.5773 -0.4599
 2440TIP3    H131515   1.537   4.888   8.498  1.3171  0.9100  0.0606
 2440TIP3    H231516   1.598   4.750   8.500  0.8761  0.7027 -0.4439
 2441TIP3   OH231517   7.339   5.072   9.575  0.0531 -0.5980 -0.1823
 2441TIP3    H131518   7.366   4.980   9.567 -1.1252 -1.0474  0.6208
 2441TIP3    H231519   7.304   5.079   9.664  0.0145  0.6092 -0.2718
 2442TIP3   OH231520   6.782   7.106   8.903  0.4271  0.2469  0.3738
 2442TIP3    H131521   6.822   7.049   8.838 -1.8760 -0.2817 -0.6735
 2442TIP3    H231522   6.715   7.052   8.945 -0.5183  1.6174  0.7052
 2443TIP3   OH231523   0.297   1.413   8.679  0.1517 -0.0437  0.2138
 2443TIP3    H131524   0.367   1.370   8.632 -0.1441 -0.3810  0.0816
 2443TIP3    H231525   0.318   1.399   8.772 -1.2131 -2.6283  0.2238
 2444TIP3   OH231526   2.897   0.744   7.446 -0.3261 -0.0665 -0.1047
 2444TIP3    H131527   2.809   0.709   7.435 -1.7203  2.5207  1.8033
 2444TIP3    H231528   2.929   0.704   7.527 -0.9139  1.0376  0.7036
 2445TIP3   OH231529   0.889   3.684   8.186 -0.4937  0.2084 -0.4974
 2445TIP3    H131530   0.839   3.744   8.241 -0.4577 -0.7842  0.6688
 2445TIP3    H231531   0.980   3.710   8.197 -0.4890  0.0265 -0.0868
 2446TIP3   OH231532   1.776   7.281   7.780 -0.1701  0.0474  0.3562
 2446TIP3    H131533   1.804   7.253   7.693  1.4976  2.2345  0.0891
 2446TIP3    H231534   1.854   7.272   7.834 -0.7064  0.3753  1.2024
 2447TIP3   OH231535   0.991   4.280   6.724 -0.7255  0.5368  0.0614
 2447TIP3    H131536   1.054   4.214   6.698  1.7160  1.8301  2.2488
 2447TIP3    H231537   1.026   4.362   6.689  0.2566  1.6333  3.2272
 2448TIP3   OH231538   3.108   3.400   8.030  0.1939 -1.0114  0.0346
 2448TIP3    H131539   3.111   3.471   8.094 -0.6623 -1.8412  1.0315
 2448TIP3    H231540   3.152   3.435   7.953 -0.4165  0.6890  0.4168
 2449TIP3   OH231541   1.439   3.893   6.830 -0.1935  0.3544 -0.2647
 2449TIP3    H131542   1.506   3.960   6.816  1.5998 -1.3888 -0.3786
 2449TIP3    H231543   1.483   3.810   6.809 -1.5951 -1.0976  2.1415
 2450TIP3   OH231544   0.303   3.534   9.328 -0.6224  0.5122  0.2509
 2450TIP3    H131545   0.295   3.616   9.378 -1.9371  0.1898  0.6207
 2450TIP3    H231546   0.335   3.561   9.242 -2.5395  1.6608 -0.1782
 2451TIP3   OH231547   6.168   2.744   7.542  0.3821 -0.0361  0.2678
 2451TIP3    H131548   6.108   2.714   7.610  0.7549 -1.2001  0.1080
 2451TIP3    H231549   6.111   2.776   7.472 -0.0900 -1.5078 -0.0523
 2452TIP3   OH231550   4.300   4.801   8.303 -0.7460  0.4722 -0.1992
 2452TIP3    H131551   4.286   4.772   8.213  1.6489 -2.1251  0.1445
 2452TIP3    H231552   4.239   4.748   8.355 -0.5578  0.3568 -0.0961
 2453TIP3   OH231553   0.371   2.689   8.149  0.1203  0.0128  0.0676
 2453TIP3    H131554   0.395   2.768   8.197 -2.0760 -0.0093  1.3243
 2453TIP3    H231555   0.403   2.704   8.060  0.4280  1.9825  0.4759
 2454TIP3   OH231556   7.178   2.720   8.907 -0.4866  0.0971  0.3691
 2454TIP3    H131557   7.272   2.741   8.901 -0.2899 -1.1619 -3.2837
 2454TIP3    H231558   7.135   2.806   8.910  0.7444  0.7521  0.0607
 2455TIP3   OH231559   0.934   6.842   7.552  0.0265 -0.7226  0.2555
 2455TIP3    H131560   0.953   6.900   7.478  1.2695 -3.5224 -1.7992
 2455TIP3    H231561   1.002   6.862   7.616  0.8279 -0.3611 -0.6772
 2456TIP3   OH231562   4.035   6.680   8.343 -0.0118  0.5415 -0.8687
 2456TIP3    H131563   4.023   6.593   8.380  1.2532  0.6502 -0.1610
 2456TIP3    H231564   3.946   6.709   8.320 -0.6266 -0.2632  0.3910
 2457TIP3   OH231565   4.734   3.542   8.572  0.0565  0.3998 -0.1906
 2457TIP3    H131566   4.805   3.527   8.634  0.1174  2.3931  0.3064
 2457TIP3    H231567   4.700   3.628   8.596 -3.0701 -0.7810  0.1169
 2458TIP3   OH231568   0.037   3.302   8.918  0.0863 -0.3641 -0.6021
 2458TIP3    H131569  -0.009   3.384   8.935  0.3242 -0.5507  1.1177
 2458TIP3    H231570   0.105   3.326   8.854  0.7055  0.9811  0.5085
 2459TIP3   OH231571   3.052   4.650   9.314  0.5898  0.6840 -0.3761
 2459TIP3    H131572   3.099   4.651   9.230 -0.8659 -0.1201 -1.2272
 2459TIP3    H231573   2.965   4.616   9.293 -0.1446  1.4174  1.2944
 2460TIP3   OH231574   3.974   1.075   8.195 -0.2452 -0.0465 -0.0569
 2460TIP3    H131575   3.982   1.007   8.261 -2.0833 -0.1369  0.1282
 2460TIP3    H231576   3.880   1.095   8.193  0.0786  1.5164 -1.0689
 2461TIP3   OH231577   4.539   6.267   9.627 -0.4470  0.8806  0.1082
 2461TIP3    H131578   4.469   6.290   9.566  0.8537  0.2763 -1.6938
 2461TIP3    H231579   4.613   6.320   9.599  0.8317 -1.0352 -0.2750
 2462TIP3   OH231580   7.247   3.652   7.029 -0.1892  0.0157  0.5226
 2462TIP3    H131581   7.264   3.695   6.946  0.5008  0.6727  0.9832
 2462TIP3    H231582   7.170   3.696   7.064 -1.3219 -1.1796 -0.3660
 2463TIP3   OH231583   0.099   1.187   7.386 -0.6161  0.3900  0.6955
 2463TIP3    H131584   0.171   1.250   7.383  0.9905 -1.3416  0.8186
 2463TIP3    H231585   0.139   1.104   7.361 -2.5161 -0.7162  1.1087
 2464TIP3   OH231586   2.975   0.879   8.489  0.2783  0.1659 -0.4676
 2464TIP3    H131587   2.897   0.844   8.446  0.5624  0.1421 -0.9643
 2464TIP3    H231588   3.034   0.902   8.418  1.7451 -2.1028 -0.0751
 2465TIP3   OH231589   0.661   0.281   8.122 -0.3236  0.3678  0.2671
 2465TIP3    H131590   0.574   0.287   8.162 -1.3599  1.8703 -2.0334
 2465TIP3    H231591   0.697   0.370   8.128  0.4996  0.0703 -0.0394
 2466TIP3   OH231592   0.752   6.076   7.306 -0.0077  0.0823  0.0320
 2466TIP3    H131593   0.811   6.042   7.238  0.6035 -1.1301  1.1235
 2466TIP3    H231594   0.804   6.142   7.352 -0.7998  1.7355 -1.3387
 2467TIP3   OH231595   5.047   2.963   9.278  0.7333 -0.4197 -0.3112
 2467TIP3    H131596   5.106   3.036   9.261 -1.3609  1.2606 -0.7084
 2467TIP3    H231597   5.079   2.925   9.360  0.0595  2.9476  1.6848
 2468TIP3   OH231598   4.855   7.440   6.391 -0.6211  0.1201 -0.0912
 2468TIP3    H131599   4.837   7.386   6.314 -0.3613 -0.4238  0.2148
 2468TIP3    H231600   4.948   7.460   6.385 -0.4542 -0.4620  0.4001
 2469TIP3   OH231601   4.857   1.923   8.904  0.7335  0.2367  0.3910
 2469TIP3    H131602   4.826   1.895   8.989 -1.5489 -0.1468 -0.5014
 2469TIP3    H231603   4.780   1.919   8.847  2.2954 -0.1873 -1.8628
 2470TIP3   OH231604   0.080   6.574   8.399 -0.6634  0.6496 -0.0509
 2470TIP3    H131605   0.000   6.622   8.376 -0.6653  1.6349  1.8187
 2470TIP3    H231606   0.051   6.508   8.462 -0.2301 -0.0405 -0.5607
 2471TIP3   OH231607   0.085   5.298   8.111 -1.0425  0.0564 -0.8150
 2471TIP3    H131608   0.016   5.283   8.047 -1.6153  0.4533 -0.3027
 2471TIP3    H231609   0.112   5.210   8.138 -4.1295 -0.2371  1.9030
 2472TIP3   OH231610   1.860   6.162   9.016 -0.1778 -0.5027 -0.2487
 2472TIP3    H131611   1.818   6.103   8.955 -1.0173 -0.1103 -0.0690
 2472TIP3    H231612   1.789   6.218   9.049  0.3680 -0.2540  0.5558
 2473TIP3   OH231613   4.495   5.935   7.802 -0.6065  0.0299  0.0045
 2473TIP3    H131614   4.568   5.894   7.848 -1.3562  1.1724  2.3762
 2473TIP3    H231615   4.538   5.994   7.738  0.6206  1.0425  1.6695
 2474TIP3   OH231616   3.900   6.792   7.937 -0.1709 -0.0271 -0.0718
 2474TIP3    H131617   3.935   6.880   7.926  1.4052 -0.5888  0.1747
 2474TIP3    H231618   3.867   6.767   7.851  1.8593 -0.2087 -0.8247
 2475TIP3   OH231619   7.081   3.484   6.691 -0.3213  0.0327 -0.4314
 2475TIP3    H131620   7.062   3.404   6.642 -1.6763  0.6391 -0.9790
 2475TIP3    H231621   7.033   3.473   6.774 -0.3950  0.2062 -0.4501
 2476TIP3   OH231622   3.215   5.359   7.268 -0.2080  0.3018  0.1051
 2476TIP3    H131623   3.288   5.357   7.206 -0.0766  2.2069  0.1218
 2476TIP3    H231624   3.204   5.452   7.288 -0.5597 -0.2062  2.5693
 2477TIP3   OH231625   1.753   0.499   8.281  0.6747  0.0556  0.0983
 2477TIP3    H131626   1.728   0.420   8.234  0.3864  0.0153  0.3145
 2477TIP3    H231627   1.768   0.471   8.371 -0.6906  0.4399  0.4820
 2478TIP3   OH231628   6.405   5.188   9.039 -0.0992 -0.1001 -0.2542
 2478TIP3    H131629   6.312   5.182   9.017  0.1049 -1.0428 -0.9242
 2478TIP3    H231630   6.433   5.273   9.003  0.1508 -1.4261 -3.5430
 2479TIP3   OH231631   5.143   7.507   6.418 -0.7484  0.0429  0.5257
 2479TIP3    H131632   5.159   7.480   6.328  0.2736  2.6122 -0.1450
 2479TIP3    H231633   5.200   7.450   6.471 -0.1636 -0.4281 -0.5921
 2480TIP3   OH231634   1.636   2.235   7.922  0.0595  0.3780  0.1146
 2480TIP3    H131635   1.547   2.214   7.950  0.1105  0.4812  0.3569
 2480TIP3    H231636   1.643   2.330   7.933  0.0934  0.4141 -0.2103
 2481TIP3   OH231637   2.368   6.096   9.463  0.6822 -0.3430  0.6267
 2481TIP3    H131638   2.359   6.057   9.376  1.3870  0.7864  0.0248
 2481TIP3    H231639   2.462   6.093   9.481  0.4963 -0.9820  1.5589
 2482TIP3   OH231640   3.841   5.434   8.938 -0.2413 -0.2831 -0.1711
 2482TIP3    H131641   3.776   5.494   8.975  0.2365  0.4309 -0.4625
 2482TIP3    H231642   3.877   5.481   8.863 -0.1423 -1.1073 -0.6578
 2483TIP3   OH231643   1.734   6.797   8.132 -0.1326  0.8049 -0.0977
 2483TIP3    H131644   1.683   6.796   8.213  0.0586  2.4824  0.0590
 2483TIP3    H231645   1.825   6.784   8.160 -0.3498 -1.7550 -0.3429
 2484TIP3   OH231646   3.487   3.827   9.253 -0.5181 -0.0869  0.7522
 2484TIP3    H131647   3.459   3.744   9.292  0.5512 -0.9341 -0.2042
 2484TIP3    H231648   3.428   3.892   9.290 -2.1185 -1.4322  0.6855
 2485TIP3   OH231649   4.845   6.039   7.782 -0.5687  0.1053  0.2179
 2485TIP3    H131650   4.890   5.967   7.827  1.0838  1.3439  0.6553
 2485TIP3    H231651   4.842   6.109   7.846 -1.1737  0.7964 -0.5511
 2486TIP3   OH231652   0.038   4.135   9.128 -0.1282  0.1753  0.3322
 2486TIP3    H131653   0.100   4.065   9.147 -0.8583  0.1970  3.4272
 2486TIP3    H231654  -0.001   4.111   9.044  1.4366 -1.7719  0.0952
 2487TIP3   OH231655   1.050   4.302   7.975 -0.5050  0.0197  0.0138
 2487TIP3    H131656   1.115   4.318   7.906  0.8338  0.7853  1.3962
 2487TIP3    H231657   1.009   4.387   7.990  0.1600  0.1725  1.0625
 2488TIP3   OH231658   7.459   2.811   7.942 -0.5159  0.0870  0.2272
 2488TIP3    H131659   7.453   2.758   8.021  0.9463 -1.1172 -0.4119
 2488TIP3    H231660   7.546   2.791   7.906 -1.0991  0.6468 -1.6332
 2489TIP3   OH231661   7.328   2.459   8.966 -0.3382 -0.2918 -0.5089
 2489TIP3    H131662   7.318   2.538   8.913 -0.2570 -0.8887 -1.4143
 2489TIP3    H231663   7.341   2.493   9.055 -3.3053  0.6798 -0.3475
 2490TIP3   OH231664   7.261   7.381   7.447  0.2074 -0.4451 -0.2532
 2490TIP3    H131665   7.222   7.306   7.402 -0.2619 -1.1315  1.2407
 2490TIP3    H231666   7.349   7.353   7.470  0.0015 -0.5775  0.3846
 2491TIP3   OH231667   7.139   5.415   7.548 -0.1343 -0.1857 -0.4317
 2491TIP3    H131668   7.216   5.423   7.491 -0.9563  0.7441 -1.4385
 2491TIP3    H231669   7.169   5.359   7.620  2.1038  1.7679  0.2794
 2492TIP3   OH231670   1.624   4.318   8.278 -0.5968 -0.8495 -0.3709
 2492TIP3    H131671   1.611   4.315   8.373  0.9019  0.7915 -0.0622
 2492TIP3    H231672   1.540   4.347   8.243 -1.0316 -1.0436  0.4865
 2493TIP3   OH231673   1.157   3.138   7.487 -0.4539 -0.0235 -0.0958
 2493TIP3    H131674   1.078   3.089   7.511 -0.6087 -0.6258 -1.7055
 2493TIP3    H231675   1.126   3.227   7.471 -0.8175 -0.2337 -0.6245
 2494TIP3   OH231676   5.542   3.483   7.843 -0.1343 -0.1149 -0.4986
 2494TIP3    H131677   5.604   3.460   7.774 -0.1522  0.5410 -0.7406
 2494TIP3    H231678   5.508   3.399   7.873  0.8337 -0.4910 -0.3893
 2495TIP3   OH231679   2.912   5.700   7.242 -0.4001 -0.0251  0.7784
 2495TIP3    H131680   2.917   5.657   7.157 -0.8995  0.9241  0.2537
 2495TIP3    H231681   2.857   5.777   7.227  0.2918  0.6803  1.7313
 2496TIP3   OH231682   0.252   5.468   7.948 -0.9189  0.2583 -0.4248
 2496TIP3    H131683   0.236   5.378   7.975 -1.1015  0.2493 -0.5578
 2496TIP3    H231684   0.170   5.514   7.967  0.0828  1.0936  2.4088
 2497TIP3   OH231685   0.147   2.943   9.657  0.3346  0.4814  0.5630
 2497TIP3    H131686   0.220   2.897   9.616 -1.0325 -1.1029 -0.1865
 2497TIP3    H231687   0.134   3.021   9.603  0.3302 -0.1722 -0.4098
 2498TIP3   OH231688   1.362   1.598   7.178  0.2430 -0.2565  0.2929
 2498TIP3    H131689   1.359   1.639   7.264  0.4553 -0.2919  0.3176
 2498TIP3    H231690   1.276   1.617   7.140  1.0990  2.1844 -0.6138
 2499TIP3   OH231691   2.705   4.328   7.853  0.0922  0.1812  0.5799
 2499TIP3    H131692   2.715   4.389   7.926 -0.9456  0.7721  0.2437
 2499TIP3    H231693   2.791   4.327   7.810  0.1839  1.2309  0.7298
 2500TIP3   OH231694   3.960   2.820   7.599 -0.3181  0.3813 -0.6320
 2500TIP3    H131695   3.903   2.746   7.618 -0.9543  0.3422 -2.5568
 2500TIP3    H231696   3.907   2.897   7.620  0.7355  0.4221  2.5340
 2501TIP3   OH231697   2.017   1.306   8.321  0.1833 -0.4349  0.2665
 2501TIP3    H131698   1.996   1.259   8.401  0.9797  0.1565  0.8428
 2501TIP3    H231699   2.058   1.387   8.351 -0.6174  0.3603 -0.7210
 2502TIP3   OH231700   1.821   6.855   9.821  0.2696 -0.4525 -0.2545
 2502TIP3    H131701   1.812   6.770   9.866  1.8343 -0.6899 -0.3448
 2502TIP3    H231702   1.915   6.873   9.822  0.1261  0.5178 -1.6609
 2503TIP3   OH231703   6.783   3.515   9.361  0.0563 -0.2438  0.0317
 2503TIP3    H131704   6.855   3.455   9.377  0.8891 -0.0406 -2.5601
 2503TIP3    H231705   6.739   3.480   9.283 -2.3768 -0.0836  1.2371
 2504TIP3   OH231706   1.163   2.201   9.351 -0.3348  0.5638  0.6890
 2504TIP3    H131707   1.150   2.111   9.322  0.6674 -0.1153  2.1851
 2504TIP3    H231708   1.076   2.232   9.374 -0.6433 -0.1781  0.5540
 2505TIP3   OH231709   0.248   6.592   8.925  1.0042  0.1125 -0.0145
 2505TIP3    H131710   0.277   6.568   8.837  0.7967 -0.1225 -0.0231
 2505TIP3    H231711   0.256   6.510   8.975 -1.8196 -0.6316 -0.5912
 2506TIP3   OH231712   1.150   1.871   8.486 -0.4373  0.8827 -0.2097
 2506TIP3    H131713   1.165   1.950   8.434  0.4192  0.3975 -0.7217
 2506TIP3    H231714   1.191   1.890   8.570  1.9840  0.0864 -1.1467
 2507TIP3   OH231715   0.630   4.806   7.766  0.3773  0.0140  0.1379
 2507TIP3    H131716   0.629   4.874   7.698  1.4623  2.1970  2.1773
 2507TIP3    H231717   0.597   4.849   7.844 -0.6150 -2.3608  1.1255
 2508TIP3   OH231718   4.681   2.967   8.037 -0.1188  0.1968  0.1728
 2508TIP3    H131719   4.699   3.059   8.056 -0.6486  0.3894 -0.2261
 2508TIP3    H231720   4.757   2.937   7.988  0.2940  0.2739  0.7523
 2509TIP3   OH231721   5.225   2.047   7.175 -0.5032 -0.7405  0.1579
 2509TIP3    H131722   5.319   2.026   7.177 -0.8459 -2.5775 -0.7954
 2509TIP3    H231723   5.213   2.111   7.245  2.0514  2.2408 -1.8595
 2510TIP3   OH231724   0.812   0.504   7.238  0.2866  0.0523 -0.5063
 2510TIP3    H131725   0.753   0.441   7.279 -0.9104  1.7198  0.4674
 2510TIP3    H231726   0.894   0.493   7.286 -0.5544  0.6941  1.1586
 2511TIP3   OH231727   4.569   3.669   8.795  0.0727 -0.4472 -0.3294
 2511TIP3    H131728   4.528   3.684   8.881 -0.6445  0.8327 -0.8607
 2511TIP3    H231729   4.649   3.621   8.815  0.9472  1.5256  1.2913
 2512TIP3   OH231730   3.293   5.402   8.610 -0.0012 -0.3894 -0.6373
 2512TIP3    H131731   3.239   5.413   8.688  0.8714  1.4673 -0.2526
 2512TIP3    H231732   3.305   5.307   8.603 -0.6077 -0.6332  1.1120
 2513TIP3   OH231733   4.986   1.362   8.108 -0.2132 -0.1722 -0.0328
 2513TIP3    H131734   5.003   1.373   8.201  1.3066  1.5014 -0.4486
 2513TIP3    H231735   4.897   1.395   8.095  0.1573  1.1123  0.5883
 2514TIP3   OH231736   2.338   4.118   9.618  0.0187  0.1358  0.2199
 2514TIP3    H131737   2.290   4.154   9.543 -1.5433 -1.9391  0.1272
 2514TIP3    H231738   2.278   4.127   9.691  0.9152  0.7143  0.9014
 2515TIP3   OH231739   2.094   1.891   9.609  0.5176  0.0744  0.1850
 2515TIP3    H131740   2.150   1.967   9.591  0.7990  0.1023  1.1230
 2515TIP3    H231741   2.005   1.927   9.611  0.6932  0.4946  1.1589
 2516TIP3   OH231742   4.288   1.162   6.983 -0.5522  0.1047 -0.2643
 2516TIP3    H131743   4.236   1.235   6.951 -2.1528 -1.4386 -1.4061
 2516TIP3    H231744   4.235   1.122   7.052 -0.7038 -1.1821 -1.0867
 2517TIP3   OH231745   6.698   1.080   7.945 -0.2697 -0.1795 -0.6359
 2517TIP3    H131746   6.730   1.002   7.990 -0.7563  1.1901  2.3735
 2517TIP3    H231747   6.775   1.115   7.901  1.0099 -0.2154  1.4122
 2518TIP3   OH231748   5.222   1.707   8.684 -0.2163 -0.3442  0.0831
 2518TIP3    H131749   5.252   1.702   8.775  0.8231 -2.4418 -0.3144
 2518TIP3    H231750   5.127   1.694   8.690 -0.1551 -0.4800  0.8590
 2519TIP3   OH231751   3.087   0.408   9.604  0.2138  0.3154 -0.4540
 2519TIP3    H131752   3.064   0.384   9.515  0.2148 -0.8202 -0.1639
 2519TIP3    H231753   3.183   0.407   9.606  0.2155  0.4272 -0.4609
 2520TIP3   OH231754   6.911   3.486   8.821 -0.0280  0.1117  0.3167
 2520TIP3    H131755   6.899   3.539   8.742  0.7152  1.0634  0.8168
 2520TIP3    H231756   6.824   3.450   8.840 -0.5971  1.3153  0.0647
 2521TIP3   OH231757   1.108   0.579   8.407  0.2320  0.4785 -0.1054
 2521TIP3    H131758   1.126   0.499   8.356 -1.0749 -0.3970  0.7435
 2521TIP3    H231759   1.100   0.648   8.341  2.9240  0.2681 -0.7703
 2522TIP3   OH231760   0.182   3.262   8.322  0.1579  0.1259 -0.0077
 2522TIP3    H131761   0.136   3.273   8.405 -1.1620  0.5607 -0.7533
 2522TIP3    H231762   0.179   3.349   8.281 -0.2429 -0.3387 -1.0028
 2523TIP3   OH231763   5.423   1.729   7.753 -0.0541 -0.5204  0.3272
 2523TIP3    H131764   5.339   1.738   7.707  1.4879  0.1414 -2.5872
 2523TIP3    H231765   5.428   1.807   7.808 -0.4565  0.5289 -1.0697
 2524TIP3   OH231766   2.560   0.305   7.880  0.0504  0.3934 -0.6463
 2524TIP3    H131767   2.480   0.303   7.932 -1.0538 -1.1513 -2.2977
 2524TIP3    H231768   2.575   0.214   7.856  1.4785  0.8522 -1.6328
 2525TIP3   OH231769   5.959   6.620   7.285 -0.5972  0.0279  1.1676
 2525TIP3    H131770   5.894   6.575   7.231  0.1987  0.2257 -0.0086
 2525TIP3    H231771   6.003   6.550   7.334 -1.2477 -0.1689  1.4772
 2526TIP3   OH231772   5.714   6.340   7.753 -0.2115  0.4135 -0.2566
 2526TIP3    H131773   5.632   6.293   7.767  0.2603 -0.2764  0.2278
 2526TIP3    H231774   5.698   6.427   7.790 -1.1986  0.7639 -1.4668
 2527TIP3   OH231775   6.366   7.438   9.339 -0.3737 -0.2801  0.0239
 2527TIP3    H131776   6.426   7.371   9.308 -0.0577  0.6334 -1.4241
 2527TIP3    H231777   6.287   7.427   9.285  0.1153  1.2136 -1.0526
 2528TIP3   OH231778   5.101   4.851   8.287  0.5960 -0.1003 -0.3359
 2528TIP3    H131779   5.136   4.856   8.376  0.7632 -1.5387 -0.2946
 2528TIP3    H231780   5.022   4.798   8.296  0.7285 -0.4296 -1.0663
 2529TIP3   OH231781   5.942   0.886   7.819 -0.1384 -0.8146 -0.2444
 2529TIP3    H131782   5.851   0.872   7.847 -0.7342  1.7043 -0.7234
 2529TIP3    H231783   5.975   0.798   7.802 -2.7431 -1.7665 -0.8728
 2530TIP3   OH231784   3.824   1.594   7.553 -0.3325 -0.0838 -0.1502
 2530TIP3    H131785   3.871   1.532   7.609 -0.5445  0.4424  0.6321
 2530TIP3    H231786   3.746   1.546   7.525 -1.2143  0.2506  1.5784
 2531TIP3   OH231787   7.475   7.088   9.182  0.3187 -0.4196 -0.1234
 2531TIP3    H131788   7.465   7.138   9.263 -1.5871 -1.7195  0.5024
 2531TIP3    H231789   7.569   7.075   9.174  0.7551  1.8805  0.5059
 2532TIP3   OH231790   3.557   5.355   7.496 -0.4435  0.5643  0.1500
 2532TIP3    H131791   3.520   5.426   7.548  1.8330  0.7738  1.6325
 2532TIP3    H231792   3.535   5.275   7.545  3.2162  0.8686  2.7107
 2533TIP3   OH231793   2.892   5.062   9.446 -0.5079  0.1716 -0.4054
 2533TIP3    H131794   2.962   5.034   9.386  0.6269  0.5000  0.7277
 2533TIP3    H231795   2.821   5.088   9.388  0.7714  1.0378 -1.6710
 2534TIP3   OH231796   6.079   3.102   6.437  0.1186  0.0874 -0.1280
 2534TIP3    H131797   6.001   3.145   6.400 -1.7975 -0.7982  2.5850
 2534TIP3    H231798   6.114   3.165   6.499 -0.1775 -0.5990  0.7548
 2535TIP3   OH231799   0.355   6.251   8.843  0.3710 -0.0187  0.1513
 2535TIP3    H131800   0.439   6.268   8.887 -0.7793  2.8635  1.4344
 2535TIP3    H231801   0.363   6.296   8.758 -0.3376  1.5723  0.8855
 2536TIP3   OH231802   0.814   2.870   8.798  0.1152 -0.4280 -0.2118
 2536TIP3    H131803   0.880   2.806   8.823  2.0597  1.8253  0.7996
 2536TIP3    H231804   0.853   2.918   8.725 -1.9226 -1.2711 -1.9541
 2537TIP3   OH231805   2.716   5.797   7.929  0.2342  0.3452 -0.1275
 2537TIP3    H131806   2.772   5.856   7.878  1.2675 -1.1807 -0.8355
 2537TIP3    H231807   2.657   5.856   7.976 -0.5467  1.8740 -2.7628
 2538TIP3   OH231808   1.348   3.198   8.894  0.2593 -0.3278 -0.2320
 2538TIP3    H131809   1.365   3.239   8.809  1.5939 -1.7214 -0.6944
 2538TIP3    H231810   1.253   3.205   8.906 -0.2490 -1.6566 -2.7098
 2539TIP3   OH231811   4.780   4.945   8.001  0.3773 -0.4407 -0.0321
 2539TIP3    H131812   4.722   4.872   7.980  2.6516 -2.7276  1.0320
 2539TIP3    H231813   4.762   4.964   8.093  1.4475 -1.3726  0.3934
 2540TIP3   OH231814   1.843   7.533   8.709  0.6628  0.6529 -0.2367
 2540TIP3    H131815   1.881   7.481   8.638  2.2816  1.1825  0.2177
 2540TIP3    H231816   1.911   7.596   8.732 -0.4234  1.5031  0.7556
 2541TIP3   OH231817   1.411   3.757   8.009  0.2498 -0.0554  0.1876
 2541TIP3    H131818   1.338   3.807   8.044 -0.3343 -0.0317 -1.0106
 2541TIP3    H231819   1.474   3.823   7.980  0.7931 -0.0763  1.2707
 2542TIP3   OH231820   6.532   2.056   7.210 -0.0946  0.2134 -0.3774
 2542TIP3    H131821   6.621   2.050   7.175 -0.2831  1.4749 -1.1328
 2542TIP3    H231822   6.540   2.117   7.284 -0.0203 -1.0978  0.7436
 2543TIP3   OH231823   1.955   7.346   7.996 -0.3920 -0.0526 -0.1243
 2543TIP3    H131824   1.912   7.287   8.058  0.5574  0.5295  1.1177
 2543TIP3    H231825   1.983   7.421   8.049 -0.8235  1.1505 -1.5089
 2544TIP3   OH231826   5.440   7.312   8.192  0.5107 -0.4987 -0.2627
 2544TIP3    H131827   5.362   7.343   8.145  1.2879  0.0199 -1.2799
 2544TIP3    H231828   5.444   7.218   8.174  1.0770 -0.2221 -1.7203
 2545TIP3   OH231829   3.180   0.836   8.246 -0.4399  0.1545 -0.2428
 2545TIP3    H131830   3.217   0.812   8.160  0.7953 -0.1784  0.3548
 2545TIP3    H231831   3.209   0.927   8.259 -0.4976  0.1519 -0.1013
 2546TIP3   OH231832   6.434   1.334   9.094 -0.0310  0.2177 -0.2457
 2546TIP3    H131833   6.406   1.297   9.010 -2.1275  2.2793 -0.5546
 2546TIP3    H231834   6.422   1.263   9.157  1.1691 -1.2375 -1.5581
 2547TIP3   OH231835   7.355   5.272   9.373 -0.4244 -0.0717 -0.3111
 2547TIP3    H131836   7.332   5.218   9.449  0.5336  1.0727  0.8373
 2547TIP3    H231837   7.449   5.257   9.360 -0.0258  1.6308  0.3367
 2548TIP3   OH231838   1.063   0.105   8.698  0.5860  0.5334  0.3581
 2548TIP3    H131839   1.001   0.178   8.705  1.1143  1.0264  0.0355
 2548TIP3    H231840   1.022   0.034   8.747 -0.1675  0.8932  0.2666
 2549TIP3   OH231841   5.960   2.376   8.619 -0.0690  0.0523  0.8378
 2549TIP3    H131842   5.953   2.413   8.706 -0.5920  2.9637 -0.3206
 2549TIP3    H231843   6.043   2.409   8.584 -0.7010  0.4691 -0.3621
 2550TIP3   OH231844   3.753   1.531   8.013 -0.0705 -0.3432 -0.8599
 2550TIP3    H131845   3.796   1.446   8.011  0.6319  0.0151 -1.1877
 2550TIP3    H231846   3.809   1.588   7.961 -0.5682  0.3070 -0.6972
 2551TIP3   OH231847   5.015   3.230   9.068  0.0901  0.1877 -0.6165
 2551TIP3    H131848   5.103   3.228   9.107  0.0152 -0.2451 -0.4677
 2551TIP3    H231849   4.978   3.313   9.098  0.1803  0.0390 -0.0882
 2552TIP3   OH231850   2.751   4.925   8.240  0.0742 -0.1073 -0.0349
 2552TIP3    H131851   2.730   4.924   8.147 -0.6104  0.9106  0.0966
 2552TIP3    H231852   2.846   4.912   8.243  0.2116  0.6111 -0.9084
 2553TIP3   OH231853   6.134   7.117   7.585  0.1764  0.9002  0.5687
 2553TIP3    H131854   6.112   7.129   7.677 -0.6148  0.8889  0.3914
 2553TIP3    H231855   6.169   7.028   7.580 -2.4095 -0.1936  0.4253
 2554TIP3   OH231856   0.120   2.979   6.665 -0.7996 -0.3107  0.3524
 2554TIP3    H131857   0.076   3.026   6.594  1.7499  1.0962 -0.4191
 2554TIP3    H231858   0.107   3.033   6.743 -2.9761 -1.4868  0.8749
 2555TIP3   OH231859   3.516   5.900   9.189  0.2335 -0.5143  0.0618
 2555TIP3    H131860   3.436   5.871   9.146 -0.2217 -0.7037  1.0192
 2555TIP3    H231861   3.489   5.924   9.278  1.4344 -1.7745  0.8103
 2556TIP3   OH231862   7.200   0.211   8.195  0.2307 -0.7110 -0.1270
 2556TIP3    H131863   7.176   0.191   8.104  2.9976 -0.5594 -0.9964
 2556TIP3    H231864   7.203   0.125   8.238 -0.7078 -0.8249 -0.2816
 2557TIP3   OH231865   4.718   4.613   7.651  0.4822 -0.4142 -0.2726
 2557TIP3    H131866   4.628   4.616   7.619 -0.0937 -3.1820  0.8358
 2557TIP3    H231867   4.770   4.598   7.572 -0.2760 -0.9985 -0.6798
 2558TIP3   OH231868   3.026   4.025   8.011 -0.8602  0.3970  0.0387
 2558TIP3    H131869   3.043   4.117   8.032 -2.2628  0.4867  0.8773
 2558TIP3    H231870   2.986   3.989   8.090  0.6556 -1.2538  0.1404
 2559TIP3   OH231871   7.011   7.313   7.751  0.1387  0.1331 -0.2739
 2559TIP3    H131872   6.951   7.341   7.682 -0.7706 -1.4444 -0.1781
 2559TIP3    H231873   7.049   7.232   7.719 -0.0726 -0.4717  0.9362
 2560TIP3   OH231874   5.905   0.023   7.966  0.2524  0.1977 -0.0502
 2560TIP3    H131875   5.840   0.060   8.026  1.9310  0.3064  1.8003
 2560TIP3    H231876   5.901  -0.072   7.981  0.0411  0.1439 -0.4423
 2561TIP3   OH231877   2.554   6.198   7.897 -0.4333  0.5886  0.4098
 2561TIP3    H131878   2.505   6.265   7.849 -0.1767  0.2352 -0.3542
 2561TIP3    H231879   2.499   6.177   7.972 -0.8999  1.0537  0.2013
 2562TIP3   OH231880   2.945   1.667   7.930 -0.0403 -0.3696 -0.5057
 2562TIP3    H131881   2.880   1.702   7.992  0.2463  0.1014 -0.4648
 2562TIP3    H231882   3.016   1.634   7.985  0.5931  0.8002 -0.5895
 2563TIP3   OH231883   0.158   1.069   8.026  0.5661  0.1699 -0.4430
 2563TIP3    H131884   0.128   1.130   8.094 -1.7246  1.7370 -2.6659
 2563TIP3    H231885   0.227   1.117   7.980  1.3467 -0.4400  0.0831
 2564TIP3   OH231886   4.895   6.986   9.279  0.0059 -0.0332  0.4939
 2564TIP3    H131887   4.889   7.037   9.359 -1.0860 -1.3248  1.2716
 2564TIP3    H231888   4.983   6.950   9.278 -0.0057 -0.0754  1.1622
 2565TIP3   OH231889   1.429   5.970   7.744 -0.0785  0.1302 -0.2719
 2565TIP3    H131890   1.466   6.022   7.815 -0.7947 -0.5119  0.5955
 2565TIP3    H231891   1.497   5.906   7.723  0.0165  0.1205  0.0630
 2566TIP3   OH231892   5.324   2.472   7.682  0.8091  0.3062  0.4356
 2566TIP3    H131893   5.386   2.487   7.611  1.1774 -1.8170  0.2562
 2566TIP3    H231894   5.361   2.399   7.732 -1.0665 -0.3964  0.8876
 2567TIP3   OH231895   6.902   3.423   6.909 -0.0571  0.0159  0.3009
 2567TIP3    H131896   6.902   3.347   6.850  0.6696 -0.4621  0.8902
 2567TIP3    H231897   6.810   3.446   6.918 -0.2478 -0.4721 -0.3019
 2568TIP3   OH231898   2.050   3.238   9.564 -0.4125 -0.8842  0.0197
 2568TIP3    H131899   2.011   3.231   9.477 -0.8080  0.9823  0.0168
 2568TIP3    H231900   1.977   3.230   9.625 -0.1022 -2.4860  0.2433
 2569TIP3   OH231901   1.846   2.886   7.074  0.7322 -0.4010  0.5102
 2569TIP3    H131902   1.789   2.934   7.133 -1.0432  0.5039 -1.8081
 2569TIP3    H231903   1.789   2.823   7.030  1.8245 -0.5671 -0.7519
 2570TIP3   OH231904   2.379   6.948   8.182 -0.6743 -0.8587 -0.3972
 2570TIP3    H131905   2.334   6.864   8.180  0.4617 -1.5181  0.4254
 2570TIP3    H231906   2.442   6.940   8.254 -1.7275  1.3137  0.8985
 2571TIP3   OH231907   0.832   4.905   9.310  0.4313 -0.3528  0.0945
 2571TIP3    H131908   0.914   4.953   9.322 -0.4316  1.0013  0.7621
 2571TIP3    H231909   0.766   4.973   9.296 -0.5717 -1.4233 -0.5086
 2572TIP3   OH231910   4.472   2.595   9.288  0.2757  0.5559 -0.1762
 2572TIP3    H131911   4.492   2.586   9.381  0.6522  0.4782 -0.2640
 2572TIP3    H231912   4.558   2.596   9.245  0.0832 -0.5069 -0.6222
 2573TIP3   OH231913   6.545   5.757   7.045 -0.2289 -0.0084 -0.3941
 2573TIP3    H131914   6.480   5.697   7.008  1.0752  0.2895 -3.4966
 2573TIP3    H231915   6.494   5.819   7.096 -2.0313 -1.5116 -0.2570
 2574TIP3   OH231916   2.354   1.935   9.165 -0.1753 -0.0078 -0.1390
 2574TIP3    H131917   2.377   1.888   9.245 -2.1368  0.4350  0.7612
 2574TIP3    H231918   2.339   2.025   9.194 -1.3299  0.0676 -0.8898
 2575TIP3   OH231919   1.691   7.485   6.935  0.2467  0.1561  0.0074
 2575TIP3    H131920   1.708   7.498   6.841  0.6400 -0.8515 -0.0807
 2575TIP3    H231921   1.718   7.567   6.976  0.5869  0.4104 -0.7071
 2576TIP3   OH231922   3.265   1.292   7.376  0.4403  0.0380 -0.1526
 2576TIP3    H131923   3.194   1.246   7.422  0.5014  0.4389  0.3590
 2576TIP3    H231924   3.339   1.232   7.380  1.5798  1.4029  3.5052
 2577TIP3   OH231925   5.135   1.544   9.082 -0.1085  0.2863 -0.0676
 2577TIP3    H131926   5.094   1.631   9.076 -0.6757  0.0192 -0.1123
 2577TIP3    H231927   5.226   1.563   9.106  0.0874  0.9470 -1.2359
 2578TIP3   OH231928   6.939   1.427   8.074  0.2946  0.0888 -0.3449
 2578TIP3    H131929   6.855   1.465   8.100 -0.5501  0.2174 -2.8970
 2578TIP3    H231930   7.003   1.464   8.135 -1.5590 -0.5595  2.1046
 2579TIP3   OH231931   7.311   0.694   6.815  0.5835 -0.3474 -0.1840
 2579TIP3    H131932   7.300   0.783   6.849  0.1122 -0.3522 -0.3206
 2579TIP3    H231933   7.405   0.688   6.797  0.5835  0.2171 -0.4210
 2580TIP3   OH231934   6.201   7.118   9.276  0.2557 -0.3187 -0.2403
 2580TIP3    H131935   6.120   7.082   9.313 -0.3163  0.6662 -0.4944
 2580TIP3    H231936   6.248   7.154   9.352  0.9953 -1.8507  0.0673
 2581TIP3   OH231937   2.069   6.164   7.842 -0.0699  0.2495 -0.3453
 2581TIP3    H131938   1.977   6.158   7.819 -0.0944 -1.1622 -0.0105
 2581TIP3    H231939   2.070   6.180   7.937  0.0444  3.2751 -0.7827
 2582TIP3   OH231940   6.796   4.036   7.133  0.4338  0.3272  0.4706
 2582TIP3    H131941   6.783   4.130   7.149 -0.4209  0.4188 -0.6393
 2582TIP3    H231942   6.753   4.020   7.049  1.4072 -0.8757  0.1766
 2583TIP3   OH231943   5.246   6.620   6.310  0.4418  0.3927  0.0943
 2583TIP3    H131944   5.215   6.693   6.364  0.9739  0.8269 -0.1753
 2583TIP3    H231945   5.213   6.542   6.355  0.1477  0.7807  0.5727
 2584TIP3   OH231946   0.113   6.358   8.169 -0.3475 -0.3342  0.2755
 2584TIP3    H131947   0.104   6.342   8.075 -1.2622 -1.9155  0.5844
 2584TIP3    H231948   0.050   6.427   8.188 -1.8195 -1.5511  0.0429
 2585TIP3   OH231949   2.842   3.845   9.630  0.8527 -0.3137  0.2897
 2585TIP3    H131950   2.754   3.882   9.617  1.3748  1.1812  0.7367
 2585TIP3    H231951   2.828   3.771   9.689 -0.0679  0.1041  0.6267
 2586TIP3   OH231952   2.720   4.994   7.970 -0.4434  0.3338 -0.4399
 2586TIP3    H131953   2.660   4.932   7.929 -1.5015  1.3249 -0.4530
 2586TIP3    H231954   2.747   5.052   7.899 -0.8654  0.9593 -0.1006
 2587TIP3   OH231955   2.023   1.915   9.120 -0.1746  0.4576  0.1828
 2587TIP3    H131956   2.079   1.934   9.046  1.2398 -1.4500  0.6942
 2587TIP3    H231957   1.973   1.838   9.094  0.2436 -0.1549  1.1136
 2588TIP3   OH231958   2.097   7.034   8.325 -0.2579 -0.7702  0.5665
 2588TIP3    H131959   2.189   7.036   8.350 -0.1351 -0.6440  0.1266
 2588TIP3    H231960   2.098   7.049   8.230 -0.8323  0.9270  0.8029
 2589TIP3   OH231961   4.053   4.770   8.865 -0.4788 -0.6833  0.0695
 2589TIP3    H131962   4.080   4.770   8.957  0.3119 -1.6872 -0.1457
 2589TIP3    H231963   4.133   4.789   8.816 -0.5035 -1.8724 -0.4806
 2590TIP3   OH231964   0.734   7.059   8.769  0.1841  0.7061 -0.1149
 2590TIP3    H131965   0.657   7.082   8.716 -0.1267  1.1824  0.5372
 2590TIP3    H231966   0.768   7.143   8.798  0.4878  0.4526  0.2558
 2591TIP3   OH231967   0.660   6.354   9.434  0.1339  0.3836  0.5415
 2591TIP3    H131968   0.734   6.312   9.389 -0.0576  2.0365 -1.4654
 2591TIP3    H231969   0.700   6.423   9.487  0.0944  0.7268  0.1241
 2592TIP3   OH231970   3.520   1.682   8.019 -0.1483  0.1239  0.2932
 2592TIP3    H131971   3.592   1.623   8.040 -0.2450 -0.6329 -1.3747
 2592TIP3    H231972   3.544   1.765   8.059  0.1494 -0.9125  2.4361
 2593TIP3   OH231973   3.472   7.393   8.481  0.3723  0.0232  0.3492
 2593TIP3    H131974   3.441   7.465   8.536  2.9261  0.2654  1.6515
 2593TIP3    H231975   3.419   7.318   8.507  0.1842  0.6044  1.7207
 2594TIP3   OH231976   4.996   0.100   7.765 -0.0640 -0.5467  0.0931
 2594TIP3    H131977   4.908   0.099   7.803  0.3145 -0.4358  0.9996
 2594TIP3    H231978   4.984   0.066   7.676 -0.9946 -0.6868  0.2589
 2595TIP3   OH231979   2.440   1.175   7.119  0.5951 -0.4205  0.2415
 2595TIP3    H131980   2.408   1.096   7.075 -1.0603  0.9997 -1.2695
 2595TIP3    H231981   2.488   1.222   7.052 -2.0395  1.8320 -0.2652
 2596TIP3   OH231982   5.572   1.123   7.609  0.2120  0.5504 -0.0692
 2596TIP3    H131983   5.587   1.030   7.623  0.7306  0.3627 -1.6599
 2596TIP3    H231984   5.562   1.132   7.514  1.1991  2.2494 -0.0599
 2597TIP3   OH231985   3.539   7.244   9.345 -0.2923  0.2848  0.0683
 2597TIP3    H131986   3.549   7.334   9.314 -0.7814  0.7881  1.3271
 2597TIP3    H231987   3.629   7.210   9.348 -0.1022  0.7272 -0.3664
 2598TIP3   OH231988   1.340   5.975   8.974  0.3509  0.3917  0.4135
 2598TIP3    H131989   1.410   5.911   8.962 -0.3724 -0.5858  1.2312
 2598TIP3    H231990   1.386   6.059   8.984  1.3050  0.0554 -0.8879
 2599TIP3   OH231991   1.660   6.430   7.389  0.1976 -0.6819  0.4615
 2599TIP3    H131992   1.581   6.480   7.411 -0.4760 -1.7386  0.5141
 2599TIP3    H231993   1.684   6.459   7.301  0.0313 -0.0080  0.6362
 2600TIP3   OH231994   4.374   6.894   9.192 -0.3904 -0.7855 -0.0379
 2600TIP3    H131995   4.393   6.979   9.152  2.3344 -1.2410  0.0997
 2600TIP3    H231996   4.346   6.916   9.281  0.0212 -0.0258 -0.0838
 2601TIP3   OH231997   2.731   3.129   6.992 -0.4414  0.1987 -0.6116
 2601TIP3    H131998   2.784   3.071   6.937  0.2691  0.9283 -0.7264
 2601TIP3    H231999   2.641   3.099   6.979 -0.0689 -1.0424 -0.4498
 2602TIP3   OH232000   5.364   2.889   8.566 -0.1829 -0.2297  0.1892
 2602TIP3    H132001   5.416   2.962   8.600  0.7915  0.2911 -2.1810
 2602TIP3    H232002   5.300   2.871   8.634  1.9074  0.3424  2.4792
 2603TIP3   OH232003   1.953   4.825   9.746  0.0625 -0.9043 -0.4895
 2603TIP3    H132004   1.895   4.878   9.691  0.1787 -0.8425 -0.5531
 2603TIP3    H232005   1.906   4.742   9.756  0.2072 -1.0499 -0.9903
 2604TIP3   OH232006   1.411   3.504   9.363  0.1705  0.2100  0.4844
 2604TIP3    H132007   1.325   3.466   9.343 -0.3125  0.6858  1.5654
 2604TIP3    H232008   1.446   3.531   9.278 -0.7411 -0.0003  0.0296
 2605TIP3   OH232009   3.344   4.738   7.368  0.0362  0.3524  0.0375
 2605TIP3    H132010   3.330   4.817   7.421 -0.4710  0.3340 -0.0706
 2605TIP3    H232011   3.408   4.765   7.302 -1.9584  1.4238 -1.5867
 2606TIP3   OH232012   5.323   6.259   9.115 -0.2444 -0.1393 -0.3674
 2606TIP3    H132013   5.331   6.176   9.069 -2.4253 -0.5921 -0.0516
 2606TIP3    H232014   5.327   6.235   9.208 -1.9648 -0.0748 -0.2516
 2607TIP3   OH232015   6.568   4.981   8.965 -0.1175 -0.1787 -0.2956
 2607TIP3    H132016   6.542   4.973   8.873  0.0762  0.6462 -0.4353
 2607TIP3    H232017   6.511   5.049   9.001 -0.4391 -0.7549  0.2977
 2608TIP3   OH232018   2.561   2.859   7.698 -0.4458  0.1390  0.1153
 2608TIP3    H132019   2.528   2.775   7.668 -0.8366  0.0099  0.8971
 2608TIP3    H232020   2.553   2.917   7.622 -1.0719 -0.2796 -0.1368
 2609TIP3   OH232021   7.249   2.567   7.614  0.6697 -0.2335  0.0423
 2609TIP3    H132022   7.264   2.473   7.609  1.2648 -0.0939 -1.2406
 2609TIP3    H232023   7.335   2.607   7.605  0.2346  0.4604 -1.5025
 2610TIP3   OH232024   3.925   2.330   9.086  0.4755 -0.0796 -0.1407
 2610TIP3    H132025   3.925   2.298   9.176  0.4917 -2.0555 -0.7781
 2610TIP3    H232026   3.836   2.360   9.070  0.1320 -0.9148  0.1697
 2611TIP3   OH232027   0.496   0.780   7.011 -0.6883  0.4771  0.8196
 2611TIP3    H132028   0.412   0.810   6.976 -0.3037  1.1767  0.4642
 2611TIP3    H232029   0.545   0.752   6.934 -0.2143  1.0594  0.9062
 2612TIP3   OH232030   2.415   6.551   8.435  0.1084  0.7034  0.5016
 2612TIP3    H132031   2.501   6.549   8.477 -0.2218 -0.0228  1.1798
 2612TIP3    H232032   2.381   6.462   8.445  0.5354  0.1233 -2.4847
 2613TIP3   OH232033   3.103   7.369   7.200  0.2353 -0.1550  0.4798
 2613TIP3    H132034   3.166   7.302   7.224 -0.0394 -0.1568  1.2454
 2613TIP3    H232035   3.143   7.415   7.126  1.5363  0.4058  1.4914
 2614TIP3   OH232036   5.432   5.728   8.624  0.2331 -0.2112  0.0395
 2614TIP3    H132037   5.482   5.669   8.681  1.0959  0.1316 -0.3432
 2614TIP3    H232038   5.341   5.700   8.634  0.1105  0.8049  2.8059
 2615TIP3   OH232039   3.986   5.405   7.866  0.1813 -0.1233  0.6430
 2615TIP3    H132040   3.910   5.421   7.810  1.0787  0.9921 -0.3216
 2615TIP3    H232041   3.986   5.311   7.881 -1.1801 -0.1919  0.3761
 2616TIP3   OH232042   6.250   1.017   9.185 -0.1477  0.0268 -0.1284
 2616TIP3    H132043   6.188   1.088   9.202 -0.3084  0.3852 -2.0451
 2616TIP3    H232044   6.238   0.996   9.092  1.9454 -0.5318 -0.3227
 2617TIP3   OH232045   6.628   5.403   8.091  0.6029  0.4399  0.0190
 2617TIP3    H132046   6.581   5.350   8.026  1.7051 -0.7023  0.1285
 2617TIP3    H232047   6.601   5.367   8.175  2.6253 -1.1492  0.0666
 2618TIP3   OH232048   3.817   5.404   9.548  0.7820  0.1789  0.2383
 2618TIP3    H132049   3.799   5.496   9.568  0.3226  0.0928  0.2262
 2618TIP3    H232050   3.862   5.372   9.626 -0.3266  0.0440  0.8357
 2619TIP3   OH232051   6.844   1.933   7.552 -0.1060  0.4354  0.5528
 2619TIP3    H132052   6.848   1.990   7.475  0.8772  0.8193  0.8724
 2619TIP3    H232053   6.915   1.964   7.608  0.4850 -1.1498  0.7106
 2620TIP3   OH232054   4.260   6.070   9.708 -0.2117  0.0690  0.4621
 2620TIP3    H132055   4.276   6.157   9.745 -0.7674  0.4275 -0.1225
 2620TIP3    H232056   4.256   6.084   9.613  0.5956 -0.7426  0.2825
 2621TIP3   OH232057   4.831   0.481   7.710 -0.3717  0.0242 -0.1031
 2621TIP3    H132058   4.858   0.455   7.798  1.1527  0.0928 -0.5367
 2621TIP3    H232059   4.817   0.575   7.716  1.1004  0.2690 -0.2530
 2622TIP3   OH232060   0.345   6.326   9.598  0.3382 -0.0380 -0.1910
 2622TIP3    H132061   0.340   6.310   9.693 -1.6443 -1.8081 -0.5182
 2622TIP3    H232062   0.437   6.347   9.582  0.7863 -0.0239  2.0663
 2623TIP3   OH232063   5.691   5.905   9.322 -0.0174 -0.2973 -0.0045
 2623TIP3    H132064   5.705   5.839   9.253 -0.0171  0.6485 -0.9292
 2623TIP3    H232065   5.624   5.866   9.378 -0.4403 -0.8588 -0.8639
 2624TIP3   OH232066   2.248   4.639   7.141 -0.3816 -0.1657 -0.8208
 2624TIP3    H132067   2.157   4.629   7.169 -0.6752  1.0942 -1.2507
 2624TIP3    H232068   2.294   4.565   7.181 -1.8092 -1.5444 -1.6128
 2625TIP3   OH232069   0.993   0.821   7.325 -0.2803  0.5668 -0.5762
 2625TIP3    H132070   0.953   0.750   7.375  1.2868 -0.8313 -1.2068
 2625TIP3    H232071   0.934   0.832   7.250  0.0554 -0.9485 -1.1098
 2626TIP3   OH232072   1.602   5.652   8.275 -0.1875 -0.4898 -0.1749
 2626TIP3    H132073   1.523   5.668   8.223 -0.3593  1.7721  0.6897
 2626TIP3    H232074   1.674   5.686   8.221 -0.0672 -0.4475  0.0132
 2627TIP3   OH232075   0.570   1.562   7.091  0.6642 -0.6227 -0.1044
 2627TIP3    H132076   0.501   1.552   7.026 -1.0131  4.2192  0.5444
 2627TIP3    H232077   0.639   1.609   7.045 -0.0375  1.7772  1.1480
 2628TIP3   OH232078   0.174   4.101   8.286  0.0580 -0.3990  0.0739
 2628TIP3    H132079   0.161   4.076   8.194 -1.7979  0.1977  0.1244
 2628TIP3    H232080   0.208   4.190   8.282  1.7108 -1.0083 -0.0323
 2629TIP3   OH232081   1.463   5.341   8.247  0.4473 -0.2104 -0.0739
 2629TIP3    H132082   1.500   5.375   8.165 -0.0888 -0.5213 -0.4483
 2629TIP3    H232083   1.387   5.397   8.264  1.3259  0.7139  0.9330
 2630TIP3   OH232084   1.398   3.858   8.666 -0.3051  0.4281 -0.4850
 2630TIP3    H132085   1.489   3.837   8.686  0.0715  1.9694 -0.4499
 2630TIP3    H232086   1.385   3.946   8.702 -1.3423  0.8630 -1.8207
 2631TIP3   OH232087   4.909   0.065   8.998 -0.6695  0.2413 -0.3022
 2631TIP3    H132088   4.906   0.161   8.993 -1.0465  0.3204  1.0477
 2631TIP3    H232089   4.961   0.039   8.922 -0.9648  1.4810 -0.9712
 2632TIP3   OH232090   7.386   1.929   8.518 -0.3044  0.4235 -0.0255
 2632TIP3    H132091   7.442   1.889   8.584 -0.4277  1.9918  1.0710
 2632TIP3    H232092   7.435   1.919   8.436  0.5662 -0.1578  0.5471
 2633TIP3   OH232093   4.631   3.818   7.099 -0.1680 -0.0752  1.0062
 2633TIP3    H132094   4.712   3.829   7.050  0.7193 -0.9735  2.2022
 2633TIP3    H232095   4.658   3.776   7.181 -1.8892 -0.8343  1.2345
 2634TIP3   OH232096   3.922   3.617   7.633  0.2036  0.5454 -0.1026
 2634TIP3    H132097   3.837   3.600   7.593 -0.1110  0.1007  0.7337
 2634TIP3    H232098   3.905   3.619   7.727  1.3435 -1.1793  0.2018
 2635TIP3   OH232099   7.199   3.961   7.066 -0.4835 -0.2845 -0.3718
 2635TIP3    H132100   7.244   3.951   6.983  1.2748 -0.5091  0.5618
 2635TIP3    H232101   7.225   4.047   7.099  0.2280 -0.8875  0.7143
 2636TIP3   OH232102   6.482   1.201   8.063  0.2931  0.6288 -0.4771
 2636TIP3    H132103   6.555   1.175   8.008  1.1154  1.1099  0.3496
 2636TIP3    H232104   6.451   1.120   8.103  0.7444  0.5008 -0.3906
 2637TIP3   OH232105   5.980   5.954   9.239  0.1594 -0.0573  0.3574
 2637TIP3    H132106   5.980   6.016   9.166  0.0881 -1.5067 -0.9182
 2637TIP3    H232107   5.887   5.931   9.251  0.3553 -1.3820 -0.4950
 2638TIP3   OH232108   0.648   1.622   8.931  0.1595 -0.2453  0.4196
 2638TIP3    H132109   0.647   1.655   8.841  0.1761  0.6560  0.7384
 2638TIP3    H232110   0.643   1.700   8.985 -0.2292 -0.8026  1.2046
 2639TIP3   OH232111   5.950   0.334   9.458 -0.1073  0.3127 -0.1695
 2639TIP3    H132112   6.039   0.301   9.470  0.0176  1.4620  2.7896
 2639TIP3    H232113   5.961   0.426   9.435 -0.5594 -0.2754 -3.0999
 2640TIP3   OH232114   2.241   3.843   9.569  0.2432 -0.0994  0.3272
 2640TIP3    H132115   2.311   3.900   9.601  2.2388 -0.1688 -3.3720
 2640TIP3    H232116   2.210   3.885   9.489 -0.7118 -2.4359 -0.6086
 2641TIP3   OH232117   0.318   6.437   7.840  0.1915  0.0981  0.4685
 2641TIP3    H132118   0.376   6.437   7.765  0.3553  1.3206  0.5709
 2641TIP3    H232119   0.358   6.377   7.903  0.8636  0.2473  0.1827
 2642TIP3   OH232120   4.019   7.343   8.957 -0.3023  0.1891  0.1339
 2642TIP3    H132121   4.064   7.416   8.916 -0.2518  2.3376  3.5815
 2642TIP3    H232122   4.089   7.286   8.988 -0.2083  0.3341  0.1875
 2643TIP3   OH232123   4.045   5.893   8.839  0.3968  0.2248  0.5591
 2643TIP3    H132124   4.109   5.830   8.874  1.6963  1.6574  0.8723
 2643TIP3    H232125   4.070   5.903   8.747 -0.1538 -0.1157  0.3701
 2644TIP3   OH232126   2.417   5.080   9.303 -0.0309 -0.5069  0.3128
 2644TIP3    H132127   2.344   5.087   9.365  2.0138  1.0918  2.7548
 2644TIP3    H232128   2.439   5.170   9.281  0.1709 -1.0093 -1.7790
 2645TIP3   OH232129   3.293   0.254   8.891  0.0227  0.0305 -0.1306
 2645TIP3    H132130   3.215   0.290   8.934 -1.4341 -1.3667 -1.4338
 2645TIP3    H232131   3.335   0.330   8.850  1.6746  1.4778  3.8148
 2646TIP3   OH232132   2.822   4.115   8.935 -0.2615 -0.2309  0.3489
 2646TIP3    H132133   2.899   4.099   8.881 -1.6027 -1.2765 -1.3759
 2646TIP3    H232134   2.855   4.117   9.025  1.7751 -0.4584 -0.3528
 2647TIP3   OH232135   6.662   1.059   8.851 -0.2014 -0.6520 -0.0097
 2647TIP3    H132136   6.626   0.988   8.798 -1.1102 -0.0739 -0.1803
 2647TIP3    H232137   6.594   1.126   8.852  1.4605  1.1536 -1.6055
 2648TIP3   OH232138   5.807   3.596   8.254 -0.1443  0.5958  0.2444
 2648TIP3    H132139   5.799   3.612   8.160 -0.1630  0.9165  0.2990
 2648TIP3    H232140   5.740   3.652   8.293 -0.6573 -0.1158  0.3977
 2649TIP3   OH232141   3.177   2.489   9.625  0.1091  0.5055  0.4978
 2649TIP3    H132142   3.174   2.456   9.536  1.4443 -0.8111  0.8964
 2649TIP3    H232143   3.086   2.501   9.650 -0.3811 -1.3970 -0.2241
 2650TIP3   OH232144   4.356   2.312   9.283  0.1388 -0.1678 -0.1131
 2650TIP3    H132145   4.305   2.299   9.203  0.4734 -0.3191 -0.3024
 2650TIP3    H232146   4.350   2.406   9.299 -0.4836 -0.2313  0.0582
 2651TIP3   OH232147   4.058   1.904   8.188 -0.6851 -0.2005 -0.1110
 2651TIP3    H132148   4.092   1.824   8.148  1.5243  0.8813 -0.5523
 2651TIP3    H232149   4.082   1.898   8.280 -1.0292 -0.2808 -0.0231
 2652TIP3   OH232150   2.222   7.370   8.630  0.1927 -0.0343  0.0203
 2652TIP3    H132151   2.240   7.455   8.670 -0.0697 -0.1574  0.4118
 2652TIP3    H232152   2.140   7.383   8.582  1.9998  0.9684 -3.0894
 2653TIP3   OH232153   6.195   2.218   8.361 -0.0512  0.1731  0.0138
 2653TIP3    H132154   6.267   2.255   8.309  1.7328  1.8012  3.3570
 2653TIP3    H232155   6.190   2.127   8.331  3.2133  0.0785 -0.6270
 2654TIP3   OH232156   6.854   3.451   8.072 -0.2746  0.3000 -0.2867
 2654TIP3    H132157   6.777   3.466   8.017 -1.5816 -0.0122  1.3671
 2654TIP3    H232158   6.869   3.357   8.067  0.6117  0.4774 -1.3402
 2655TIP3   OH232159   7.456   2.250   7.281 -0.0504  0.2554  0.8608
 2655TIP3    H132160   7.372   2.226   7.243  0.1880  1.2245 -0.3455
 2655TIP3    H232161   7.518   2.185   7.247  0.3723  1.7221 -1.4385
 2656TIP3   OH232162   5.741   1.789   8.190  0.4965 -0.7287  0.2856
 2656TIP3    H132163   5.772   1.845   8.261  1.0705  0.7317 -1.0622
 2656TIP3    H232164   5.817   1.737   8.166  0.6094 -0.4484  0.0324
 2657TIP3   OH232165   1.569   7.113   8.562 -0.1317  0.0912 -0.2589
 2657TIP3    H132166   1.590   7.022   8.582  0.6510  0.5546  1.2592
 2657TIP3    H232167   1.502   7.137   8.626  0.7231  0.9790  0.3285
 2658TIP3   OH232168   3.838   1.132   7.613  0.1770  0.3716 -0.1788
 2658TIP3    H132169   3.900   1.153   7.542  0.7716  1.9090  0.7503
 2658TIP3    H232170   3.753   1.127   7.570  0.7717 -0.7506 -1.3136
 2659TIP3   OH232171   0.962   3.810   9.753 -0.4230 -0.1921  0.1813
 2659TIP3    H132172   0.909   3.750   9.700 -0.4799  0.3208 -0.3426
 2659TIP3    H232173   0.922   3.805   9.840  0.3711 -1.9014  0.4951
 2660TIP3   OH232174   1.358   5.064   9.237 -0.1425  0.7340 -0.2221
 2660TIP3    H132175   1.303   5.124   9.186  0.6900  1.4585 -0.3034
 2660TIP3    H232176   1.408   5.121   9.296  2.2844  0.4217 -1.8070
 2661TIP3   OH232177   3.064   4.945   9.275 -0.3625 -0.3023  0.7373
 2661TIP3    H132178   3.083   4.862   9.319  0.2536 -0.0815  0.8941
 2661TIP3    H232179   3.035   4.919   9.188 -0.6015 -0.6997  0.9298
 2662TIP3   OH232180   2.249   6.651   7.687  0.1119  0.4605 -0.8570
 2662TIP3    H132181   2.184   6.586   7.658 -0.0069  0.0642  0.2590
 2662TIP3    H232182   2.330   6.600   7.697 -0.2078  0.2574  0.9523
 2663TIP3   OH232183   7.039   6.156   7.863  0.5058 -0.3240 -0.1962
 2663TIP3    H132184   7.039   6.242   7.904  0.9520 -0.5113  0.1993
 2663TIP3    H232185   7.035   6.175   7.769 -0.8281  0.1036 -0.0862
 2664TIP3   OH232186   1.673   0.173   9.459 -0.0145 -0.3349 -0.3862
 2664TIP3    H132187   1.659   0.079   9.470  0.6292 -0.5310 -1.1378
 2664TIP3    H232188   1.602   0.214   9.509 -1.5554 -1.2261 -1.7581
 2665TIP3   OH232189   4.216   6.435   6.989  0.2383 -0.6440 -0.3555
 2665TIP3    H132190   4.168   6.505   6.946  2.4009  1.1925  0.0444
 2665TIP3    H232191   4.231   6.467   7.078  1.9262 -1.2458 -0.3888
 2666TIP3   OH232192   3.348   2.867   7.397  0.4630 -0.0234 -0.1476
 2666TIP3    H132193   3.324   2.841   7.308 -2.5673 -0.0871  0.5663
 2666TIP3    H232194   3.300   2.805   7.453  0.5003  1.3982  1.5176
 2667TIP3   OH232195   0.934   2.205   7.584  0.1315  0.7302 -1.0853
 2667TIP3    H132196   1.001   2.217   7.650 -0.4052  3.7794 -0.9784
 2667TIP3    H232197   0.980   2.212   7.500  0.3198  0.0342 -1.0500
 2668TIP3   OH232198   1.522   6.436   8.749  0.3350  0.3691 -0.5768
 2668TIP3    H132199   1.521   6.487   8.668  1.0307  0.1393 -0.7406
 2668TIP3    H232200   1.520   6.501   8.819 -2.5706  0.5533 -0.7122
 2669TIP3   OH232201   3.452   4.239   8.359  0.7051  0.0169 -0.6920
 2669TIP3    H132202   3.467   4.187   8.438  1.2886  0.5259 -0.4627
 2669TIP3    H232203   3.359   4.262   8.364  1.3906  3.0547  1.7822
 2670TIP3   OH232204   4.979   5.584   8.767  0.4771 -0.4634 -0.0493
 2670TIP3    H132205   4.915   5.638   8.814  0.3056 -0.5559 -0.1751
 2670TIP3    H232206   4.993   5.630   8.684 -0.8271 -1.3875 -0.8193
 2671TIP3   OH232207   0.447   2.537   9.381  0.4285  0.0738  0.4274
 2671TIP3    H132208   0.468   2.465   9.322 -0.3884 -0.9864  1.4023
 2671TIP3    H232209   0.379   2.503   9.438  1.3158  0.9991  2.1200
 2672TIP3   OH232210   7.472   4.919   8.551 -0.6319 -0.3788  0.2674
 2672TIP3    H132211   7.543   4.977   8.524 -0.7166 -0.0605  0.7189
 2672TIP3    H232212   7.395   4.952   8.505 -1.1629  1.2741  2.1899
 2673TIP3   OH232213   5.748   3.299   9.209  0.2617 -0.3928 -0.0618
 2673TIP3    H132214   5.807   3.231   9.175 -0.7121 -0.6409 -1.3247
 2673TIP3    H232215   5.669   3.251   9.234 -0.8979  0.3629 -2.0676
 2674TIP3   OH232216   3.574   0.751   8.278 -0.5768  0.0779  0.3114
 2674TIP3    H132217   3.542   0.838   8.301 -0.7764  0.0976 -0.0283
 2674TIP3    H232218   3.496   0.697   8.272 -0.9002  0.7289 -3.1551
 2675TIP3   OH232219   1.293   4.108   8.719 -0.3193 -0.6397  0.5621
 2675TIP3    H132220   1.293   4.134   8.627 -1.2211 -1.7215  0.2309
 2675TIP3    H232221   1.248   4.180   8.764  0.2630 -0.0353  0.1951
 2676TIP3   OH232222   4.901   5.012   9.005 -0.5099 -0.2095  0.0077
 2676TIP3    H132223   4.910   4.968   8.921 -0.4426  0.0956 -0.1474
 2676TIP3    H232224   4.986   5.004   9.047 -0.3186  0.2886 -0.2765
 2677TIP3   OH232225   2.316   4.420   6.846 -0.1625 -0.2164 -0.2065
 2677TIP3    H132226   2.398   4.373   6.862 -1.1690 -2.5320 -1.3413
 2677TIP3    H232227   2.276   4.374   6.772 -2.1905  1.2396 -0.0963
 2678TIP3   OH232228   0.182   0.573   8.949 -0.2162  0.2947  0.0863
 2678TIP3    H132229   0.249   0.515   8.984  0.9223  1.4193 -0.1700
 2678TIP3    H232230   0.229   0.652   8.924 -1.5820  0.9627 -0.4775
 2679TIP3   OH232231   0.219   6.367   8.589 -0.1978  0.1962 -0.3880
 2679TIP3    H132232   0.254   6.313   8.519  0.8055  0.4685 -0.1169
 2679TIP3    H232233   0.142   6.319   8.621  0.1117 -0.5776 -0.7891
 2680TIP3   OH232234   5.575   3.712   8.358  0.2236  0.4677 -0.3490
 2680TIP3    H132235   5.598   3.741   8.446  0.0183 -1.1168  0.2632
 2680TIP3    H232236   5.575   3.792   8.305 -1.1969  1.6965  1.4055
 2681TIP3   OH232237   2.816   0.104   7.609  0.2484  0.5144  0.0145
 2681TIP3    H132238   2.790   0.042   7.540 -1.7366  0.8633  0.3919
 2681TIP3    H232239   2.827   0.187   7.564 -2.0146  0.9636  0.2077
 2682TIP3   OH232240   0.969   4.759   9.011 -0.4863  0.2558 -0.3336
 2682TIP3    H132241   1.028   4.809   9.068  0.3142 -0.2816 -0.6586
 2682TIP3    H232242   0.926   4.825   8.957 -2.0313  0.8887  1.5244
 2683TIP3   OH232243   0.519   2.457   8.244  0.6530  0.4370 -0.0879
 2683TIP3    H132244   0.510   2.547   8.210 -0.5869 -0.0399 -1.1307
 2683TIP3    H232245   0.611   2.435   8.228  0.0568  0.0093 -3.9878
 2684TIP3   OH232246   5.712   0.400   8.168 -0.3344  0.0513 -0.0972
 2684TIP3    H132247   5.648   0.336   8.136 -1.4994  0.7398  0.7898
 2684TIP3    H232248   5.797   0.357   8.154 -1.0418 -1.3798 -0.2077
 2685TIP3   OH232249   6.697   7.360   8.323 -0.4668  0.2217 -0.1191
 2685TIP3    H132250   6.783   7.347   8.283  0.0684 -0.4034  1.1738
 2685TIP3    H232251   6.713   7.426   8.391 -1.0423  0.2222  0.0140
 2686TIP3   OH232252   6.605   3.325   8.030 -0.0059 -0.5563  0.2433
 2686TIP3    H132253   6.562   3.384   7.968  1.3223  1.3828  1.0697
 2686TIP3    H232254   6.561   3.340   8.113  0.8109 -0.1610  0.6155
 2687TIP3   OH232255   7.408   2.227   6.780 -0.7198  0.1033  0.9374
 2687TIP3    H132256   7.335   2.204   6.837  0.1368 -0.6607  1.7601
 2687TIP3    H232257   7.434   2.144   6.740  0.1153  0.2363  1.1751
 2688TIP3   OH232258   6.108   3.358   8.357  0.3476 -0.4979 -0.1262
 2688TIP3    H132259   6.171   3.324   8.421 -1.0418 -0.1149  1.5142
 2688TIP3    H232260   6.035   3.296   8.359 -1.0944  1.1411  1.0241
 2689TIP3   OH232261   0.527   4.551   7.743  0.3189 -0.3464 -0.1882
 2689TIP3    H132262   0.553   4.643   7.741 -2.7984  0.6158 -0.7372
 2689TIP3    H232263   0.543   4.523   7.833 -0.0620  1.1860  0.3856
 2690TIP3   OH232264   4.884   4.186   7.865 -0.4123  0.3272  0.0843
 2690TIP3    H132265   4.884   4.201   7.960 -0.8814 -3.7571  0.9445
 2690TIP3    H232266   4.821   4.249   7.830 -1.6454  0.7317  2.7851
 2691TIP3   OH232267   2.546   3.436   8.592  0.6783  0.3335  0.2949
 2691TIP3    H132268   2.626   3.414   8.545  0.6281  1.1881 -0.2120
 2691TIP3    H232269   2.541   3.372   8.663  0.4819 -1.3471 -1.1568
 2692TIP3   OH232270   7.097   2.029   7.739  0.1613 -0.1213 -0.1035
 2692TIP3    H132271   7.031   1.983   7.790 -0.8444  0.9216 -0.4236
 2692TIP3    H232272   7.180   2.005   7.780 -0.5809  0.4930  1.8618
 2693TIP3   OH232273   2.182   5.115   9.461 -0.0025 -0.0580 -0.2727
 2693TIP3    H132274   2.195   5.059   9.537 -1.0672 -0.3727 -0.3119
 2693TIP3    H232275   2.094   5.094   9.430 -0.2222  1.2434 -0.6095
 2694TIP3   OH232276   4.642   2.087   8.348  0.7651  0.2215  0.0331
 2694TIP3    H132277   4.621   2.053   8.261 -0.3498 -0.3559  0.4905
 2694TIP3    H232278   4.695   2.164   8.332  1.3225 -0.3743 -1.1292
 2695TIP3   OH232279   6.857   5.755   9.050 -0.5281  0.1537 -0.9325
 2695TIP3    H132280   6.859   5.808   8.970  2.7906 -0.2764 -1.2960
 2695TIP3    H232281   6.914   5.802   9.111 -2.4585  0.1075  1.0060
 2696TIP3   OH232282   1.559   6.180   8.553  0.3947  0.8094  0.0024
 2696TIP3    H132283   1.488   6.192   8.616  0.6321  0.5679  0.3194
 2696TIP3    H232284   1.631   6.235   8.586  0.5742  0.5611  0.0295
 2697TIP3   OH232285   3.625   2.927   8.183  0.3382 -0.2113 -0.0572
 2697TIP3    H132286   3.678   2.849   8.200  1.0393  0.3388  0.2797
 2697TIP3    H232287   3.688   2.996   8.162 -0.1666  0.7017  1.3059
 2698TIP3   OH232288   1.959   0.618   7.522  0.1917 -0.4192  0.2818
 2698TIP3    H132289   1.990   0.707   7.535 -0.1311 -0.3825  0.8608
 2698TIP3    H232290   1.975   0.575   7.606  0.2797 -0.8863  0.0278
 2699TIP3   OH232291   1.942   4.885   7.857  0.3700 -0.0437 -0.1854
 2699TIP3    H132292   1.980   4.897   7.770  1.7125 -0.7295  0.2750
 2699TIP3    H232293   2.017   4.892   7.917 -0.6668  1.3225  1.0060
 2700TIP3   OH232294   3.859   3.923   6.875 -0.0035  0.3933 -0.0893
 2700TIP3    H132295   3.880   3.994   6.814 -0.2066 -0.8091 -1.6096
 2700TIP3    H232296   3.943   3.880   6.892 -0.3168 -0.9088 -1.6654
 2701TIP3   OH232297   5.809   3.545   9.079  0.1542  0.5083  0.0649
 2701TIP3    H132298   5.799   3.450   9.089  0.9449  0.5531  1.5412
 2701TIP3    H232299   5.762   3.582   9.154 -0.7678  1.3392 -0.8825
 2702TIP3   OH232300   5.002   2.193   7.071 -0.6950  0.1268  0.0503
 2702TIP3    H132301   5.013   2.284   7.098 -0.1255  0.1030 -0.0879
 2702TIP3    H232302   5.088   2.153   7.087 -1.4899 -0.9290  2.1478
 2703TIP3   OH232303   4.073   5.656   7.411  0.5347  0.1583 -0.1592
 2703TIP3    H132304   4.090   5.564   7.431  0.6977  0.5223  1.4420
 2703TIP3    H232305   4.002   5.653   7.347  0.5881 -1.0678 -0.1969
 2704TIP3   OH232306   1.328   0.104   9.350 -0.1942  0.1897  0.2799
 2704TIP3    H132307   1.275   0.062   9.282  0.8521  1.3771 -1.3419
 2704TIP3    H232308   1.419   0.091   9.322  0.2854  0.4767  1.6123
 2705TIP3   OH232309   5.210   4.238   8.274 -0.3985 -0.0587  0.4244
 2705TIP3    H132310   5.126   4.196   8.256 -0.2464 -0.9792  1.7154
 2705TIP3    H232311   5.195   4.330   8.256 -1.0537 -0.4957 -1.4474
 2706TIP3   OH232312   3.320   0.919   7.169  0.1065  0.1061 -0.1974
 2706TIP3    H132313   3.377   0.854   7.209 -1.3127 -0.7022  0.5948
 2706TIP3    H232314   3.265   0.869   7.109  1.7494  1.1914 -2.8177
 2707TIP3   OH232315   2.737   0.466   7.752  0.0008 -0.1907 -0.5385
 2707TIP3    H132316   2.657   0.444   7.800 -1.0114 -0.4918 -2.2623
 2707TIP3    H232317   2.770   0.383   7.720  0.5586  0.0217 -0.5305
 2708TIP3   OH232318   4.444   2.378   8.310 -0.5088  0.0357 -0.1857
 2708TIP3    H132319   4.426   2.472   8.304  0.1461  0.0926 -1.6193
 2708TIP3    H232320   4.539   2.372   8.301 -0.7385 -0.9076 -2.5764
 2709TIP3   OH232321   3.937   6.461   6.621  0.0851 -0.5267 -0.1573
 2709TIP3    H132322   3.903   6.461   6.532  1.2439  1.0405 -0.6409
 2709TIP3    H232323   3.981   6.546   6.630 -0.3521 -0.4832  2.0475
 2710TIP3   OH232324   4.508   1.799   8.021 -0.2353 -0.2962 -0.1937
 2710TIP3    H132325   4.445   1.857   7.977  1.2570  1.0541 -0.6414
 2710TIP3    H232326   4.454   1.744   8.078 -1.8563  0.4869 -0.9083
 2711TIP3   OH232327   7.129   5.194   6.822  0.3899  0.3408  0.0463
 2711TIP3    H132328   7.092   5.258   6.761  0.3342 -1.1772 -1.5728
 2711TIP3    H232329   7.054   5.149   6.859  0.3950  1.5556  1.6705
 2712TIP3   OH232330   0.967   6.795   6.902  0.1951 -0.2674 -0.0507
 2712TIP3    H132331   1.002   6.880   6.872 -1.2851  0.6639  0.7569
 2712TIP3    H232332   1.020   6.730   6.856  1.3258  1.0920 -0.7536
 2713TIP3   OH232333   5.015   3.955   6.769  0.0410 -0.1173  0.1493
 2713TIP3    H132334   5.016   3.892   6.696 -0.9653  1.1167 -0.9748
 2713TIP3    H232335   5.079   4.022   6.743  0.6931 -0.3548  1.0764
 2714TIP3   OH232336   6.247   7.192   7.071 -0.3305  0.6792  0.0217
 2714TIP3    H132337   6.191   7.187   7.148 -2.6369 -0.1888 -1.6215
 2714TIP3    H232338   6.187   7.203   6.997  1.6087 -0.6576 -1.8849
 2715TIP3   OH232339   0.538   3.413   9.675 -0.3316  0.1031  0.0285
 2715TIP3    H132340   0.513   3.371   9.593  0.6558 -1.3507  0.4404
 2715TIP3    H232341   0.558   3.341   9.734 -1.5742  1.1000  1.7515
 2716TIP3   OH232342   7.274   5.230   7.700  0.0452 -0.6370 -0.0544
 2716TIP3    H132343   7.313   5.167   7.639 -2.7502  0.5795 -3.5044
 2716TIP3    H232344   7.195   5.186   7.733  0.4033 -0.4807  1.0519
 2717TIP3   OH232345   6.384   3.513   7.509  0.3611 -0.0453 -0.2576
 2717TIP3    H132346   6.414   3.469   7.589  0.7525 -1.2880 -1.0481
 2717TIP3    H232347   6.362   3.441   7.450  0.0167  0.8570 -1.2510
 2718TIP3   OH232348   5.222   1.025   9.437  0.0197 -0.2526  0.0506
 2718TIP3    H132349   5.132   1.017   9.470 -0.6734  0.2629 -1.6140
 2718TIP3    H232350   5.254   1.107   9.475 -0.9251  0.5675 -0.8566
 2719TIP3   OH232351   4.169   6.502   7.987  0.1876 -0.7593 -0.6768
 2719TIP3    H132352   4.076   6.480   7.991  0.2541 -1.2557  3.8184
 2719TIP3    H232353   4.173   6.597   8.001  0.3668 -0.4382 -2.7127
 2720TIP3   OH232354   6.774   4.986   7.721 -0.1131 -0.0868  0.0014
 2720TIP3    H132355   6.746   4.907   7.766 -1.3202  0.5402  0.3990
 2720TIP3    H232356   6.715   4.993   7.646  0.3381  0.1457 -0.3327
 2721TIP3   OH232357   3.922   3.240   7.786 -0.1804 -0.8951 -0.2988
 2721TIP3    H132358   3.958   3.258   7.873  0.7103 -1.4387 -0.5430
 2721TIP3    H232359   3.839   3.288   7.784 -0.1460 -0.7661  0.7978
 2722TIP3   OH232360   0.201   5.317   7.517  0.3237  0.4533  0.7136
 2722TIP3    H132361   0.211   5.314   7.612  0.6661  2.2848  0.7763
 2722TIP3    H232362   0.124   5.263   7.499  0.6250 -0.4282  1.9574
 2723TIP3   OH232363   6.878   2.365   8.555 -0.5868  0.2813 -0.5454
 2723TIP3    H132364   6.827   2.405   8.626 -1.9494 -1.7960 -0.2766
 2723TIP3    H232365   6.817   2.358   8.482  0.1469  0.2946 -1.1756
 2724TIP3   OH232366   0.996   1.139   7.782 -0.1616 -0.4882  0.0442
 2724TIP3    H132367   1.026   1.181   7.862 -0.2166  0.7203 -0.5420
 2724TIP3    H232368   1.037   1.053   7.783  0.1948 -0.3153  1.1493
 2725TIP3   OH232369   3.787   7.408   8.437 -0.8663 -0.1776  0.2455
 2725TIP3    H132370   3.721   7.474   8.417 -0.0199  0.1789 -1.5441
 2725TIP3    H232371   3.859   7.427   8.378 -0.0621 -1.9156  0.5972
 2726TIP3   OH232372   5.319   2.551   9.171  0.2276 -0.4911 -0.4720
 2726TIP3    H132373   5.380   2.480   9.192 -0.0075  0.1768  3.1367
 2726TIP3    H232374   5.376   2.627   9.158  0.3197 -0.1632  1.5340
 2727TIP3   OH232375   6.042   5.913   7.379  0.4308  0.4647  0.0036
 2727TIP3    H132376   6.033   6.008   7.380 -3.2702  0.2509  1.3965
 2727TIP3    H232377   5.975   5.883   7.316  0.3798 -1.2536  0.8035
 2728TIP3   OH232378   4.314   0.576   8.005  0.0872 -0.1643 -0.0105
 2728TIP3    H132379   4.409   0.571   8.019  0.0588 -0.1351  0.1887
 2728TIP3    H232380   4.295   0.504   7.945  0.6387  1.3895 -2.1870
 2729TIP3   OH232381   6.534   1.816   9.102  0.0020 -0.1750 -0.2939
 2729TIP3    H132382   6.602   1.767   9.057  1.0739  0.4434  0.5924
 2729TIP3    H232383   6.532   1.901   9.057 -0.9777 -0.5795 -1.0318
 2730TIP3   OH232384   5.879   4.779   7.084 -0.0449  0.2220 -0.4929
 2730TIP3    H132385   5.943   4.786   7.155 -1.6553  0.2406  1.0294
 2730TIP3    H232386   5.932   4.770   7.005  1.8621  2.3905  0.4253
 2731TIP3   OH232387   5.216   3.239   8.190  0.6262  0.5884 -0.4316
 2731TIP3    H132388   5.126   3.208   8.201  1.6956 -1.9947  2.8256
 2731TIP3    H232389   5.210   3.309   8.125 -3.6172  0.2122 -0.7134
 2732TIP3   OH232390   7.294   4.220   7.378 -0.0072  0.1110  0.5111
 2732TIP3    H132391   7.275   4.214   7.284  0.1404  0.0157  0.4885
 2732TIP3    H232392   7.285   4.131   7.410 -0.6498  0.2356  0.7007
 2733TIP3   OH232393   3.190   3.959   9.007  0.0517 -0.0108 -0.2034
 2733TIP3    H132394   3.179   4.008   8.926  1.0519  2.0271  0.8125
 2733TIP3    H232395   3.270   3.908   8.994 -0.5218 -0.7367 -0.9602
 2734TIP3   OH232396   2.501   2.355   7.746  0.3342  0.2452 -0.1161
 2734TIP3    H132397   2.530   2.281   7.800  1.7069 -1.2932 -2.7510
 2734TIP3    H232398   2.575   2.416   7.747  0.7656 -0.2419 -0.9633
 2735TIP3   OH232399   5.656   3.999   7.945 -0.0564 -0.1033 -0.1468
 2735TIP3    H132400   5.571   3.965   7.915 -0.6304  1.7143 -0.7519
 2735TIP3    H232401   5.639   4.091   7.962  1.7532  0.2351 -0.0245
 2736TIP3   OH232402   3.090   1.140   8.693 -0.1320  0.0057  0.0799
 2736TIP3    H132403   3.004   1.120   8.730  0.8398  1.1686  3.2879
 2736TIP3    H232404   3.136   1.056   8.692  0.2373  0.0863  2.9680
 2737TIP3   OH232405   0.860   3.234   8.284 -0.2996 -0.4030 -0.2065
 2737TIP3    H132406   0.809   3.270   8.357  0.4367  2.4181 -0.9475
 2737TIP3    H232407   0.943   3.281   8.288 -0.6320  0.6794 -3.4269
 2738TIP3   OH232408   5.468   5.708   7.088  0.8708  0.9008 -0.0285
 2738TIP3    H132409   5.380   5.679   7.066  0.0629  2.5699  0.7902
 2738TIP3    H232410   5.514   5.713   7.005  0.2817 -0.2253 -0.4392
 2739TIP3   OH232411   5.792   2.793   9.250  0.8067  0.0187 -0.1060
 2739TIP3    H132412   5.772   2.740   9.327  1.5853  0.0360  0.1178
 2739TIP3    H232413   5.870   2.843   9.275  0.2787  1.0442 -0.4178
 2740TIP3   OH232414   3.130   1.373   8.893  0.6852  0.3768 -0.1323
 2740TIP3    H132415   3.131   1.286   8.852  0.5755  0.7564 -0.9682
 2740TIP3    H232416   3.171   1.360   8.979 -2.7479 -1.3095  1.4553
 2741TIP3   OH232417   4.197   4.073   8.848  0.0298 -0.0295 -0.1123
 2741TIP3    H132418   4.154   3.988   8.838  1.9495 -1.8705  4.5713
 2741TIP3    H232419   4.282   4.062   8.804  0.0303 -0.3008 -0.0447
 2742TIP3   OH232420   1.015   1.015   9.228  0.3009 -0.2039  0.0250
 2742TIP3    H132421   1.084   0.949   9.234  0.8575  0.4389  0.9299
 2742TIP3    H232422   1.030   1.058   9.144  0.0457 -1.0900 -0.4879
 2743TIP3   OH232423   2.633   1.344   8.555  0.2405 -0.0293 -0.5474
 2743TIP3    H132424   2.654   1.428   8.595 -0.6213  0.2866 -0.7529
 2743TIP3    H232425   2.715   1.295   8.560  1.0733  1.2043 -1.3811
 2744TIP3   OH232426   4.735   0.309   7.385 -0.4643  0.1387  0.2039
 2744TIP3    H132427   4.751   0.378   7.320 -0.3070 -1.0959 -1.1150
 2744TIP3    H232428   4.677   0.247   7.340 -1.7658  0.0986  1.8542
 2745TIP3   OH232429   5.875   6.911   6.901  0.1221 -0.2901 -0.4224
 2745TIP3    H132430   5.932   6.876   6.970  0.1351 -0.4808 -0.5272
 2745TIP3    H232431   5.872   7.005   6.917  1.2101 -0.1424 -0.9520
 2746TIP3   OH232432   4.373   5.210   7.785  0.0937 -0.3038  0.2289
 2746TIP3    H132433   4.460   5.169   7.786 -0.6892 -1.9965  0.6348
 2746TIP3    H232434   4.386   5.291   7.835  1.3492 -0.7226  0.6358
 2747TIP3   OH232435   2.645   7.036   7.840 -0.4353  0.0175  0.1014
 2747TIP3    H132436   2.568   6.995   7.880 -0.5558 -0.2899 -0.4455
 2747TIP3    H232437   2.673   6.975   7.772 -2.1655  1.9147 -2.5343
 2748TIP3   OH232438   6.750   4.253   7.920 -0.0605  0.1245 -0.5687
 2748TIP3    H132439   6.662   4.215   7.919  0.4537 -1.1071 -1.1800
 2748TIP3    H232440   6.776   4.252   8.012 -1.5865  2.8107  0.0293
 2749TIP3   OH232441   0.473   2.065   8.084  0.4555  0.3325 -0.0219
 2749TIP3    H132442   0.425   2.148   8.075 -0.9734 -0.5429 -0.8286
 2749TIP3    H232443   0.442   2.011   8.011 -0.6490 -1.8806  1.9445
 2750TIP3   OH232444   2.595   5.197   8.894 -0.1738  0.4049  0.1095
 2750TIP3    H132445   2.564   5.162   8.811  0.2769 -1.7226  0.7794
 2750TIP3    H232446   2.550   5.144   8.960  0.5989  1.0680  1.2021
 2751TIP3   OH232447   7.413   2.396   7.917 -0.0373 -0.4531  0.8166
 2751TIP3    H132448   7.460   2.468   7.959 -2.8939  1.0670  1.7116
 2751TIP3    H232449   7.335   2.383   7.971  0.0496 -3.9043  0.3437
 2752TIP3   OH232450   0.006   0.814   6.870  0.3155 -0.5062  0.0966
 2752TIP3    H132451   0.070   0.843   6.804  0.4954  0.3332  0.6216
 2752TIP3    H232452  -0.022   0.894   6.913 -2.2188 -0.6665 -1.0673
 2753TIP3   OH232453   6.467   2.284   8.797  0.4605  0.3550 -0.3994
 2753TIP3    H132454   6.531   2.330   8.743 -0.0919  2.2825  0.4826
 2753TIP3    H232455   6.404   2.249   8.735  1.3353  0.0799 -1.1577
 2754TIP3   OH232456   1.264   1.132   8.346 -0.3399 -0.3522  0.0784
 2754TIP3    H132457   1.255   1.113   8.439 -1.0518  1.6248  0.4742
 2754TIP3    H232458   1.333   1.073   8.315  0.5680 -0.3901  2.0537
 2755TIP3   OH232459   1.111   4.924   9.206  0.4717 -0.4068 -0.0621
 2755TIP3    H132460   1.055   4.990   9.165  1.5907 -0.4436 -1.7663
 2755TIP3    H232461   1.194   4.969   9.222  0.6926 -0.9460  0.3373
 2756TIP3   OH232462   1.296   6.817   7.499 -0.6455 -0.2095 -0.3300
 2756TIP3    H132463   1.296   6.834   7.405 -0.0210  1.0228 -0.1183
 2756TIP3    H232464   1.362   6.876   7.535 -0.9787 -0.5542  0.9083
 2757TIP3   OH232465   4.429   4.391   9.633 -0.0822  0.1549 -0.0721
 2757TIP3    H132466   4.467   4.303   9.634 -1.3070 -0.3963  0.4933
 2757TIP3    H232467   4.485   4.441   9.574  2.3913 -0.2005  1.8247
 2758TIP3   OH232468   6.134   1.434   7.961  0.5770  0.1533  0.6201
 2758TIP3    H132469   6.167   1.359   7.911 -0.4815  0.3544 -0.4147
 2758TIP3    H232470   6.185   1.508   7.928 -0.4189  0.3606 -0.5310
 2759TIP3   OH232471   3.191   6.775   7.897 -0.0162  0.1037 -0.0638
 2759TIP3    H132472   3.277   6.812   7.878  0.9319 -1.7076  0.4895
 2759TIP3    H232473   3.184   6.700   7.837  0.3409 -1.8832  2.2418
 2760TIP3   OH232474   3.956   0.041   7.858 -0.4089 -0.0906  0.3261
 2760TIP3    H132475   3.889   0.085   7.910 -0.7561 -1.4132  1.0681
 2760TIP3    H232476   3.910  -0.031   7.816  0.3266 -0.3455 -0.0567
 2761TIP3   OH232477   6.944   1.501   8.705  0.5191 -0.3403 -0.0526
 2761TIP3    H132478   6.871   1.443   8.725  0.3450 -0.1082 -0.0107
 2761TIP3    H232479   6.953   1.497   8.610  1.5760 -1.7245  0.0770
 2762TIP3   OH232480   5.723   1.159   6.353  0.2391 -0.1210  0.4010
 2762TIP3    H132481   5.651   1.189   6.297 -1.2240 -1.0416  1.7412
 2762TIP3    H232482   5.767   1.240   6.380  0.0540  0.4240 -0.8458
 2763TIP3   OH232483   3.099   0.199   7.790  0.0123  0.1413  0.2004
 2763TIP3    H132484   3.077   0.284   7.827 -0.0641 -0.6549  2.1249
 2763TIP3    H232485   3.144   0.153   7.861 -1.8190 -2.1752 -0.0237
 2764TIP3   OH232486   3.971   5.052   9.467  0.2120 -0.6010 -0.5649
 2764TIP3    H132487   3.945   4.961   9.485  0.9608 -1.3569 -2.8825
 2764TIP3    H232488   4.067   5.048   9.457  0.4621  0.7873  0.8656
 2765TIP3   OH232489   1.102   0.223   7.843 -0.2310 -0.1684  0.4716
 2765TIP3    H132490   1.079   0.178   7.762 -0.6444  1.3725 -0.3093
 2765TIP3    H232491   1.190   0.191   7.865  0.2361  0.0218 -1.0533
 2766TIP3   OH232492   2.823   2.252   6.896  0.1457 -0.3203  0.3669
 2766TIP3    H132493   2.918   2.265   6.904  0.0303  0.3655  0.6429
 2766TIP3    H232494   2.804   2.176   6.952  0.4136  0.0255  0.9310
 2767TIP3   OH232495   5.795   1.610   8.817 -0.3899 -0.9503  0.6969
 2767TIP3    H132496   5.864   1.676   8.813 -0.8100 -0.5345 -0.0554
 2767TIP3    H232497   5.784   1.582   8.726 -2.3623  0.2274  0.5051
 2768TIP3   OH232498   6.243   0.347   8.016  0.2721 -0.0207  0.0591
 2768TIP3    H132499   6.310   0.322   8.081  2.4650  0.9910 -1.6717
 2768TIP3    H232500   6.252   0.282   7.947 -0.6495  0.0684 -0.1522
 2769TIP3   OH232501   5.469   4.746   9.155 -0.4178  0.0904  0.1559
 2769TIP3    H132502   5.392   4.781   9.201 -0.4262  0.4268 -0.1138
 2769TIP3    H232503   5.442   4.659   9.127 -0.9268  0.4502 -0.4927
 2770TIP3   OH232504   7.374   5.844   9.214 -0.2993 -0.7616 -0.7080
 2770TIP3    H132505   7.449   5.869   9.269  1.4253 -1.7114 -2.4732
 2770TIP3    H232506   7.339   5.928   9.183  0.5043 -0.2998 -0.4183
 2771TIP3   OH232507   0.511   1.277   9.309 -0.1385  0.6294  0.3541
 2771TIP3    H132508   0.514   1.348   9.246 -0.6211 -0.7432 -1.2871
 2771TIP3    H232509   0.590   1.226   9.291 -0.9613 -0.5215 -0.0919
 2772TIP3   OH232510   0.402   0.917   9.283 -0.4243  0.7238 -0.0124
 2772TIP3    H132511   0.336   0.857   9.316  0.8553 -0.6628  0.1574
 2772TIP3    H232512   0.466   0.924   9.353  1.3573 -0.7367 -1.3823
 2773TIP3   OH232513   5.135   5.362   9.434  0.2522  0.2946 -0.1973
 2773TIP3    H132514   5.118   5.418   9.358  1.5236 -0.2503 -0.9291
 2773TIP3    H232515   5.056   5.310   9.444 -0.5125  1.4219 -0.2008
 2774TIP3   OH232516   1.172   4.019   7.289 -0.4438 -0.2597  0.2122
 2774TIP3    H132517   1.192   3.994   7.198 -1.0034 -0.3224  0.1062
 2774TIP3    H232518   1.084   3.984   7.305 -0.4852  0.0491  0.6673
 2775TIP3   OH232519   1.032   4.577   6.800  0.2638  0.1437  0.0721
 2775TIP3    H132520   1.051   4.525   6.722  0.6914  0.4769 -0.0457
 2775TIP3    H232521   1.116   4.584   6.845  0.1774  0.6106  0.1607
 2776TIP3   OH232522   6.442   3.520   8.181  0.1473 -0.6734  0.4045
 2776TIP3    H132523   6.475   3.570   8.106 -1.7130  0.6132  0.3735
 2776TIP3    H232524   6.375   3.463   8.144  0.6065 -1.4938  0.8100
 2777TIP3   OH232525   4.183   1.762   7.853  0.1032  0.2573 -0.1018
 2777TIP3    H132526   4.191   1.853   7.881  0.6454 -0.1731  1.2148
 2777TIP3    H232527   4.237   1.757   7.773 -2.0494  1.6715 -1.7609
 2778TIP3   OH232528   2.811   1.407   8.151  0.4385  0.1178  0.1792
 2778TIP3    H132529   2.850   1.400   8.064  1.0270  1.3622  0.3211
 2778TIP3    H232530   2.875   1.365   8.209  0.5607  0.2528  0.1427
 2779TIP3   OH232531   7.318   7.084   6.963  0.3498 -0.1722 -0.4377
 2779TIP3    H132532   7.262   7.117   6.892  1.9805  0.8116 -1.3101
 2779TIP3    H232533   7.296   6.990   6.968 -1.0687  0.0997 -1.0189
 2780TIP3   OH232534   1.656   1.928   8.844  0.1428 -0.5452  0.5919
 2780TIP3    H132535   1.587   1.991   8.826 -0.6608 -1.0008  1.8914
 2780TIP3    H232536   1.722   1.977   8.893  0.5722 -0.2014 -0.3178
 2781TIP3   OH232537   0.953   1.001   8.469  0.0307  0.1899  1.0675
 2781TIP3    H132538   0.987   0.975   8.555 -0.6208  2.0360  1.9543
 2781TIP3    H232539   0.891   1.071   8.489 -2.1208 -1.0871 -0.7224
 2782TIP3   OH232540   2.131   3.423   7.799  0.2075  0.2228 -1.2899
 2782TIP3    H132541   2.205   3.399   7.744  0.5066 -0.8386 -0.4468
 2782TIP3    H232542   2.056   3.380   7.758 -0.1139  1.9219 -2.5863
 2783TIP3   OH232543   1.426   3.592   9.112 -0.2701 -0.1165 -0.0333
 2783TIP3    H132544   1.356   3.549   9.062  1.1571 -1.4043 -0.9902
 2783TIP3    H232545   1.502   3.590   9.054  0.7250  0.8047  1.1744
 2784TIP3   OH232546   4.194   5.674   8.313 -0.0227 -0.1812 -0.4543
 2784TIP3    H132547   4.225   5.757   8.278 -1.3132  0.8955  0.8423
 2784TIP3    H232548   4.142   5.636   8.242 -0.5950  0.7958 -0.5705
 2785TIP3   OH232549   0.903   3.040   7.309 -0.0926  0.1374  0.1897
 2785TIP3    H132550   0.964   3.090   7.254 -0.4249  1.0368  0.6128
 2785TIP3    H232551   0.837   3.104   7.335 -0.7425 -0.6273  0.4402
 2786TIP3   OH232552   6.253   1.216   7.880  0.6550  0.1510  0.3106
 2786TIP3    H132553   6.337   1.217   7.925  2.1822  1.6373 -2.3102
 2786TIP3    H232554   6.233   1.123   7.868  2.2264 -0.2449  0.5120
 2787TIP3   OH232555   5.637   7.285   9.361 -0.3284  0.2100  0.3724
 2787TIP3    H132556   5.589   7.220   9.309 -0.2284  1.5285 -1.4393
 2787TIP3    H232557   5.571   7.347   9.389 -0.2265  0.0260  1.0470
 2788TIP3   OH232558   7.300   4.586   9.121 -0.0550  0.4500  0.5421
 2788TIP3    H132559   7.347   4.507   9.147 -1.5501 -0.5479  0.3861
 2788TIP3    H232560   7.364   4.637   9.071  1.5319  0.3043  2.3080
 2789TIP3   OH232561   3.431   5.640   7.539  0.0439 -0.3170  0.5240
 2789TIP3    H132562   3.428   5.675   7.450 -1.0133 -0.7031  0.3923
 2789TIP3    H232563   3.521   5.653   7.567  0.3389 -0.0030 -0.5313
 2790TIP3   OH232564   2.522   2.179   6.410 -0.4665 -0.3743 -0.3069
 2790TIP3    H132565   2.593   2.230   6.451  0.9422 -1.6823 -1.0391
 2790TIP3    H232566   2.442   2.219   6.444  0.6081  1.0739  0.6563
 2791TIP3   OH232567   5.110   4.493   8.192  0.0708 -0.5995  0.1602
 2791TIP3    H132568   5.139   4.509   8.102  1.6619 -0.2546  0.7019
 2791TIP3    H232569   5.015   4.487   8.186 -0.1306  2.1221 -1.1753
 2792TIP3   OH232570   3.924   0.752   9.299 -0.2863 -0.9244 -0.6030
 2792TIP3    H132571   3.868   0.756   9.376 -0.3482 -1.0842 -0.6396
 2792TIP3    H232572   3.879   0.803   9.233 -0.0397 -0.4525 -0.4118
 2793TIP3   OH232573   0.545   4.776   8.498 -0.1921 -0.0571 -0.3335
 2793TIP3    H132574   0.463   4.745   8.538 -0.2278 -0.1797 -0.4986
 2793TIP3    H232575   0.522   4.860   8.459 -0.2028 -0.0227 -0.2539
 2794TIP3   OH232576   5.648   7.395   8.502 -0.6129 -0.0556  0.0870
 2794TIP3    H132577   5.688   7.394   8.590  1.0483  0.0557 -0.6278
 2794TIP3    H232578   5.596   7.475   8.500 -0.7339 -0.0985  0.9973
 2795TIP3   OH232579   3.557   1.518   9.309 -0.0575  0.3753  0.5424
 2795TIP3    H132580   3.633   1.465   9.332  0.3486  0.4982 -0.4783
 2795TIP3    H232581   3.482   1.461   9.327  0.3745 -0.6285 -0.6601
 2796TIP3   OH232582   2.490   6.970   9.385  0.3141  0.2087  0.0434
 2796TIP3    H132583   2.560   6.982   9.449  1.3885  1.4117 -1.2825
 2796TIP3    H232584   2.531   6.922   9.313 -0.9721 -1.4521  0.3613
 2797TIP3   OH232585   0.983   2.729   6.882 -0.4541 -0.1543 -0.2393
 2797TIP3    H132586   1.032   2.651   6.857  0.3906  0.2204  0.2057
 2797TIP3    H232587   0.910   2.732   6.821 -0.6965 -1.4824 -0.0402
 2798TIP3   OH232588   1.143   5.392   9.285 -0.0254  0.0060  0.3373
 2798TIP3    H132589   1.176   5.338   9.356  0.3140 -0.7733 -0.3921
 2798TIP3    H232590   1.210   5.460   9.274 -0.1769  0.2501  0.8818
 2799TIP3   OH232591   4.519   3.647   7.352  0.3823  0.1106  0.1396
 2799TIP3    H132592   4.502   3.610   7.265 -0.1243  0.0999  0.2422
 2799TIP3    H232593   4.519   3.742   7.338  1.3008  0.0924 -0.0530
 2800TIP3   OH232594   5.599   2.293   9.089 -0.2700 -0.1279 -0.1394
 2800TIP3    H132595   5.626   2.302   8.997 -0.3601 -1.5448 -0.3213
 2800TIP3    H232596   5.510   2.259   9.085 -1.8124  3.3865  0.4712
 2801TIP3   OH232597   4.690   3.947   8.191  0.0942  0.1773 -0.3725
 2801TIP3    H132598   4.692   3.860   8.228  1.0961 -0.0498 -0.9206
 2801TIP3    H232599   4.598   3.972   8.192 -0.1649 -0.7745  0.0353
 2802TIP3   OH232600   3.408   7.172   8.846  0.0320 -0.3866 -0.3572
 2802TIP3    H132601   3.388   7.114   8.919  1.3249 -0.4251 -0.0086
 2802TIP3    H232602   3.447   7.114   8.780 -0.0370 -0.1612 -0.5975
 2803TIP3   OH232603   4.263   4.814   8.636  0.3689  0.3383 -0.0555
 2803TIP3    H132604   4.226   4.884   8.582 -0.7888  0.4667  0.8573
 2803TIP3    H232605   4.234   4.733   8.593  1.3382  0.3990 -0.8620
 2804TIP3   OH232606   2.233   6.735   8.299  0.4584 -0.0784  0.4145
 2804TIP3    H132607   2.258   6.686   8.220  0.0861  2.2537 -1.2509
 2804TIP3    H232608   2.274   6.687   8.370  3.6542 -0.4696 -1.4916
 2805TIP3   OH232609   2.773   4.002   7.697 -0.1645  0.0258 -0.2045
 2805TIP3    H132610   2.683   4.027   7.678 -0.5897  1.4668  3.0196
 2805TIP3    H232611   2.765   3.916   7.739  0.0384 -0.1124 -0.4464
 2806TIP3   OH232612   5.737   0.640   7.305  0.0479 -0.3321 -0.3353
 2806TIP3    H132613   5.670   0.646   7.237  1.3802 -2.2249 -1.9097
 2806TIP3    H232614   5.816   0.611   7.259  1.7546  0.9529  1.6020
 2807TIP3   OH232615   6.997   4.626   8.054 -0.0305  0.4263  0.2301
 2807TIP3    H132616   6.904   4.605   8.065  0.2687 -0.9193  0.3093
 2807TIP3    H232617   7.038   4.597   8.135  0.5012  0.7856  0.0907
 2808TIP3   OH232618   5.529   3.715   9.420  0.8070 -0.0780 -0.0207
 2808TIP3    H132619   5.558   3.731   9.510  0.5618  1.1782 -0.1445
 2808TIP3    H232620   5.451   3.660   9.429 -0.9074  2.3394  0.7394
 2809TIP3   OH232621   0.399   6.205   6.923 -0.5830 -0.4502 -0.0775
 2809TIP3    H132622   0.386   6.298   6.902 -0.0531 -0.6895 -1.5829
 2809TIP3    H232623   0.479   6.204   6.976 -0.2044 -0.0997 -0.6286
 2810TIP3   OH232624   1.726   1.561   8.432 -0.2481  0.2229 -0.7579
 2810TIP3    H132625   1.721   1.512   8.514 -1.5768 -0.1472 -1.0367
 2810TIP3    H232626   1.695   1.649   8.455 -2.9722 -0.4924 -1.2726
 2811TIP3   OH232627   5.457   6.910   8.639  0.2192 -0.4279 -0.4363
 2811TIP3    H132628   5.369   6.919   8.602  0.2987 -1.0186 -0.7769
 2811TIP3    H232629   5.515   6.945   8.571  0.2241  0.2881 -0.0671
 2812TIP3   OH232630   1.287   0.607   8.809  0.2579  0.6543  0.2667
 2812TIP3    H132631   1.209   0.554   8.828 -0.4005  1.3519 -0.3978
 2812TIP3    H232632   1.355   0.570   8.865 -0.4847 -0.1340  0.6835
 2813TIP3   OH232633   5.289   1.154   7.528  0.4033 -0.0811 -0.0003
 2813TIP3    H132634   5.359   1.208   7.491  0.3281  0.6425  0.8872
 2813TIP3    H232635   5.333   1.072   7.550  1.1028  0.5347  0.9892
 2814TIP3   OH232636   5.169   6.917   9.318  0.0264 -0.7123  0.2502
 2814TIP3    H132637   5.238   6.915   9.251 -0.6433 -2.5408 -0.4543
 2814TIP3    H232638   5.169   6.829   9.355 -1.2275 -0.4262  0.9842
 2815TIP3   OH232639   0.770   5.597   8.402  0.3236 -0.3235 -1.2325
 2815TIP3    H132640   0.813   5.623   8.483 -0.5647 -0.1825 -0.7977
 2815TIP3    H232641   0.680   5.575   8.428  0.3821 -1.5406 -1.9613
 2816TIP3   OH232642   0.765   2.463   8.731 -0.1071 -0.0100 -0.2260
 2816TIP3    H132643   0.758   2.369   8.715 -2.9900  0.0702  0.0567
 2816TIP3    H232644   0.791   2.471   8.822  2.3991 -0.4533 -0.8222
 2817TIP3   OH232645   0.849   3.236   9.010 -0.6312 -0.1467 -0.1463
 2817TIP3    H132646   0.755   3.229   8.996 -1.3942  1.4429  3.2024
 2817TIP3    H232647   0.868   3.170   9.077  0.9651 -1.3500 -1.6906
 2818TIP3   OH232648   5.498   3.384   9.487  0.3625  0.4525  0.1302
 2818TIP3    H132649   5.414   3.364   9.527 -0.0849 -0.5519 -1.2282
 2818TIP3    H232650   5.476   3.426   9.404  1.1909  0.1080 -0.2801
 2819TIP3   OH232651   0.839   6.264   9.002 -0.0362  0.5675 -0.3208
 2819TIP3    H132652   0.809   6.354   9.012  0.1642  0.8673 -2.0463
 2819TIP3    H232653   0.915   6.270   8.944  1.3354 -0.5162  1.2588
 2820TIP3   OH232654   0.675   1.970   9.779 -0.2364 -0.6226  0.5750
 2820TIP3    H132655   0.618   1.947   9.706 -1.2044 -0.6422  1.3228
 2820TIP3    H232656   0.639   2.051   9.815 -0.1745 -0.9645  1.4396
 2821TIP3   OH232657   5.978   5.340   9.211 -0.4358 -0.4073  0.1186
 2821TIP3    H132658   5.980   5.428   9.248 -0.5191 -0.4156  0.1418
 2821TIP3    H232659   5.965   5.355   9.117  0.5372 -0.3564 -0.0179
 2822TIP3   OH232660   7.396   3.283   7.891  0.0085  0.0733  0.7635
 2822TIP3    H132661   7.350   3.366   7.879 -0.0857 -0.0611  0.1782
 2822TIP3    H232662   7.345   3.236   7.957 -1.9574 -0.9796 -1.3880
 2823TIP3   OH232663   2.889   7.139   7.994 -0.1750  0.1281 -0.2740
 2823TIP3    H132664   2.795   7.158   7.997  0.0018  1.0162 -0.1110
 2823TIP3    H232665   2.896   7.049   8.027 -0.8663  0.4432  0.7898
 2824TIP3   OH232666   2.761   2.713   8.378  0.1770 -0.1913  0.3566
 2824TIP3    H132667   2.754   2.799   8.337 -1.6726  0.0492  1.0738
 2824TIP3    H232668   2.746   2.651   8.307 -0.5519  0.1495  0.2035
 2825TIP3   OH232669   4.771   3.516   7.302 -0.4040 -0.1920 -0.1373
 2825TIP3    H132670   4.816   3.599   7.318 -1.7410  0.6435 -0.5974
 2825TIP3    H232671   4.694   3.518   7.358 -1.9397  0.1370 -2.1642
 2826TIP3   OH232672   1.278   0.259   7.541 -0.0746 -0.1001 -0.5244
 2826TIP3    H132673   1.373   0.252   7.536 -0.0401  1.0417 -2.4420
 2826TIP3    H232674   1.262   0.350   7.565 -0.6503  0.3881 -2.5443
 2827TIP3   OH232675   3.415   1.593   8.493  0.4432 -0.2065 -0.6811
 2827TIP3    H132676   3.382   1.643   8.419 -0.0936  2.4462  1.2044
 2827TIP3    H232677   3.446   1.659   8.555 -1.2909 -2.0926  2.4669
 2828TIP3   OH232678   2.730   3.994   8.530  0.4073 -0.2474  0.2589
 2828TIP3    H132679   2.665   4.053   8.569 -0.5444 -1.6580  0.8862
 2828TIP3    H232680   2.690   3.966   8.447  0.4576 -0.7021  0.3889
 2829TIP3   OH232681   3.159   7.503   9.273  0.0265 -0.0903  0.0405
 2829TIP3    H132682   3.165   7.420   9.321 -0.4083 -0.1360  0.0188
 2829TIP3    H232683   3.115   7.481   9.191 -2.2922  0.5398  1.0141
 2830TIP3   OH232684   6.257   1.843   8.869  0.8128  0.3775  0.1741
 2830TIP3    H132685   6.235   1.936   8.866  0.3440  0.3236  1.5329
 2830TIP3    H232686   6.342   1.837   8.825  0.4618  1.3080 -0.6756
 2831TIP3   OH232687   5.928   3.003   7.082  0.7735  0.7010 -0.1057
 2831TIP3    H132688   5.914   3.072   7.016 -0.5190  0.5995  0.0251
 2831TIP3    H232689   5.993   2.945   7.042  0.5847  1.0589 -0.9723
 2832TIP3   OH232690   1.217   4.089   6.684  0.2217 -0.5438  0.4343
 2832TIP3    H132691   1.306   4.077   6.717 -0.4549 -0.5769  2.3607
 2832TIP3    H232692   1.229   4.135   6.601  2.0474 -0.8634  0.4722
 2833TIP3   OH232693   5.376   2.166   9.020  0.0384  0.2884 -0.1855
 2833TIP3    H132694   5.413   2.128   8.940 -1.9977  1.0456 -1.5750
 2833TIP3    H232695   5.282   2.163   9.006 -0.4736 -0.9075  2.8754
 2834TIP3   OH232696   2.584   1.202   8.213 -0.7080 -0.3960 -0.1140
 2834TIP3    H132697   2.643   1.278   8.212 -0.1827 -0.6703  2.3218
 2834TIP3    H232698   2.499   1.237   8.187 -0.3976  0.9815  0.6174
 2835TIP3   OH232699   1.594   6.258   7.647 -0.1212  0.1704  0.3146
 2835TIP3    H132700   1.570   6.326   7.709  0.0166  0.8569 -0.3743
 2835TIP3    H232701   1.516   6.246   7.592 -0.3519 -0.6513  0.7912
 2836TIP3   OH232702   7.536   1.448   8.064 -0.1438 -0.4949  0.0180
 2836TIP3    H132703   7.617   1.412   8.100  0.5911  1.0293 -0.0337
 2836TIP3    H232704   7.466   1.401   8.110  0.7517  0.5852  2.7083
 2837TIP3   OH232705   5.807   1.121   9.013  0.2752  0.3507  0.2819
 2837TIP3    H132706   5.869   1.172   8.961  0.1209  0.5329  0.2769
 2837TIP3    H232707   5.733   1.107   8.954 -1.0244  2.6993  1.2147
 2838TIP3   OH232708   6.980   3.713   8.984 -0.1792 -0.4813  0.1706
 2838TIP3    H132709   7.056   3.731   8.929  0.7129  1.5955  1.9489
 2838TIP3    H232710   6.928   3.652   8.932  0.4343  1.4882 -3.1117
 2839TIP3   OH232711   0.250   2.219   9.708 -0.0857  0.1239 -0.2743
 2839TIP3    H132712   0.260   2.124   9.701 -0.2067  0.0070  0.9741
 2839TIP3    H232713   0.162   2.236   9.675  0.2630 -0.0832 -1.3356
 2840TIP3   OH232714   1.084   4.495   9.023  0.1403  0.3684 -0.1520
 2840TIP3    H132715   1.090   4.494   9.119 -0.3931 -0.0845 -0.1182
 2840TIP3    H232716   1.042   4.578   9.002 -1.2515 -0.2350  0.1151
 2841TIP3   OH232717   2.768   3.392   9.569  0.1320 -0.1235  0.2717
 2841TIP3    H132718   2.811   3.321   9.617 -0.1303 -0.7188 -0.3458
 2841TIP3    H232719   2.778   3.367   9.477  0.4042  0.8592  0.0218
 2842TIP3   OH232720   3.394   4.740   8.415 -0.0890  0.0665  0.2921
 2842TIP3    H132721   3.433   4.810   8.468  0.9025 -0.2348 -0.0249
 2842TIP3    H232722   3.327   4.785   8.363 -0.0064  0.6364  0.6628
 2843TIP3   OH232723   0.745   0.553   8.994  0.0647 -0.1164  0.2972
 2843TIP3    H132724   0.799   0.626   9.024 -0.6389  0.8556 -0.6970
 2843TIP3    H232725   0.661   0.594   8.971 -0.0194 -1.0627 -1.2302
 2844TIP3   OH232726   7.456   2.515   9.202 -0.8794  0.0774 -0.3337
 2844TIP3    H132727   7.469   2.574   9.277  0.9303  0.6674 -1.0488
 2844TIP3    H232728   7.483   2.429   9.235  2.1451  0.7185 -0.8484
 2845TIP3   OH232729   0.383   5.234   7.816 -0.3250  0.0441 -0.5469
 2845TIP3    H132730   0.441   5.180   7.870 -1.9682 -0.3719  0.8947
 2845TIP3    H232731   0.423   5.320   7.815  0.4922 -0.3177  0.1145
 2846TIP3   OH232732   2.647   3.025   8.646 -0.4230 -0.1160 -0.7237
 2846TIP3    H132733   2.663   2.935   8.675  1.1720 -0.4556 -2.5205
 2846TIP3    H232734   2.553   3.026   8.625 -0.8574 -0.8131  1.0322
 2847TIP3   OH232735   1.509   1.012   8.943 -0.3803 -0.1704  0.1887
 2847TIP3    H132736   1.427   0.965   8.961  0.3473 -1.4295  0.3425
 2847TIP3    H232737   1.554   1.017   9.027  0.7470 -1.6081 -0.2727
 2848TIP3   OH232738   6.537   3.871   8.862  0.0442 -0.0128 -0.1368
 2848TIP3    H132739   6.600   3.883   8.933  0.2324 -2.1163  0.1195
 2848TIP3    H232740   6.461   3.924   8.888 -0.2357 -1.3900  2.1224
 2849TIP3   OH232741   2.949   0.399   9.356  0.1492 -0.2171  0.6381
 2849TIP3    H132742   2.894   0.365   9.284 -0.9709  0.6265  1.0591
 2849TIP3    H232743   2.899   0.473   9.390  0.9997 -0.1813  1.8468
 2850TIP3   OH232744   2.525   5.652   7.661 -0.0849 -0.0179 -0.1499
 2850TIP3    H132745   2.555   5.636   7.572  0.7786 -0.8824  0.2763
 2850TIP3    H232746   2.455   5.717   7.652  2.2246  2.5204 -1.1616
 2851TIP3   OH232747   4.952   3.717   8.995  0.9254 -0.4210  0.2513
 2851TIP3    H132748   5.000   3.767   8.928  0.3438 -1.0277 -0.6383
 2851TIP3    H232749   4.888   3.779   9.029  1.2815 -0.0818  0.3159
 2852TIP3   OH232750   0.040   1.750   9.418  0.4217  0.4443  0.1281
 2852TIP3    H132751  -0.036   1.694   9.403 -0.5759  1.6304  0.6131
 2852TIP3    H232752   0.103   1.722   9.351  0.5169 -2.1386  1.1536
 2853TIP3   OH232753   2.427   4.635   8.015  0.3933 -0.0418 -1.0077
 2853TIP3    H132754   2.392   4.721   8.036 -1.4273 -1.0435  0.3959
 2853TIP3    H232755   2.390   4.614   7.929  1.9490  1.0681 -2.0118
 2854TIP3   OH232756   0.622   6.181   7.064  0.2855 -0.3598 -0.2982
 2854TIP3    H132757   0.673   6.118   7.116 -0.3097  0.0323  0.8090
 2854TIP3    H232758   0.676   6.261   7.064 -0.1441 -0.0533  0.5797
 2855TIP3   OH232759   7.330   5.579   8.375  0.8087 -0.0638  0.1810
 2855TIP3    H132760   7.338   5.535   8.290  1.5845 -0.0056  0.2125
 2855TIP3    H232761   7.242   5.617   8.374  1.7205  2.2802 -1.7296
 2856TIP3   OH232762   4.197   2.785   7.106  0.0636  0.1831  0.3215
 2856TIP3    H132763   4.283   2.787   7.064  0.2850 -0.9277  0.6934
 2856TIP3    H232764   4.186   2.694   7.133 -0.7559  0.5557  1.2763
 2857TIP3   OH232765   5.181   6.682   9.476  0.0165 -0.0974 -0.5751
 2857TIP3    H132766   5.228   6.741   9.535 -1.7298  0.3686  0.4156
 2857TIP3    H232767   5.250   6.634   9.431  1.4421 -0.1041  1.4686
 2858TIP3   OH232768   4.750   2.716   8.477  0.0074 -0.0815 -0.1032
 2858TIP3    H132769   4.664   2.695   8.442  0.4788  0.5450 -1.7346
 2858TIP3    H232770   4.805   2.730   8.400  1.2918  0.6554  0.8959
 2859TIP3   OH232771   3.288   3.280   7.793 -0.1784  1.1019 -0.3533
 2859TIP3    H132772   3.329   3.331   7.723  0.3924  0.8073 -0.2460
 2859TIP3    H232773   3.347   3.293   7.868  0.6653 -0.6942 -0.6623
 2860TIP3   OH232774   7.048   0.422   9.248  0.3770  0.2461 -0.4792
 2860TIP3    H132775   6.973   0.415   9.189 -0.4142 -1.4523  0.6739
 2860TIP3    H232776   7.055   0.515   9.267  1.1484  1.0148 -3.8166
 2861TIP3   OH232777   7.217   7.432   7.025 -0.0959  0.0271 -0.4317
 2861TIP3    H132778   7.277   7.371   7.068  1.0911  0.3129 -1.6163
 2861TIP3    H232779   7.196   7.391   6.941 -1.0073  0.2611 -0.3295
 2862TIP3   OH232780   2.655   4.658   9.238  0.0766  0.2276 -0.5042
 2862TIP3    H132781   2.572   4.671   9.284  0.8086  0.7561  0.6998
 2862TIP3    H232782   2.676   4.744   9.201  0.1029  0.0993 -0.7889
 2863TIP3   OH232783   4.318   3.303   9.064 -0.1587  0.4140 -0.0374
 2863TIP3    H132784   4.368   3.286   8.985  0.6154  1.3991  0.2152
 2863TIP3    H232785   4.382   3.337   9.126 -0.7017 -0.5629  1.1081
 2864TIP3   OH232786   4.472   5.000   8.213 -0.5368  0.1379  0.5468
 2864TIP3    H132787   4.523   5.035   8.286 -0.0023  0.7260 -0.0949
 2864TIP3    H232788   4.418   4.932   8.252  0.5931 -0.3639  1.2792
 2865TIP3   OH232789   2.920   0.415   7.952  0.1123 -0.8936 -0.6213
 2865TIP3    H132790   2.875   0.439   7.872 -1.9275 -1.7262  0.2094
 2865TIP3    H232791   2.901   0.487   8.013 -0.3388 -1.3523 -0.2006
 2866TIP3   OH232792   6.786   3.670   7.842  0.7068 -0.0567  0.1270
 2866TIP3    H132793   6.863   3.644   7.790  0.3219  2.0762 -1.6377
 2866TIP3    H232794   6.821   3.729   7.908  0.6719  0.4415 -0.2967
 2867TIP3   OH232795   1.904   7.268   8.836  0.1887 -0.6023 -0.0254
 2867TIP3    H132796   1.864   7.329   8.774 -0.8373  0.4802  1.6234
 2867TIP3    H232797   1.830   7.225   8.879  0.8749 -1.5146  0.2836
 2868TIP3   OH232798   4.241   0.315   6.822 -0.3742 -0.4798 -0.0901
 2868TIP3    H132799   4.297   0.379   6.866  0.9684 -1.6381 -0.0831
 2868TIP3    H232800   4.298   0.270   6.760 -1.7145 -0.4640 -1.4071
 2869TIP3   OH232801   2.474   4.944   6.978 -0.2452  0.1568 -0.0658
 2869TIP3    H132802   2.384   4.921   6.956 -0.1963  2.2763 -3.0162
 2869TIP3    H232803   2.522   4.861   6.972 -1.4269 -0.4455 -1.8981
 2870TIP3   OH232804   6.972   7.145   8.626 -0.3925 -0.3792  0.0233
 2870TIP3    H132805   7.044   7.208   8.633  0.9415 -1.9958  2.1780
 2870TIP3    H232806   6.896   7.191   8.661 -0.1073  0.9022 -0.9808
 2871TIP3   OH232807   2.757   6.305   7.353 -0.0354 -0.0828  0.2509
 2871TIP3    H132808   2.815   6.372   7.317  1.2844 -0.3579  1.7522
 2871TIP3    H232809   2.728   6.255   7.277  1.0076  0.6026 -0.6276
 2872TIP3   OH232810   1.786   5.415   8.430 -0.4615 -0.3103  0.0089
 2872TIP3    H132811   1.712   5.359   8.404 -0.3859 -0.0223 -0.8504
 2872TIP3    H232812   1.759   5.503   8.405  0.1859 -0.2060 -0.3474
 2873TIP3   OH232813   2.604   0.030   9.309  0.0287  0.6032 -0.5230
 2873TIP3    H132814   2.641  -0.015   9.385  0.5145  0.5455 -0.7870
 2873TIP3    H232815   2.517   0.057   9.337 -0.0960 -0.1043 -0.2067
 2874TIP3   OH232816   4.901   5.218   9.428  0.2213  0.2058 -0.2830
 2874TIP3    H132817   4.829   5.172   9.470  1.1787 -0.9572  0.1217
 2874TIP3    H232818   4.866   5.244   9.343 -0.4307 -1.0727 -0.4274
 2875TIP3   OH232819   0.714   3.627   9.699 -0.1556  0.1503 -0.4215
 2875TIP3    H132820   0.745   3.631   9.608  1.6257  0.2314  0.1449
 2875TIP3    H232821   0.647   3.559   9.698  1.4266 -1.5016 -1.4019
 2876TIP3   OH232822   2.743   6.667   7.251  0.1423  0.1087  0.8600
 2876TIP3    H132823   2.652   6.685   7.231 -0.5008 -1.4899  2.0634
 2876TIP3    H232824   2.787   6.664   7.166 -0.8182  1.3044  0.2956
 2877TIP3   OH232825   2.214   2.989   8.127  0.0303  0.8214 -0.5170
 2877TIP3    H132826   2.158   2.915   8.105 -0.2801  1.1876 -0.9896
 2877TIP3    H232827   2.292   2.977   8.074  0.1802  0.5838 -0.2434
 2878TIP3   OH232828   3.059   3.973   9.717  1.0040 -0.5280 -0.0455
 2878TIP3    H132829   3.092   3.884   9.710 -0.8946 -1.6172  2.9843
 2878TIP3    H232830   2.967   3.967   9.693  1.0532  0.8424 -0.6966
 2879TIP3   OH232831   1.658   7.196   9.597 -0.0411 -0.0509 -0.4251
 2879TIP3    H132832   1.563   7.204   9.610 -0.1724 -0.7006 -0.9457
 2879TIP3    H232833   1.667   7.143   9.518  0.7492  1.5661 -1.4845
 2880TIP3   OH232834   0.737   2.189   8.671  0.1482 -0.1699  0.0875
 2880TIP3    H132835   0.824   2.171   8.706  0.8187  0.6939 -1.0847
 2880TIP3    H232836   0.744   2.171   8.577 -0.7791  0.4854 -0.1265
 2881TIP3   OH232837   1.810   1.524   9.026 -0.0555  0.0321  0.1686
 2881TIP3    H132838   1.750   1.590   8.991  0.8005  0.2740 -0.8963
 2881TIP3    H232839   1.777   1.506   9.114 -0.7580  1.3075  0.1891
 2882TIP3   OH232840   7.250   4.967   8.382  0.0465 -0.0246 -0.0625
 2882TIP3    H132841   7.317   4.918   8.336 -0.8026  0.6322 -2.1412
 2882TIP3    H232842   7.171   4.913   8.377  0.0118 -0.0904  0.9468
 2883TIP3   OH232843   6.600   3.681   7.420  0.4565 -0.6970 -0.2651
 2883TIP3    H132844   6.540   3.622   7.466 -1.3518  0.0181 -1.5972
 2883TIP3    H232845   6.554   3.765   7.418  1.2244 -0.2870 -1.8945
 2884TIP3   OH232846   3.405   2.378   8.725  0.2526  0.2449  0.1295
 2884TIP3    H132847   3.459   2.334   8.791 -0.3638  0.0669  0.5235
 2884TIP3    H232848   3.342   2.429   8.776 -0.2436  0.0918 -0.3221
 2885TIP3   OH232849   1.034   4.519   9.983  0.3590 -0.2327  0.1678
 2885TIP3    H132850   0.989   4.498  10.064 -1.6996  2.1211 -0.2472
 2885TIP3    H232851   0.990   4.466   9.916 -1.2098  1.2754 -0.0664
 2886TIP3   OH232852   2.603   1.686   7.948  0.3612 -0.3588  0.6145
 2886TIP3    H132853   2.584   1.655   7.860 -3.5887  1.6938  0.5274
 2886TIP3    H232854   2.656   1.764   7.935  2.5579 -1.8003  0.3666
 2887TIP3   OH232855   5.230   5.815   7.691  0.7356 -0.7776  0.0777
 2887TIP3    H132856   5.152   5.839   7.642  0.2878 -0.1201  1.0964
 2887TIP3    H232857   5.236   5.720   7.681  0.0735 -0.7779 -0.3843
 2888TIP3   OH232858   0.644   7.348   8.244 -0.1070 -0.0807 -0.0420
 2888TIP3    H132859   0.608   7.418   8.190 -0.3908 -0.4702 -0.3665
 2888TIP3    H232860   0.596   7.356   8.327 -0.3948 -0.1119 -0.2019
 2889TIP3   OH232861   6.554   0.796   9.378 -0.2802  0.6335  1.1632
 2889TIP3    H132862   6.612   0.775   9.306  2.2269 -2.2482  3.7214
 2889TIP3    H232863   6.609   0.841   9.441 -0.5530 -2.2077  3.6998
 2890TIP3   OH232864   6.622   1.851   8.361  0.2302  0.1935 -0.5982
 2890TIP3    H132865   6.596   1.775   8.414  2.3968  0.4866  0.9760
 2890TIP3    H232866   6.601   1.927   8.415 -1.3372  0.7605 -1.9086
 2891TIP3   OH232867   5.465   1.996   7.855 -0.2650  0.5272  0.7486
 2891TIP3    H132868   5.556   2.005   7.881 -0.3911  1.0379  1.0390
 2891TIP3    H232869   5.416   1.998   7.938 -0.4013 -2.1148  0.8083
 2892TIP3   OH232870   3.838   3.876   9.361 -0.3894  0.3802 -0.0313
 2892TIP3    H132871   3.815   3.852   9.271  0.9825 -2.5882  0.2788
 2892TIP3    H232872   3.766   3.841   9.414  0.8645 -1.8711  0.3006
 2893TIP3   OH232873   0.801   3.117   7.611 -0.1864 -0.9064 -0.0642
 2893TIP3    H132874   0.797   3.168   7.531 -0.2773 -1.6356 -0.5330
 2893TIP3    H232875   0.832   3.179   7.678 -0.5499 -0.1802 -0.5579
 2894TIP3   OH232876   4.256   5.549   7.779  0.4197 -0.0868  0.6458
 2894TIP3    H132877   4.164   5.527   7.791  0.6439 -0.4840  1.8137
 2894TIP3    H232878   4.263   5.640   7.808  0.5368 -0.3257  1.3989
 2895TIP3   OH232879   4.966   5.789   9.466 -0.4129 -0.2069 -0.2374
 2895TIP3    H132880   4.962   5.879   9.433 -0.0896  0.1977  0.7897
 2895TIP3    H232881   4.875   5.760   9.469 -0.3836 -0.7224 -2.6638
 2896TIP3   OH232882   6.085   7.436   9.235  0.1334 -0.2589  0.0760
 2896TIP3    H132883   6.092   7.403   9.325 -1.7412 -1.5513 -0.2067
 2896TIP3    H232884   6.013   7.387   9.197 -0.1596  1.4050 -1.6568
 2897TIP3   OH232885   1.525   3.149   7.244  0.5856  0.2967 -0.5270
 2897TIP3    H132886   1.591   3.214   7.223  0.1732  1.3518  1.1864
 2897TIP3    H232887   1.574   3.073   7.273  1.0871  1.0380  0.6435
 2898TIP3   OH232888   2.257   5.305   8.314 -0.1308  0.3790 -0.7127
 2898TIP3    H132889   2.341   5.350   8.322 -0.2538  0.6309 -0.8331
 2898TIP3    H232890   2.196   5.359   8.366 -0.2099  0.1782 -0.5966
 2899TIP3   OH232891   3.531   0.998   8.425 -0.4577  0.1410 -0.2518
 2899TIP3    H132892   3.449   0.970   8.465 -0.2047 -1.3476 -0.6881
 2899TIP3    H232893   3.597   0.984   8.492 -0.1593 -1.5197 -0.8535
 2900TIP3   OH232894   4.068   4.850   9.144 -0.4497 -0.0390  0.1356
 2900TIP3    H132895   3.984   4.889   9.167 -0.5300  0.1677 -0.4707
 2900TIP3    H232896   4.090   4.793   9.217  0.7253  2.7251  2.0974
 2901TIP3   OH232897   2.978   0.845   9.120 -0.6330 -0.3162 -0.6769
 2901TIP3    H132898   2.905   0.786   9.138  0.4047 -1.0451  1.4189
 2901TIP3    H232899   3.028   0.848   9.201  0.9113  1.2834 -1.6006
 2902TIP3   OH232900   2.979   6.467   7.568  0.3060 -0.0769 -0.6019
 2902TIP3    H132901   3.053   6.453   7.510 -0.2121  2.0467 -1.9079
 2902TIP3    H232902   3.018   6.489   7.653  1.1204 -0.8814 -0.7636
 2903TIP3   OH232903   2.725   1.967   8.592  0.3478 -0.1409  0.3746
 2903TIP3    H132904   2.814   1.991   8.568  0.4475 -0.8550 -0.0028
 2903TIP3    H232905   2.731   1.942   8.685  0.6573 -0.7236  0.2047
 2904TIP3   OH232906   1.407   7.105   8.302  0.0993 -0.2716 -0.5541
 2904TIP3    H132907   1.457   7.078   8.225  1.0104 -1.1842  0.3430
 2904TIP3    H232908   1.467   7.096   8.375 -1.1719 -0.7566  0.4679
 2905TIP3   OH232909   2.323   3.334   7.586  0.0895  0.5141  0.5741
 2905TIP3    H132910   2.263   3.350   7.513  0.3912  1.4489  0.5142
 2905TIP3    H232911   2.327   3.239   7.593  0.3147  0.3905 -0.8544
 2906TIP3   OH232912   5.634   6.189   6.969  0.0209  0.0527  0.0874
 2906TIP3    H132913   5.670   6.276   6.953  1.6006 -0.4162  0.8228
 2906TIP3    H232914   5.544   6.205   6.996  0.1531  1.4316 -0.2075
 2907TIP3   OH232915   2.989   6.119   8.322 -0.1431 -0.1599 -0.0441
 2907TIP3    H132916   2.938   6.040   8.339 -1.1067  0.0892 -1.6924
 2907TIP3    H232917   3.011   6.115   8.229  0.0791  1.3596 -0.0830
 2908TIP3   OH232918   7.147   6.698   8.232 -0.1913  0.3481 -0.0840
 2908TIP3    H132919   7.170   6.645   8.309 -1.0425 -0.3914 -0.3253
 2908TIP3    H232920   7.211   6.674   8.166  0.7226  1.1970  0.4704
 2909TIP3   OH232921   4.206   2.891   8.859 -0.6472 -0.1297  0.0794
 2909TIP3    H132922   4.122   2.918   8.897  0.4906  2.4664  0.9654
 2909TIP3    H232923   4.237   2.821   8.917 -1.9530 -0.7930  0.0095
 2910TIP3   OH232924   1.139   5.688   9.509 -0.4966 -0.2020  0.4369
 2910TIP3    H132925   1.117   5.619   9.571 -2.5574  0.4028  0.4650
 2910TIP3    H232926   1.230   5.711   9.528 -0.6366 -1.0270  2.2368
 2911TIP3   OH232927   4.095   6.335   7.240  0.2363 -0.1927 -0.4578
 2911TIP3    H132928   4.068   6.367   7.326  1.9682 -0.1972  0.1380
 2911TIP3    H232929   4.014   6.326   7.191 -0.6170  1.7785  0.4897
 2912TIP3   OH232930   0.833   4.909   8.783  0.4859  0.5340  0.8289
 2912TIP3    H132931   0.789   4.855   8.717  1.3999  0.1674  0.5046
 2912TIP3    H232932   0.765   4.968   8.814 -0.1957  0.0959  0.2178
 2913TIP3   OH232933   5.562   3.124   9.355 -0.5664 -0.3631  0.7318
 2913TIP3    H132934   5.489   3.135   9.293  1.5372  2.6745 -1.5054
 2913TIP3    H232935   5.544   3.188   9.424 -1.2946 -1.5274  1.6679
 2914TIP3   OH232936   1.508   4.943   8.136 -0.4655 -0.0937 -0.0701
 2914TIP3    H132937   1.533   4.963   8.227  0.2966 -1.9419  0.1634
 2914TIP3    H232938   1.439   4.877   8.144 -1.4997  0.8552 -0.8371
 2915TIP3   OH232939   6.161   3.416   8.102 -0.0611  0.1887  0.0564
 2915TIP3    H132940   6.154   3.511   8.108 -3.7700  0.3315 -2.6362
 2915TIP3    H232941   6.136   3.385   8.189 -1.9371  1.7470  0.1519
 2916TIP3   OH232942   3.430   2.593   9.484 -0.7692 -0.2166  0.0307
 2916TIP3    H132943   3.366   2.601   9.555 -1.6440  0.9200 -0.8384
 2916TIP3    H232944   3.462   2.683   9.471  1.9748 -0.9186  1.2639
 2917TIP3   OH232945   0.857   4.339   8.464  1.1515 -0.0251  0.3097
 2917TIP3    H132946   0.789   4.304   8.408  0.8168 -0.4250  0.9586
 2917TIP3    H232947   0.917   4.384   8.404  0.5540 -0.0413 -0.3061
 2918TIP3   OH232948   4.752   0.052   9.569 -0.1106  0.4154  0.7178
 2918TIP3    H132949   4.672   0.090   9.607  0.9801  2.3889  1.1781
 2918TIP3    H232950   4.801   0.128   9.536  1.8602 -0.6779  1.0024
 2919TIP3   OH232951   1.796   3.287   9.682 -0.2684 -0.0136 -0.3152
 2919TIP3    H132952   1.792   3.360   9.744  1.5277  0.7008 -0.9774
 2919TIP3    H232953   1.708   3.283   9.644 -0.8153  0.8330  0.7993
 2920TIP3   OH232954   0.415   3.015   8.039 -0.3921  0.3660 -0.3322
 2920TIP3    H132955   0.391   2.991   8.128 -1.9619 -0.3825 -0.9234
 2920TIP3    H232956   0.510   3.027   8.042 -0.5329  1.5004  1.6897
 2921TIP3   OH232957   2.300   3.074   7.519  0.3451  0.2072  0.9497
 2921TIP3    H132958   2.381   3.030   7.493 -0.3696 -1.1670  0.9712
 2921TIP3    H232959   2.230   3.015   7.491 -0.6304  1.0647  1.5061
 2922TIP3   OH232960   5.492   1.488   8.095  0.5811 -0.3618 -0.8029
 2922TIP3    H132961   5.561   1.446   8.145  0.2575 -0.8130 -0.7291
 2922TIP3    H232962   5.486   1.576   8.131  0.6271 -0.5529 -0.3292
 2923TIP3   OH232963   2.088   6.295   9.196 -0.1553  0.2750 -0.4125
 2923TIP3    H132964   2.045   6.239   9.132  0.9557 -1.9654  0.6983
 2923TIP3    H232965   2.074   6.250   9.280  3.5803 -0.1887  0.1123
 2924TIP3   OH232966   0.948   4.046   7.894 -0.3010  0.1687 -0.7241
 2924TIP3    H132967   0.986   4.016   7.811 -0.6185 -0.1482 -0.7568
 2924TIP3    H232968   1.006   4.118   7.922  1.7052 -1.7727  0.4047
 2925TIP3   OH232969   1.910   7.544   9.494  0.3469 -0.0279  0.1455
 2925TIP3    H132970   1.887   7.475   9.433  1.2267 -0.9133  0.7693
 2925TIP3    H232971   1.881   7.511   9.579 -0.1017  0.8098  0.3292
 2926TIP3   OH232972   0.031   7.095   8.464  0.0829  0.2899 -0.2085
 2926TIP3    H132973   0.112   7.111   8.512 -0.8614  0.9073  1.2540
 2926TIP3    H232974   0.023   6.999   8.463 -0.5067  0.2383  2.0906
 2927TIP3   OH232975   5.062   2.592   9.006  0.0612  0.2474  0.5658
 2927TIP3    H132976   5.016   2.654   9.063 -0.5687 -0.7071  1.1422
 2927TIP3    H232977   5.155   2.606   9.025 -0.1149 -1.8185  3.9540
 2928TIP3   OH232978   0.157   1.776   6.589 -0.3864  0.3215  0.1211
 2928TIP3    H132979   0.190   1.734   6.669 -0.2262  0.6092  0.2055
 2928TIP3    H232980   0.115   1.705   6.541 -0.1699  0.0754  0.2938
 2929TIP3   OH232981   3.606   4.267   8.692  0.2171 -0.7792  0.6299
 2929TIP3    H132982   3.588   4.317   8.772  1.6073 -0.8516  0.9987
 2929TIP3    H232983   3.520   4.235   8.665 -0.9046  2.4798 -0.0906
 2930TIP3   OH232984   0.170   6.791   9.555 -0.2022 -0.1873  0.2104
 2930TIP3    H132985   0.151   6.780   9.462 -0.4644  1.2179  0.0817
 2930TIP3    H232986   0.085   6.792   9.598 -0.0614 -1.3854  0.5512
 2931TIP3   OH232987   3.334   1.009   8.830 -0.2076  0.4137  0.0898
 2931TIP3    H132988   3.334   0.992   8.736 -0.7473 -1.6068  0.4129
 2931TIP3    H232989   3.426   1.030   8.850 -0.0724  0.7868 -0.8492
 2932TIP3   OH232990   5.926   2.291   8.347  0.3878 -0.3123 -0.4817
 2932TIP3    H132991   5.895   2.312   8.435  0.0889  1.7527 -1.0264
 2932TIP3    H232992   6.014   2.256   8.361  2.0392  3.6538  0.5319
 2933TIP3   OH232993   0.091   0.243   8.944 -0.4440  0.0495 -0.7124
 2933TIP3    H132994   0.160   0.209   8.888  1.0494  0.5533  0.7429
 2933TIP3    H232995   0.049   0.311   8.891  0.2469 -0.1704 -1.5748
 2934TIP3   OH232996   4.196   6.763   8.107  0.3540  0.4744 -0.2118
 2934TIP3    H132997   4.191   6.859   8.112  1.3806  0.5064  0.6329
 2934TIP3    H232998   4.152   6.734   8.187  2.3867  0.3676  0.9417
 2935TIP3   OH232999   0.377   7.484   7.524 -0.1793 -0.3256  0.7141
 2935TIP3    H133000   0.412   7.408   7.570 -1.1005 -0.1747  1.7038
 2935TIP3    H233001   0.383   7.555   7.588 -0.3263  0.1846  0.1654
 2936TIP3   OH233002   6.408   0.464   9.290  0.1553  0.1931 -0.3055
 2936TIP3    H133003   6.329   0.412   9.279  0.3893 -0.2265 -0.0178
 2936TIP3    H233004   6.378   0.555   9.284 -0.7605  0.1359  2.2123
 2937TIP3   OH233005   0.173   4.291   7.661 -0.2045  0.2334  0.0099
 2937TIP3    H133006   0.101   4.258   7.715 -0.4689  0.9263  0.0923
 2937TIP3    H233007   0.159   4.386   7.658 -0.3433  0.1814 -1.4983
 2938TIP3   OH233008   1.649   3.319   8.561  0.3961  0.3921  0.5492
 2938TIP3    H133009   1.720   3.298   8.622  0.9479  2.1621  0.5580
 2938TIP3    H233010   1.692   3.327   8.476 -0.1323 -0.5432  0.1784
 2939TIP3   OH233011   6.872   0.224   7.289  0.0783  0.1380 -0.2509
 2939TIP3    H133012   6.787   0.201   7.251  1.4478 -1.1427 -2.7761
 2939TIP3    H233013   6.915   0.277   7.222  1.7334 -0.2547  0.4440
 2940TIP3   OH233014   7.291   0.627   9.084  0.5317 -0.1215  0.5767
 2940TIP3    H133015   7.238   0.615   9.163 -1.3160  2.0619 -0.2217
 2940TIP3    H233016   7.299   0.722   9.075 -0.4163 -0.2269 -2.5094
 2941TIP3   OH233017   3.616   0.375   8.709 -0.5239  0.2426  0.5523
 2941TIP3    H133018   3.685   0.427   8.751  0.2443 -1.1651  1.1303
 2941TIP3    H233019   3.538   0.391   8.763  0.1259 -0.4960  1.7757
 2942TIP3   OH233020   2.315   0.945   8.658  0.1659  0.4081  0.4198
 2942TIP3    H133021   2.269   1.027   8.678 -0.4875  0.2750 -0.5210
 2942TIP3    H233022   2.403   0.974   8.632  0.1988  0.7462  0.8695
 2943TIP3   OH233023   4.566   6.111   7.151  0.1466 -0.4433  0.2844
 2943TIP3    H133024   4.625   6.170   7.199  0.7479 -0.6212 -0.2222
 2943TIP3    H233025   4.532   6.164   7.079  0.1276 -0.5104  0.2445
 2944TIP3   OH233026   5.806   0.638   6.905  0.8950  0.0851 -0.4932
 2944TIP3    H133027   5.763   0.598   6.829  1.3428 -0.0640 -0.6755
 2944TIP3    H233028   5.812   0.731   6.883 -0.0768  0.2504 -0.1034
 2945TIP3   OH233029   0.835   1.896   9.397  0.0537  0.2512 -0.0520
 2945TIP3    H133030   0.860   1.924   9.485  0.0271 -0.4220  0.1774
 2945TIP3    H233031   0.873   1.962   9.339  0.5570  0.3905  0.4278
 2946TIP3   OH233032   1.311   5.583   8.797  0.1568 -0.4973 -0.3737
 2946TIP3    H133033   1.358   5.622   8.723 -0.3727 -2.7166 -2.0006
 2946TIP3    H233034   1.371   5.517   8.831  0.1524  0.1019  0.8432
 2947TIP3   OH233035   3.434   2.257   7.483  0.0293  0.2001 -0.3561
 2947TIP3    H133036   3.507   2.215   7.527  0.4676  1.2234 -0.0805
 2947TIP3    H233037   3.361   2.196   7.494  1.0643 -1.3230 -1.5234
 2948TIP3   OH233038   6.677   4.234   8.776  0.3498  0.1790 -0.3923
 2948TIP3    H133039   6.709   4.290   8.846  0.9465 -0.2779 -0.2846
 2948TIP3    H233040   6.728   4.153   8.785 -1.3435 -0.8834  0.2379
 2949TIP3   OH233041   0.017   3.201   8.506  0.6969  0.2428 -0.4475
 2949TIP3    H133042  -0.071   3.232   8.486  0.0651 -0.5409  0.9685
 2949TIP3    H233043   0.005   3.140   8.580  2.7061  2.1623  1.6294
 2950TIP3   OH233044   4.875   4.690   8.252 -0.1683  0.0159 -0.9612
 2950TIP3    H133045   4.878   4.641   8.170 -0.6135  0.1644 -1.0712
 2950TIP3    H233046   4.784   4.720   8.258 -0.2825 -0.4585 -0.1442
 2951TIP3   OH233047   1.624   7.414   9.263  0.2305 -0.3496  0.1251
 2951TIP3    H133048   1.547   7.369   9.229 -1.6779  2.9075 -0.1821
 2951TIP3    H233049   1.632   7.493   9.209  3.9547 -0.6159  0.0289
 2952TIP3   OH233050   4.247   5.059   9.141 -0.5219 -0.5382  0.3255
 2952TIP3    H133051   4.173   5.006   9.112 -0.2296 -0.5929 -0.3331
 2952TIP3    H233052   4.312   5.049   9.072  0.0280 -0.3358  0.8078
 2953TIP3   OH233053   2.300   2.153   7.878  0.3870 -0.2522  0.1748
 2953TIP3    H133054   2.264   2.238   7.903 -2.1183 -1.4058  0.9087
 2953TIP3    H233055   2.253   2.130   7.798  0.5929 -1.1901  0.3116
 2954TIP3   OH233056   4.575   4.552   8.602  0.0219  0.3917 -0.7593
 2954TIP3    H133057   4.655   4.578   8.557 -0.1932 -0.2484 -1.5339
 2954TIP3    H233058   4.606   4.515   8.685  0.2763  4.8192  1.4254
 2955TIP3   OH233059   6.565   6.340   7.822  0.5073  0.3033  0.2413
 2955TIP3    H133060   6.533   6.306   7.738  1.4814 -1.5592  0.5579
 2955TIP3    H233061   6.489   6.384   7.860 -0.1687  0.5253 -1.2698
 2956TIP3   OH233062   7.322   6.150   7.663  0.1031  0.1294 -0.1360
 2956TIP3    H133063   7.332   6.240   7.695 -1.7784  0.4002 -0.2154
 2956TIP3    H233064   7.343   6.156   7.570 -0.9845  0.7329 -0.3700
 2957TIP3   OH233065   3.517   5.643   9.271 -0.5320  0.0084  0.0861
 2957TIP3    H133066   3.427   5.643   9.303 -0.1526 -0.3693  1.1947
 2957TIP3    H233067   3.541   5.736   9.267 -1.3575  0.1977 -1.4283
 2958TIP3   OH233068   5.857   1.317   8.625  0.6451 -0.6036 -0.4568
 2958TIP3    H133069   5.923   1.375   8.662  2.0885 -1.2991 -1.8271
 2958TIP3    H233070   5.784   1.375   8.604  1.1211  0.3235  0.3480
 2959TIP3   OH233071   5.163   0.746   9.534 -0.0526 -0.1238  0.4517
 2959TIP3    H133072   5.197   0.830   9.505  1.9416 -0.4914  1.5712
 2959TIP3    H233073   5.130   0.764   9.623 -2.2579  0.0505 -0.3204
 2960TIP3   OH233074   7.538   2.733   8.338  0.5174  0.7501 -0.3889
 2960TIP3    H133075   7.607   2.682   8.379  0.6481  2.0143  1.0766
 2960TIP3    H233076   7.579   2.818   8.319  0.1370  0.5791 -2.1555
 2961TIP3   OH233077   6.176   2.104   9.129  0.3199  0.1103  0.1980
 2961TIP3    H133078   6.194   2.091   9.036  0.0741 -0.1594  0.1884
 2961TIP3    H233079   6.127   2.026   9.155  1.3967 -0.3781  0.8239
 2962TIP3   OH233080   4.339   4.891   8.882 -0.6431  1.0106 -0.4315
 2962TIP3    H133081   4.381   4.825   8.937  0.6477  1.8633 -0.3562
 2962TIP3    H233082   4.330   4.848   8.797 -0.7509  0.4004 -0.1226
 2963TIP3   OH233083   2.374   3.538   7.196 -0.0287 -0.1650 -0.5362
 2963TIP3    H133084   2.308   3.593   7.155  1.2974  1.2037 -0.9405
 2963TIP3    H233085   2.455   3.560   7.150  0.7330 -1.7183  0.0007
 2964TIP3   OH233086   4.857   3.830   8.594  0.1535  0.0451 -0.0451
 2964TIP3    H133087   4.925   3.839   8.661 -0.0731 -1.1299  0.3603
 2964TIP3    H233088   4.906   3.806   8.515  0.2651 -0.2873  0.1211
 2965TIP3   OH233089   0.080   6.743   7.308  0.4751  0.2010  0.6062
 2965TIP3    H133090   0.038   6.798   7.242  0.6385 -1.7774 -1.2733
 2965TIP3    H233091   0.173   6.766   7.303  0.3035  0.9810  1.0723
 2966TIP3   OH233092   3.814   0.458   8.067  0.2514 -0.1530  0.3923
 2966TIP3    H133093   3.734   0.511   8.063  0.1323 -0.3814 -0.5959
 2966TIP3    H233094   3.857   0.486   8.148  0.4907  1.8954 -0.3828
 2967TIP3   OH233095   2.756   3.208   9.347  0.5412 -0.2605  0.0886
 2967TIP3    H133096   2.794   3.191   9.261  0.0853 -0.9788  0.0249
 2967TIP3    H233097   2.666   3.236   9.329  0.4290 -0.4612  0.3315
 2968TIP3   OH233098   5.499   3.078   8.704 -0.0945  0.1219 -0.4389
 2968TIP3    H133099   5.435   3.140   8.738 -1.3165 -1.8286  1.0146
 2968TIP3    H233100   5.576   3.091   8.759 -0.1743  0.6374 -0.4396
 2969TIP3   OH233101   3.790   7.141   9.352  0.2804  0.1260 -0.0610
 2969TIP3    H133102   3.843   7.106   9.281 -0.0687 -0.4757 -0.0287
 2969TIP3    H233103   3.850   7.149   9.426  0.0909 -1.6301  0.3184
 2970TIP3   OH233104   0.547   5.175   9.509 -0.2142 -0.2163  0.1335
 2970TIP3    H133105   0.593   5.136   9.435  0.8215  0.7287  0.2490
 2970TIP3    H233106   0.565   5.269   9.501 -2.6979  0.3130 -0.2159
 2971TIP3   OH233107   3.910   6.411   9.305  0.6261  0.3679 -0.1692
 2971TIP3    H133108   3.914   6.507   9.300 -1.1128  0.4396 -0.7253
 2971TIP3    H233109   3.869   6.384   9.222  1.0931 -0.8663 -0.0206
 2972TIP3   OH233110   5.337   5.411   9.664 -0.1475 -0.4665 -0.1686
 2972TIP3    H133111   5.285   5.383   9.589 -0.3497  1.1013 -0.6398
 2972TIP3    H233112   5.314   5.503   9.677  1.5225 -0.0982  0.4447
 2973TIP3   OH233113   3.182   7.004   6.811 -0.1129 -0.4373  0.1193
 2973TIP3    H133114   3.138   6.966   6.887  0.1809 -1.1705 -0.0751
 2973TIP3    H233115   3.198   7.095   6.836 -0.9375 -0.3904  0.5391
 2974TIP3   OH233116   3.343   3.222   8.171 -0.7773 -0.0711 -0.0185
 2974TIP3    H133117   3.260   3.257   8.139  0.0361  0.8760 -1.2164
 2974TIP3    H233118   3.408   3.251   8.106  0.2453 -2.2444 -0.0682
 2975TIP3   OH233119   6.785   6.076   9.114 -0.5907  0.3108  0.3958
 2975TIP3    H133120   6.846   6.030   9.056 -1.5045 -1.9614  1.1040
 2975TIP3    H233121   6.841   6.121   9.177  0.4186 -1.2956  0.7183
 2976TIP3   OH233122   4.931   2.469   7.008  0.1658 -0.4129  0.1618
 2976TIP3    H133123   4.920   2.489   7.101 -0.8062  0.2062 -0.0806
 2976TIP3    H233124   5.009   2.519   6.981 -2.1913  3.3142 -0.4445
 2977TIP3   OH233125   1.105   3.345   8.573  0.1738 -0.1116 -0.2251
 2977TIP3    H133126   1.120   3.259   8.534 -1.8836 -1.6019  1.9696
 2977TIP3    H233127   1.192   3.372   8.605  0.5731 -2.3580  0.8119
 2978TIP3   OH233128   2.958   2.452   8.384  0.0583  0.5658 -0.1769
 2978TIP3    H133129   2.914   2.511   8.445  0.0825  1.6372 -1.1813
 2978TIP3    H233130   2.918   2.470   8.299  2.4257  1.6502 -1.1651
 2979TIP3   OH233131   2.741   2.201   8.962  0.3439 -0.1596  0.2808
 2979TIP3    H133132   2.725   2.286   9.004 -2.6949  0.3862 -1.6417
 2979TIP3    H233133   2.667   2.147   8.988  0.5043 -1.1132 -1.1408
 2980TIP3   OH233134   3.313   0.421   9.388  0.0575  0.2308 -0.1361
 2980TIP3    H133135   3.325   0.339   9.341 -0.2983  0.3566 -0.4559
 2980TIP3    H233136   3.276   0.480   9.323  1.0147  0.8748 -0.1176
 2981TIP3   OH233137   4.222   4.464   6.973  0.1680 -1.0499 -0.0542
 2981TIP3    H133138   4.231   4.462   6.878  0.0889 -0.3415 -0.0886
 2981TIP3    H233139   4.132   4.437   6.990  0.0074 -0.6402 -0.2254
 2982TIP3   OH233140   6.916   2.678   7.886 -0.0774 -0.5825 -0.2526
 2982TIP3    H133141   6.981   2.666   7.954 -0.5623 -0.0696  0.3143
 2982TIP3    H233142   6.965   2.670   7.804  0.5785 -0.8180  0.1552
 2983TIP3   OH233143   0.561   3.415   8.974 -0.3525 -0.3549  0.2138
 2983TIP3    H133144   0.585   3.331   8.935  1.6042 -0.9170  2.3700
 2983TIP3    H233145   0.577   3.480   8.905 -0.3103 -1.5746 -0.9558
 2984TIP3   OH233146   4.984   7.011   8.342 -0.1117  0.1632 -0.1585
 2984TIP3    H133147   5.036   7.064   8.281 -0.2533 -0.3057 -0.6988
 2984TIP3    H233148   4.900   7.057   8.349  0.3386  0.8797  0.6568
 2985TIP3   OH233149   4.340   0.348   9.513 -0.2870  0.5082 -0.1555
 2985TIP3    H133150   4.341   0.370   9.420 -1.6319 -2.7852 -1.0732
 2985TIP3    H233151   4.262   0.392   9.547 -0.6193  0.5430 -0.9369
 2986TIP3   OH233152   7.427   2.211   8.253  0.3014  0.4134 -0.1600
 2986TIP3    H133153   7.482   2.285   8.226 -1.3275  1.7064 -0.0967
 2986TIP3    H233154   7.423   2.218   8.348 -1.8860  1.8321 -0.2973
 2987TIP3   OH233155   3.307   6.852   6.633 -0.4375 -0.0673 -0.5034
 2987TIP3    H133156   3.253   6.900   6.696 -1.0451  1.1153 -1.8494
 2987TIP3    H233157   3.290   6.896   6.550  3.3932  1.0980 -0.8697
 2988TIP3   OH233158   4.102   5.447   8.450 -0.7725  0.2366  0.5307
 2988TIP3    H133159   4.123   5.526   8.401  0.4390 -0.4389 -0.0846
 2988TIP3    H233160   4.061   5.479   8.530 -0.5000  1.4808  0.1940
 2989TIP3   OH233161   3.044   5.449   7.960 -0.7584  0.1629 -0.3274
 2989TIP3    H133162   3.129   5.492   7.968 -1.0403  0.5586  0.6218
 2989TIP3    H233163   3.013   5.439   8.050 -0.2575 -2.9602 -0.3890
 2990TIP3   OH233164   0.889   7.493   8.815 -0.3265 -0.2928 -0.5680
 2990TIP3    H133165   0.825   7.510   8.745 -3.0690 -3.1518  1.0089
 2990TIP3    H233166   0.836   7.476   8.892  2.5025 -0.6246  1.4391
 2991TIP3   OH233167   3.037   1.815   8.304 -0.6795 -0.0936 -0.2548
 2991TIP3    H133168   2.990   1.743   8.346 -2.8016  1.5014  0.2478
 2991TIP3    H233169   3.049   1.880   8.373 -2.5670  1.7941 -1.5805
 2992TIP3   OH233170   0.924   2.585   7.525  0.6106  0.3921 -0.4701
 2992TIP3    H133171   0.996   2.543   7.479 -0.3451  0.7399 -2.3805
 2992TIP3    H233172   0.941   2.679   7.517 -0.0347  0.4759 -0.9019
 2993TIP3   OH233173   1.239   3.715   9.845 -0.7787 -0.3546  0.4476
 2993TIP3    H133174   1.241   3.625   9.877 -0.6532 -0.5522 -0.0957
 2993TIP3    H233175   1.162   3.718   9.788 -0.1889 -0.4103 -0.3600
 2994TIP3   OH233176   4.777   5.489   9.000  0.1658 -0.1092 -0.0290
 2994TIP3    H133177   4.706   5.424   9.000 -0.5792  0.6863 -0.0026
 2994TIP3    H233178   4.757   5.545   8.925  2.8342 -2.0479 -2.4325
 2995TIP3   OH233179   1.801   7.338   9.815  0.4716  0.1222  0.2104
 2995TIP3    H133180   1.712   7.303   9.820  0.5508  0.0389  1.2781
 2995TIP3    H233181   1.853   7.266   9.778  0.6231 -0.9262  2.3225
 2996TIP3   OH233182   1.000   5.116   8.703  0.4042  0.0751 -0.2333
 2996TIP3    H133183   1.089   5.101   8.736 -0.5174  0.2476  2.6770
 2996TIP3    H233184   0.954   5.033   8.718 -0.1024  0.1895 -1.0934
 2997TIP3   OH233185   0.610   7.109   8.136  0.1278  0.5486 -0.2233
 2997TIP3    H133186   0.648   7.189   8.173  0.4060  1.2349 -1.8925
 2997TIP3    H233187   0.685   7.059   8.105 -0.0202 -0.5867  1.2008
 2998TIP3   OH233188   7.059   3.110   8.767 -0.3580  0.2033  0.6548
 2998TIP3    H133189   7.153   3.125   8.758 -0.2471 -0.4068  0.7305
 2998TIP3    H233190   7.018   3.186   8.726  0.1453 -0.7429 -1.7293
 2999TIP3   OH233191   7.431   5.346   8.995 -0.2300  0.4000  0.2904
 2999TIP3    H133192   7.371   5.392   9.054 -1.4925  1.6096 -1.8185
 2999TIP3    H233193   7.449   5.410   8.926  1.7787 -0.7139 -0.2784
 3000TIP3   OH233194   1.324   4.115   7.795 -0.1486 -0.1647  0.1698
 3000TIP3    H133195   1.262   4.078   7.732  0.9160 -0.2116 -0.8989
 3000TIP3    H233196   1.294   4.204   7.809 -2.1496 -1.0360  1.9821
 3001TIP3   OH233197   6.216   4.379   7.079  0.4207  0.9104 -0.0833
 3001TIP3    H133198   6.212   4.354   6.987  1.2376  1.3163 -0.2426
 3001TIP3    H233199   6.310   4.379   7.099  0.1820 -1.5014  1.4112
 3002TIP3   OH233200   6.373   6.603   8.799  0.2216 -0.0131  0.3977
 3002TIP3    H133201   6.420   6.558   8.869  0.8361 -0.7593 -0.4809
 3002TIP3    H233202   6.425   6.681   8.781 -0.2819  0.5249  1.1948
 3003TIP3   OH233203   2.089   6.949   7.545 -1.1019 -0.3572  0.3042
 3003TIP3    H133204   2.070   6.933   7.637 -2.1599 -0.1298  0.1325
 3003TIP3    H233205   2.091   7.045   7.538 -0.6558 -0.3725  0.1525
 3004TIP3   OH233206   5.682   4.464   7.339  1.0602 -0.0816  0.0769
 3004TIP3    H133207   5.735   4.386   7.322  0.3573 -0.7112  0.7091
 3004TIP3    H233208   5.719   4.531   7.281  1.0002 -1.1693 -1.2833
 3005TIP3   OH233209   2.328   2.342   8.551  0.1655  0.3753  0.0920
 3005TIP3    H133210   2.407   2.290   8.535 -0.4953 -0.1427 -1.8327
 3005TIP3    H233211   2.258   2.277   8.559 -0.5781  0.8952 -1.7221
 3006TIP3   OH233212   0.598   4.532   8.383 -0.5452  0.3285  0.3273
 3006TIP3    H133213   0.624   4.595   8.450 -1.2445  0.6948  0.2608
 3006TIP3    H233214   0.629   4.570   8.301 -0.1803  0.1513  0.3833
 3007TIP3   OH233215   0.136   4.649   6.841 -0.3764  0.3479 -0.0311
 3007TIP3    H133216   0.127   4.560   6.806 -0.4168  0.1927  0.3656
 3007TIP3    H233217   0.212   4.645   6.898  0.4848  0.9290 -1.1040
 3008TIP3   OH233218   1.088   6.351   9.442  0.0093  0.4800  0.4101
 3008TIP3    H133219   1.080   6.258   9.462 -3.6478  0.1291 -1.7393
 3008TIP3    H233220   1.101   6.354   9.347  0.5820  2.1835  0.5073
 3009TIP3   OH233221   6.951   7.337   8.220  0.2407  0.0947  0.7753
 3009TIP3    H133222   7.022   7.282   8.254  0.6857  0.4915  0.5040
 3009TIP3    H233223   6.993   7.389   8.152 -0.7129 -1.0033 -0.7222
 3010TIP3   OH233224   2.396   5.700   8.638 -0.4370  0.7120  0.1768
 3010TIP3    H133225   2.302   5.706   8.656 -0.5631  1.6650 -0.7199
 3010TIP3    H233226   2.437   5.750   8.709 -0.6056  0.5056  0.4257
 3011TIP3   OH233227   3.997   7.030   9.491  0.0934  0.1179 -0.7735
 3011TIP3    H133228   3.962   6.942   9.506 -0.5128  0.5210  0.2853
 3011TIP3    H233229   4.092   7.016   9.484 -0.0859 -0.7469 -1.7388
 3012TIP3   OH233230   1.943   6.479   8.797 -0.2112  0.7124  0.2769
 3012TIP3    H133231   1.925   6.448   8.886 -2.3396  0.2608 -0.2349
 3012TIP3    H233232   1.919   6.572   8.799  0.3038  0.8431  0.3224
 3013TIP3   OH233233   3.835   7.399   7.698  0.0497 -0.4973  0.0813
 3013TIP3    H133234   3.870   7.319   7.659 -0.6644 -0.4247 -0.7327
 3013TIP3    H233235   3.852   7.467   7.632  1.9932  0.3677  1.3547
 3014TIP3   OH233236   1.384   5.841   8.187  0.0170 -0.1545 -0.3553
 3014TIP3    H133237   1.293   5.869   8.195  0.1845  0.6192 -1.0784
 3014TIP3    H233238   1.432   5.901   8.244 -0.0294 -1.2288  0.8655
 3015TIP3   OH233239   7.219   2.926   8.582  0.0482 -0.1317 -0.1890
 3015TIP3    H133240   7.132   2.896   8.611  0.7595 -1.6779  0.4671
 3015TIP3    H233241   7.200   2.986   8.510 -1.7796  3.2431  2.7508
 3016TIP3   OH233242   4.233   4.694   7.133  0.1810  0.9255  0.1441
 3016TIP3    H133243   4.218   4.611   7.089  0.1176  0.7303  0.5223
 3016TIP3    H233244   4.170   4.694   7.205  1.3540  0.5013  1.2133
 3017TIP3   OH233245   7.074   6.526   8.875  0.3027  0.3722 -0.3978
 3017TIP3    H133246   7.064   6.618   8.896  1.3592  0.3993  0.0592
 3017TIP3    H233247   7.064   6.522   8.780 -1.9828  0.6102 -0.2216
 3018TIP3   OH233248   3.732   1.116   8.270  0.0753  0.5312 -0.4347
 3018TIP3    H133249   3.656   1.067   8.303  0.5065  0.9573  1.2405
 3018TIP3    H233250   3.744   1.187   8.332  1.3886  0.9383 -1.1209
 3019TIP3   OH233251   7.279   0.256   9.155  0.3734  0.2724  0.0968
 3019TIP3    H133252   7.334   0.317   9.203  1.0300 -1.4090  1.6122
 3019TIP3    H233253   7.195   0.258   9.201  1.1678 -1.7475  1.8433
 3020TIP3   OH233254   5.033   3.483   8.798 -0.8346 -0.1354  0.0695
 3020TIP3    H133255   4.952   3.501   8.846 -2.1636 -0.1027 -2.0876
 3020TIP3    H233256   5.027   3.390   8.775 -0.9892  0.1948 -1.3200
 3021TIP3   OH233257   1.938   1.673   8.316  0.3333 -0.8959 -0.1094
 3021TIP3    H133258   1.872   1.626   8.367  0.5229  1.6266  2.7133
 3021TIP3    H233259   2.018   1.623   8.328  0.7441  0.3494  3.5874
 3022TIP3   OH233260   6.743   0.312   7.971 -0.6417  0.0062 -0.4183
 3022TIP3    H133261   6.732   0.279   7.882 -1.5145 -0.0734 -0.2851
 3022TIP3    H233262   6.725   0.406   7.964 -2.6640 -0.3088  0.0020
 3023TIP3   OH233263   4.528   3.293   8.863 -0.1867  0.0318  0.0772
 3023TIP3    H133264   4.551   3.200   8.859 -0.1346 -0.0583  1.9106
 3023TIP3    H233265   4.452   3.301   8.805 -1.8624 -1.7075  1.9125
 3024TIP3   OH233266   1.294   6.818   8.131  0.0611 -0.1788 -0.3210
 3024TIP3    H133267   1.297   6.748   8.065 -0.0282  0.5531 -1.1157
 3024TIP3    H233268   1.384   6.851   8.134 -0.2902  0.9147 -1.3238
 3025TIP3   OH233269   3.498   1.685   9.819 -0.2915 -0.4128 -0.1389
 3025TIP3    H133270   3.433   1.616   9.837 -0.7154 -0.8312 -2.9311
 3025TIP3    H233271   3.574   1.639   9.786  0.4722  0.2961  0.5763
 3026TIP3   OH233272   5.451   3.139   8.328 -0.1132 -0.2982 -0.3582
 3026TIP3    H133273   5.364   3.101   8.333 -0.5930  0.7883 -0.0977
 3026TIP3    H233274   5.455   3.176   8.239  0.5832 -1.4541 -0.8378
 3027TIP3   OH233275   6.839   6.911   8.009  0.2908 -0.1585  0.3840
 3027TIP3    H133276   6.838   6.835   7.952 -1.3108  0.4997 -0.5458
 3027TIP3    H233277   6.861   6.877   8.095 -1.8138 -1.9608  0.3113
 3028TIP3   OH233278   6.007   3.708   8.402  0.0677 -0.0586  0.0662
 3028TIP3    H133279   5.960   3.790   8.419 -1.5258 -0.9810  0.3178
 3028TIP3    H233280   5.939   3.649   8.367  0.8212 -1.7731  1.3978
 3029TIP3   OH233281   7.175   7.225   9.066 -0.2871  0.0329 -0.2127
 3029TIP3    H133282   7.128   7.157   9.114  1.2055 -1.8280 -1.2459
 3029TIP3    H233283   7.225   7.271   9.133  0.1603 -1.1600  0.3044
 3030TIP3   OH233284   2.062   0.873   9.310  0.0521  0.2581 -0.3981
 3030TIP3    H133285   2.082   0.917   9.228 -1.1530  0.5219 -0.5581
 3030TIP3    H233286   2.034   0.943   9.369  0.4628  0.0113  0.1056
 3031TIP3   OH233287   6.931   3.521   8.334 -0.2413  0.1089 -0.6954
 3031TIP3    H133288   6.944   3.498   8.242 -0.8933 -0.2529 -0.7005
 3031TIP3    H233289   6.836   3.515   8.347 -0.2067  0.6831 -0.1370
 3032TIP3   OH233290   0.270   3.824   8.512  0.2648 -0.7970  0.0998
 3032TIP3    H133291   0.311   3.850   8.595 -0.4933  0.1982  0.1724
 3032TIP3    H233292   0.339   3.776   8.466  1.6957  1.1953  0.0406
 3033TIP3   OH233293   0.146   7.360   7.404  0.1788 -0.2076  0.2473
 3033TIP3    H133294   0.220   7.404   7.446  0.2033 -0.0767  0.0672
 3033TIP3    H233295   0.173   7.350   7.313  0.0964 -0.4276  0.2466
 3034TIP3   OH233296   7.309   1.451   9.153 -0.3292 -0.4855 -0.1575
 3034TIP3    H133297   7.289   1.387   9.221 -0.7371  0.3871  0.5822
 3034TIP3    H233298   7.228   1.458   9.102 -0.5847  0.0493  0.2999
 3035TIP3   OH233299   3.736   6.964   8.433  0.1534  0.2683  0.0249
 3035TIP3    H133300   3.653   6.979   8.478 -0.8870  0.9084 -1.9933
 3035TIP3    H233301   3.797   7.027   8.472 -0.3959  0.0547  1.2565
 3036TIP3   OH233302   2.274   6.680   6.746  0.5566  0.6186 -0.5599
 3036TIP3    H133303   2.203   6.616   6.758  0.6272  0.5971 -0.2526
 3036TIP3    H233304   2.243   6.758   6.791  1.1994  0.2595  0.5365
 3037TIP3   OH233305   5.255   5.273   7.110 -0.1305 -0.3789  0.3122
 3037TIP3    H133306   5.313   5.252   7.037 -0.1866 -1.6028  0.5998
 3037TIP3    H233307   5.168   5.246   7.080  0.2609 -4.0607  1.9519
 3038TIP3   OH233308   3.863   4.806   9.500 -0.2812 -0.0632  0.1596
 3038TIP3    H133309   3.826   4.757   9.427 -2.1014  2.7635 -1.0115
 3038TIP3    H233310   3.804   4.788   9.574  0.2940 -1.2224  0.3528
 3039TIP3   OH233311   3.130   1.416   9.214 -0.5494 -0.1273  0.6230
 3039TIP3    H133312   3.038   1.390   9.209 -1.0580  1.6898 -0.4775
 3039TIP3    H233313   3.128   1.502   9.257  0.4035  0.8004 -1.0738
 3040TIP3   OH233314   6.802   5.624   8.684  0.7885 -0.3076  0.0329
 3040TIP3    H133315   6.818   5.557   8.751  1.5639  0.8431  1.0416
 3040TIP3    H233316   6.713   5.653   8.700  0.7645 -0.4566  0.1826
 3041TIP3   OH233317   1.516   4.737   7.312 -0.4601 -0.2266 -0.2989
 3041TIP3    H133318   1.466   4.678   7.256 -2.1386 -0.0827  0.9579
 3041TIP3    H233319   1.471   4.821   7.305 -1.3997 -0.4534  1.9917
 3042TIP3   OH233320   3.367   4.940   7.584 -0.0432 -0.2065  0.0245
 3042TIP3    H133321   3.312   5.014   7.560  3.1624  2.0748 -0.9480
 3042TIP3    H233322   3.389   4.956   7.676 -0.7380 -0.9916  0.3442
 3043TIP3   OH233323   7.170   4.214   8.090 -0.0479  0.3282  0.3748
 3043TIP3    H133324   7.245   4.274   8.097  0.0001  0.4258 -0.8224
 3043TIP3    H233325   7.189   4.145   8.153  1.6292 -0.2581 -0.7162
 3044TIP3   OH233326   6.067   7.172   8.695  0.3720  0.5053 -0.4421
 3044TIP3    H133327   6.018   7.167   8.613  0.6120 -1.7059 -0.5298
 3044TIP3    H233328   6.008   7.217   8.755 -0.7450  0.1562 -1.2290
 3045TIP3   OH233329   6.956   0.341   8.517 -0.3149 -0.7014  0.7110
 3045TIP3    H133330   6.952   0.251   8.548 -1.9258 -1.1338 -0.6373
 3045TIP3    H233331   6.868   0.375   8.529  0.1396  0.5260  0.7094
 3046TIP3   OH233332   0.815   6.229   7.776 -0.6539  0.5259 -0.7425
 3046TIP3    H133333   0.831   6.303   7.718  1.9321  1.4949  1.0245
 3046TIP3    H233334   0.855   6.154   7.731 -0.1124  0.9324 -0.9468
 3047TIP3   OH233335   2.985   7.250   8.444 -0.2836 -0.3397  0.3585
 3047TIP3    H133336   3.022   7.328   8.485 -0.6864  0.4660 -0.7695
 3047TIP3    H233337   3.051   7.224   8.379  0.7158 -2.0621  1.9338
 3048TIP3   OH233338   3.729   0.191   8.001 -0.3675 -0.0522 -0.2889
 3048TIP3    H133339   3.640   0.212   7.972 -0.6578  0.8037  1.0774
 3048TIP3    H233340   3.768   0.277   8.020  0.3702 -0.4751  0.1493
 3049TIP3   OH233341   0.292   5.610   8.830 -0.3744  0.0356  0.3897
 3049TIP3    H133342   0.241   5.679   8.872 -0.3346 -0.2655  0.9463
 3049TIP3    H233343   0.235   5.533   8.831 -0.4545  0.0789 -0.3130
 3050TIP3   OH233344   5.753   0.654   8.487 -0.1612  0.1425 -0.0457
 3050TIP3    H133345   5.788   0.630   8.573  1.2247 -0.2256 -0.6913
 3050TIP3    H233346   5.659   0.637   8.494 -0.2982  1.2996  1.7979
 3051TIP3   OH233347   2.447   5.717   8.230 -0.0392 -0.0433 -0.6488
 3051TIP3    H133348   2.397   5.670   8.297  0.2063  0.8018  0.1512
 3051TIP3    H233349   2.422   5.676   8.148 -4.3600  2.1866 -0.7256
 3052TIP3   OH233350   1.068   2.912   7.100 -0.1714  0.6989 -0.4259
 3052TIP3    H133351   1.045   2.846   7.035 -1.5690  0.6595  0.0784
 3052TIP3    H233352   1.059   2.996   7.053  0.1052  0.6148 -0.6338
 3053TIP3   OH233353   0.928   5.058   7.895  0.0113  0.4691 -0.3486
 3053TIP3    H133354   0.855   5.022   7.844  0.4476 -1.9210  0.5932
 3053TIP3    H233355   0.982   5.103   7.830 -1.2095  0.5090 -1.3957
 3054TIP3   OH233356   5.006   2.621   7.754  0.0817  0.1987 -0.4140
 3054TIP3    H133357   5.049   2.634   7.669  1.0645  1.5683  0.2677
 3054TIP3    H233358   5.062   2.557   7.799 -0.1450 -0.1196 -0.5753
 3055TIP3   OH233359   6.136   4.596   9.063 -0.0306  0.2450  0.1204
 3055TIP3    H133360   6.201   4.664   9.082  0.0552 -0.3123  1.9293
 3055TIP3    H233361   6.097   4.575   9.147 -0.5878 -1.4309 -0.5092
 3056TIP3   OH233362   5.369   5.492   7.712 -0.1328 -0.0099  0.1605
 3056TIP3    H133363   5.294   5.461   7.661  1.0386 -0.1582 -1.5500
 3056TIP3    H233364   5.441   5.436   7.684  0.9712  1.1651  0.5934
 3057TIP3   OH233365   6.863   2.251   9.252 -0.6720 -0.2376 -0.0932
 3057TIP3    H133366   6.812   2.170   9.254  1.2418 -1.5043 -0.6283
 3057TIP3    H233367   6.944   2.231   9.298 -1.0322  2.0781  1.7507
 3058TIP3   OH233368   2.080   4.467   8.114  0.1843  0.0580 -0.0655
 3058TIP3    H133369   2.086   4.535   8.182 -0.4705 -0.8686  0.9504
 3058TIP3    H233370   2.063   4.386   8.162 -0.7159 -0.5652 -1.3624
 3059TIP3   OH233371   4.615   5.023   9.386  0.1181 -0.3053 -0.7560
 3059TIP3    H133372   4.664   5.084   9.330 -0.1340  1.0044  0.4027
 3059TIP3    H233373   4.537   5.071   9.411 -0.6852 -1.5601 -0.7583
 3060TIP3   OH233374   5.002   5.642   7.505  0.2978  0.1845  0.1816
 3060TIP3    H133375   5.009   5.736   7.489  2.7729 -0.2278 -1.8414
 3060TIP3    H233376   4.999   5.603   7.417  0.1129 -1.6628  0.9687
 3061TIP3   OH233377   0.973   0.535   6.981  0.9379  0.2315 -0.4389
 3061TIP3    H133378   0.950   0.538   7.074 -0.5003 -3.1294 -0.5294
 3061TIP3    H233379   0.889   0.533   6.935  1.6070  2.8658 -2.0012
 3062TIP3   OH233380   6.584   3.372   7.677  0.5959 -0.5376 -0.2981
 3062TIP3    H133381   6.663   3.398   7.628 -0.0620  0.2683 -0.9657
 3062TIP3    H233382   6.587   3.276   7.677  1.2960 -0.5296 -0.7812
 3063TIP3   OH233383   1.745   0.155   8.971 -0.7733  0.8438 -0.0671
 3063TIP3    H133384   1.787   0.227   8.923 -0.0887  1.3298  1.2322
 3063TIP3    H233385   1.787   0.076   8.937  0.1361  1.2214  0.1493
 3064TIP3   OH233386   1.542   3.821   9.219  0.0163  0.0839  0.1212
 3064TIP3    H133387   1.631   3.786   9.217  0.0313  0.0068  1.3078
 3064TIP3    H233388   1.487   3.747   9.192  0.1707 -0.4695  1.2345
 3065TIP3   OH233389   3.138   3.088   9.139  0.4055 -0.5100  0.1612
 3065TIP3    H133390   3.229   3.074   9.114 -0.1792 -2.0810 -1.2650
 3065TIP3    H233391   3.097   3.002   9.128 -2.2107  0.9470 -3.5902
 3066TIP3   OH233392   0.974   1.199   8.773  0.3194  0.1715  0.1323
 3066TIP3    H133393   0.903   1.254   8.807  1.1398  0.7893  0.8939
 3066TIP3    H233394   0.932   1.116   8.751 -0.7179  0.6865  0.1375
 3067TIP3   OH233395   4.828   1.415   7.683  0.3517  0.2945 -0.5989
 3067TIP3    H133396   4.869   1.362   7.615  1.6522 -0.6674  0.8675
 3067TIP3    H233397   4.765   1.356   7.724 -1.2929  1.2349 -1.6967
 3068TIP3   OH233398   1.129   5.802   9.044  0.0433  0.2299  0.5641
 3068TIP3    H133399   1.117   5.812   9.138 -1.5315 -0.5721  0.4820
 3068TIP3    H233400   1.192   5.870   9.020  1.1439 -0.1296  2.3205
 3069TIP3   OH233401   6.821   6.663   7.871 -0.0947  0.9846  0.3407
 3069TIP3    H133402   6.830   6.576   7.910  1.6006  0.4853 -1.0499
 3069TIP3    H233403   6.743   6.656   7.815 -1.7333  1.3074  2.4428
 3070TIP3   OH233404   7.538   2.723   9.372  0.1370  0.7918  0.0957
 3070TIP3    H133405   7.517   2.686   9.457  1.4095  0.0568  0.1096
 3070TIP3    H233406   7.535   2.818   9.385 -2.2580  0.7526  0.2816
 3071TIP3   OH233407   1.225   2.080   9.609 -0.2156 -0.2163  0.2098
 3071TIP3    H133408   1.134   2.059   9.631 -0.3671  0.3823  0.1709
 3071TIP3    H233409   1.219   2.124   9.524  0.1195 -0.2500  0.1693
 3072TIP3   OH233410   3.920   2.771   8.091  0.4919 -0.0744  0.1522
 3072TIP3    H133411   3.874   2.688   8.106  1.8235 -0.5602  1.8701
 3072TIP3    H233412   3.988   2.749   8.026 -0.2993  0.1497 -0.7855
 3073TIP3   OH233413   6.073   5.548   7.103 -0.7702  0.2616  0.1553
 3073TIP3    H133414   6.005   5.610   7.075  1.0914  2.1750 -0.3845
 3073TIP3    H233415   6.035   5.503   7.178 -2.6788  1.1697 -0.2101
 3074TIP3   OH233416   4.645   0.704   7.772  0.2018 -1.0132 -0.2995
 3074TIP3    H133417   4.680   0.777   7.721 -0.7235  0.4808  1.0964
 3074TIP3    H233418   4.554   0.697   7.745 -0.5386  0.3297  1.5719
 3075TIP3   OH233419   1.283   3.913   8.413 -0.2108 -0.0461 -0.2993
 3075TIP3    H133420   1.204   3.963   8.435  0.3976  1.4767 -1.3984
 3075TIP3    H233421   1.306   3.868   8.494 -1.5622  0.3792  0.3544
 3076TIP3   OH233422   0.523   6.802   8.743 -0.4846  0.6413 -0.3431
 3076TIP3    H133423   0.510   6.814   8.837  0.5428 -0.0672 -0.0888
 3076TIP3    H233424   0.460   6.735   8.718 -0.2338  0.2701  0.0070
 3077TIP3   OH233425   5.153   3.553   6.936  0.2868 -0.2402  1.1572
 3077TIP3    H133426   5.125   3.632   6.983  0.3566 -0.8317  2.2264
 3077TIP3    H233427   5.071   3.509   6.912  0.2530 -0.0138  0.8502
 3078TIP3   OH233428   1.569   6.581   8.027  0.1627 -0.0569  0.5239
 3078TIP3    H133429   1.519   6.553   8.104  0.0103  0.2657  0.5453
 3078TIP3    H233430   1.595   6.671   8.047 -0.2194  0.1707  0.0285
 3079TIP3   OH233431   5.056   6.471   8.647  0.1626 -0.1518  0.2224
 3079TIP3    H133432   5.098   6.501   8.728  2.3912 -0.8663 -0.5962
 3079TIP3    H233433   4.973   6.434   8.675  0.7319 -0.0744  2.1378
 3080TIP3   OH233434   2.005   3.649   6.941 -0.3408 -0.4492 -0.3659
 3080TIP3    H133435   2.087   3.692   6.964 -0.2009 -0.3824 -0.9742
 3080TIP3    H233436   2.031   3.573   6.890 -0.6788 -0.0227 -1.2037
 3081TIP3   OH233437   5.578   1.268   9.188 -0.0600  0.3345  0.0031
 3081TIP3    H133438   5.484   1.262   9.204 -0.1969  0.2281 -0.7985
 3081TIP3    H233439   5.586   1.325   9.111  0.5453  0.5530  0.2209
 3082TIP3   OH233440   5.453   3.170   8.051 -0.2487 -0.2430 -0.0744
 3082TIP3    H133441   5.492   3.120   7.980  0.3426 -2.3051  1.6197
 3082TIP3    H233442   5.359   3.150   8.045 -0.2638 -0.0443 -0.5378
 3083TIP3   OH233443   5.670   0.378   8.727  0.2023 -0.1270  0.0919
 3083TIP3    H133444   5.684   0.355   8.636 -1.2258 -0.0319 -0.1827
 3083TIP3    H233445   5.717   0.461   8.739 -0.9304  0.7291 -1.0378
 3084TIP3   OH233446   2.632   5.137   8.374  0.0759  0.0507 -0.0725
 3084TIP3    H133447   2.711   5.187   8.354  0.0820 -0.5621 -1.6926
 3084TIP3    H233448   2.630   5.067   8.309 -1.1226 -0.7290  0.7518
 3085TIP3   OH233449   5.157   0.125   8.886  0.2727  0.1952  1.0445
 3085TIP3    H133450   5.212   0.195   8.923  0.8270  0.4974 -0.2764
 3085TIP3    H233451   5.215   0.049   8.881  0.2422  0.1928  0.7008
 3086TIP3   OH233452   1.928   7.381   7.408  0.1946  0.0852  0.1294
 3086TIP3    H133453   1.984   7.335   7.345  1.3360  0.7320  0.6431
 3086TIP3    H233454   1.855   7.414   7.355 -0.2846 -1.6713 -0.3653
 3087TIP3   OH233455   7.052   5.720   8.642 -0.5116 -0.6839 -0.2580
 3087TIP3    H133456   7.018   5.763   8.721 -1.8553 -0.0390 -1.1477
 3087TIP3    H233457   6.976   5.675   8.605  0.1192 -1.0366 -1.1392
 3088TIP3   OH233458   3.956   5.501   8.699  0.3924  0.1549 -0.0332
 3088TIP3    H133459   3.930   5.410   8.683 -3.2889  0.7185  1.6091
 3088TIP3    H233460   3.883   5.553   8.664  1.3235  2.3399  1.0824
 3089TIP3   OH233461   6.418   6.992   7.393 -0.1501  0.3819  0.0663
 3089TIP3    H133462   6.394   6.978   7.301  1.2518 -0.4160 -0.1926
 3089TIP3    H233463   6.341   6.961   7.442 -0.5055 -0.1438 -0.7970
 3090TIP3   OH233464   5.873   0.987   9.248 -0.3663 -0.5639 -0.3171
 3090TIP3    H133465   5.851   1.022   9.162  0.2117 -0.2662 -0.3460
 3090TIP3    H233466   5.905   1.062   9.298  0.8928 -1.0329 -0.3856
 3091TIP3   OH233467   1.660   2.168   9.495  0.0722 -0.2830 -0.0401
 3091TIP3    H133468   1.637   2.174   9.402  2.0203 -1.2491 -0.6537
 3091TIP3    H233469   1.677   2.258   9.521  1.1490 -0.1355 -1.1269
 3092TIP3   OH233470   4.414   5.329   7.538 -0.1286  0.8301  0.2741
 3092TIP3    H133471   4.438   5.421   7.547  2.4663  0.1466  1.2113
 3092TIP3    H233472   4.385   5.303   7.626  1.4727  0.1950  0.6399
 3093TIP3   OH233473   7.446   3.192   9.568 -0.5792 -0.5483  0.1223
 3093TIP3    H133474   7.478   3.257   9.506 -4.5705  1.6756  0.0745
 3093TIP3    H233475   7.499   3.206   9.646  1.2209  0.0249 -1.1273
 3094TIP3   OH233476   3.539   1.833   8.595  0.3792 -0.3606 -0.1747
 3094TIP3    H133477   3.449   1.858   8.579  0.2098 -0.5809  0.4020
 3094TIP3    H233478   3.585   1.915   8.610  0.6063 -0.1165 -1.9928
 3095TIP3   OH233479   5.054   1.369   9.736 -0.1697  0.5451  0.0808
 3095TIP3    H133480   5.034   1.408   9.821 -1.5834  0.8204 -0.3429
 3095TIP3    H233481   5.044   1.275   9.750  2.2881  0.3462  0.8640
 3096TIP3   OH233482   2.092   2.256   7.125 -0.2760  0.4427 -0.4118
 3096TIP3    H133483   2.065   2.190   7.189  1.0101 -0.6659 -0.9685
 3096TIP3    H233484   2.053   2.227   7.043 -0.1765  0.7007 -0.5516
 3097TIP3   OH233485   1.188   4.432   9.305  0.0535 -0.0906  0.4177
 3097TIP3    H133486   1.213   4.489   9.378  1.4294  0.1057 -0.1763
 3097TIP3    H233487   1.165   4.349   9.346 -1.0200  0.5600  1.2160
 3098TIP3   OH233488   2.347   1.408   7.563  0.0503  0.0331  0.2435
 3098TIP3    H133489   2.275   1.435   7.507  0.3937 -0.5005 -0.4528
 3098TIP3    H233490   2.358   1.315   7.547 -0.9292 -0.5157  2.4308
 3099TIP3   OH233491   3.457   0.455   7.540 -0.1403 -0.7180 -0.2304
 3099TIP3    H133492   3.406   0.529   7.571  0.8214 -0.1362  0.0057
 3099TIP3    H233493   3.438   0.450   7.447 -1.7896 -1.4651  0.1094
 3100TIP3   OH233494   3.846   1.150   8.757  0.3947 -0.0488  0.7167
 3100TIP3    H133495   3.785   1.221   8.775 -0.2941 -0.1062 -1.1509
 3100TIP3    H233496   3.924   1.171   8.808  0.0167  1.7731  0.5971
 3101TIP3   OH233497   6.798   6.405   9.244  0.6090  0.3818  0.0569
 3101TIP3    H133498   6.768   6.373   9.330  0.9287  0.9659  0.3943
 3101TIP3    H233499   6.893   6.395   9.247  0.5722 -0.1878 -0.4845
 3102TIP3   OH233500   6.295   5.191   8.177  0.1200 -0.4033 -0.4525
 3102TIP3    H133501   6.370   5.193   8.236 -1.1234 -2.2233  1.3489
 3102TIP3    H233502   6.226   5.147   8.227 -1.5291 -0.6105 -2.7155
 3103TIP3   OH233503   4.445   5.645   7.350  0.0763  0.0012 -0.2881
 3103TIP3    H133504   4.474   5.561   7.315  0.1463  0.0178 -0.2697
 3103TIP3    H233505   4.444   5.634   7.445  1.2319  0.3840 -0.2158
 3104TIP3   OH233506   2.275   3.079   7.205 -1.4311  0.1089 -0.4681
 3104TIP3    H133507   2.367   3.050   7.210 -1.5480 -0.5158 -1.4880
 3104TIP3    H233508   2.240   3.033   7.129 -2.1987  1.4382 -0.9604
 3105TIP3   OH233509   2.813   7.076   8.316  0.0812  0.0536  0.3796
 3105TIP3    H133510   2.874   7.148   8.334 -0.0998  0.1783  0.5035
 3105TIP3    H233511   2.869   7.002   8.294  0.3106 -0.0201  1.1634
 3106TIP3   OH233512   4.415   5.434   7.950  0.3665  0.2046 -0.0223
 3106TIP3    H133513   4.421   5.462   8.041  0.1539  0.5778 -0.1204
 3106TIP3    H233514   4.367   5.504   7.906 -0.9006 -0.6849 -0.1174
 3107TIP3   OH233515   3.278   1.616   9.402 -0.5081  0.0422 -0.0155
 3107TIP3    H133516   3.213   1.657   9.345 -2.0871  0.0040  1.6780
 3107TIP3    H233517   3.361   1.655   9.374 -1.0382 -0.6078 -2.8766
 3108TIP3   OH233518   0.095   1.239   8.883  0.5415 -1.1167  0.4275
 3108TIP3    H133519   0.177   1.287   8.881 -0.6464  1.0156  0.2724
 3108TIP3    H233520   0.107   1.167   8.821  1.1169  1.1870 -2.2879
 3109TIP3   OH233521   2.047   0.606   9.379 -0.2623  0.7858  0.1769
 3109TIP3    H133522   1.971   0.589   9.434  1.0642 -0.9749  1.5853
 3109TIP3    H233523   2.044   0.701   9.363 -0.5928  1.4776  3.5572
 3110TIP3   OH233524   1.161   6.486   8.995  0.0754 -0.6583  0.5037
 3110TIP3    H133525   1.241   6.529   8.965 -0.1767 -1.3296 -1.2809
 3110TIP3    H233526   1.095   6.512   8.931 -0.6890 -1.6007  0.8822
 3111TIP3   OH233527   7.061   5.795   7.759  0.0351 -0.0712  0.2333
 3111TIP3    H133528   7.006   5.873   7.764  0.8660  0.4913  0.8920
 3111TIP3    H233529   7.012   5.728   7.808 -0.4851  0.1527  0.0235
 3112TIP3   OH233530   2.001   2.077   6.643  0.2652 -0.4375 -0.4188
 3112TIP3    H133531   2.039   2.131   6.574 -0.7486  1.9328  0.7617
 3112TIP3    H233532   1.916   2.051   6.610 -0.2665  0.7894 -0.0729
 3113TIP3   OH233533   0.248   2.209   7.720 -0.3902  0.5081 -0.0084
 3113TIP3    H133534   0.278   2.288   7.766 -1.2078 -0.5964  2.5968
 3113TIP3    H233535   0.152   2.214   7.724 -0.4463 -0.5593  0.0404
 3114TIP3   OH233536   6.038   1.721   9.375  0.4496  0.0139 -0.1344
 3114TIP3    H133537   6.092   1.713   9.296 -0.1132  2.5371 -0.8625
 3114TIP3    H233538   6.101   1.729   9.446  1.0658  1.7014 -0.8270
 3115TIP3   OH233539   2.541   2.955   7.206  0.2099  0.3618  0.4014
 3115TIP3    H133540   2.573   2.964   7.116  2.5227  5.8428  1.3846
 3115TIP3    H233541   2.619   2.966   7.260 -1.7359  3.4374  2.9425
 3116TIP3   OH233542   2.571   6.918   8.628  0.5290 -0.2362 -0.5314
 3116TIP3    H133543   2.603   6.838   8.670 -0.1497 -0.6363 -0.7570
 3116TIP3    H233544   2.516   6.960   8.694  1.4385  0.4257 -0.1626
 3117TIP3   OH233545   1.631   0.727   9.476 -0.3672  0.2138 -0.1488
 3117TIP3    H133546   1.558   0.666   9.463 -1.1421  1.3949 -1.7032
 3117TIP3    H233547   1.706   0.671   9.494 -1.6641 -1.0407  1.7132
 3118TIP3   OH233548   0.687   2.985   9.611 -0.0688  0.0447  0.0301
 3118TIP3    H133549   0.628   2.920   9.572 -0.5553 -0.2310  1.1824
 3118TIP3    H233550   0.708   3.045   9.539 -2.7824  0.9149 -0.1355
 3119TIP3   OH233551   4.600   1.729   8.764  0.4627  0.7005  0.3389
 3119TIP3    H133552   4.660   1.697   8.832 -0.4713 -1.2360  0.2984
 3119TIP3    H233553   4.560   1.650   8.728 -0.1251  1.7855 -1.5052
 3120TIP3   OH233554   1.071   5.423   9.562  0.3605  0.2816  0.1114
 3120TIP3    H133555   1.135   5.357   9.535  0.1670  0.3634 -0.5642
 3120TIP3    H233556   1.045   5.397   9.651  0.1750 -0.6369 -0.2092
 3121TIP3   OH233557   1.549   2.955   7.509  0.5052 -0.3201 -0.3542
 3121TIP3    H133558   1.511   3.041   7.530  1.1813 -0.3341  1.0559
 3121TIP3    H233559   1.598   2.931   7.587  0.8918 -1.6982 -0.9890
 3122TIP3   OH233560   2.885   5.925   7.718  0.3215  0.4388 -0.0407
 3122TIP3    H133561   2.806   5.951   7.672  0.4108  1.8968  0.5626
 3122TIP3    H233562   2.954   5.927   7.652 -0.0110 -0.0566 -0.3977
 3123TIP3   OH233563   2.165   4.730   8.382  0.2024  0.0600  0.3761
 3123TIP3    H133564   2.173   4.822   8.359 -0.1287  0.1735  0.7065
 3123TIP3    H233565   2.248   4.691   8.354  0.0519  0.3074 -0.4461
 3124TIP3   OH233566   3.110   7.324   8.042  0.0503 -0.1179  0.7216
 3124TIP3    H133567   3.170   7.249   8.040 -0.2735 -0.3702  0.1840
 3124TIP3    H233568   3.023   7.285   8.031 -0.1221  0.3334  0.4884
 3125TIP3   OH233569   7.157   6.461   7.500 -0.4112 -0.3574 -0.0395
 3125TIP3    H133570   7.142   6.467   7.594 -1.8553 -3.6110  0.0839
 3125TIP3    H233571   7.072   6.433   7.463  0.3755 -0.1759 -2.1544
 3126TIP3   OH233572   3.940   6.079   9.017  0.4776 -0.2701  0.2015
 3126TIP3    H133573   3.969   6.027   8.942  0.1913  0.6369 -0.5632
 3126TIP3    H233574   3.845   6.070   9.018  0.3751  0.6643 -0.2772
 3127TIP3   OH233575   6.180   5.232   7.285  0.3432  0.0013  0.3382
 3127TIP3    H133576   6.114   5.300   7.278 -0.1356 -0.3357  1.3812
 3127TIP3    H233577   6.149   5.162   7.227  1.1657  0.8801 -1.2486
 3128TIP3   OH233578   3.537   3.101   7.378  0.0228 -0.2174  0.4574
 3128TIP3    H133579   3.471   3.032   7.369 -0.0646 -0.1623  0.6731
 3128TIP3    H233580   3.529   3.153   7.298 -0.1081 -0.2853  0.4267
 3129TIP3   OH233581   4.368   6.232   7.554 -0.2552  0.4546  0.2720
 3129TIP3    H133582   4.371   6.300   7.487 -1.8497 -1.8126 -2.2990
 3129TIP3    H233583   4.457   6.229   7.590  0.6704  1.7502 -1.7564
 3130TIP3   OH233584   5.384   1.669   8.899  0.3256 -0.2183 -0.4805
 3130TIP3    H133585   5.386   1.672   8.994  0.4200  0.4629 -0.4991
 3130TIP3    H233586   5.440   1.595   8.876  3.2367  1.7089 -0.0902
 3131TIP3   OH233587   2.358   6.566   9.995  0.2832  0.3602 -0.6587
 3131TIP3    H133588   2.286   6.539   9.938 -0.5378 -0.1104  0.5720
 3131TIP3    H233589   2.326   6.644  10.039  0.0906 -0.4355  0.6636
 3132TIP3   OH233590   5.399   5.324   9.358  0.5007  0.3886 -0.7029
 3132TIP3    H133591   5.313   5.354   9.389  0.5597 -0.4103  0.2940
 3132TIP3    H233592   5.392   5.229   9.355  1.6307  0.2516  0.3017
 3133TIP3   OH233593   1.842   3.946   7.752 -0.1752 -0.2878 -0.1725
 3133TIP3    H133594   1.820   3.867   7.802 -0.6589 -0.3040 -0.4119
 3133TIP3    H233595   1.887   4.002   7.816  0.3565 -0.8401 -0.0576
 3134TIP3   OH233596   2.881   2.618   9.280  0.3107  0.3614 -0.0662
 3134TIP3    H133597   2.920   2.670   9.350 -0.0656  0.2249  0.2484
 3134TIP3    H233598   2.945   2.549   9.263 -0.5990 -1.0191  1.7864
 3135TIP3   OH233599   0.676   4.199   7.133 -0.2651 -0.2967 -0.3040
 3135TIP3    H133600   0.620   4.140   7.082  0.1591  0.0231 -1.1501
 3135TIP3    H233601   0.718   4.255   7.068 -0.5970  0.9018  0.4816
 3136TIP3   OH233602   2.941   0.598   8.189 -0.7763 -1.0445  0.0726
 3136TIP3    H133603   3.032   0.627   8.192 -0.3134 -2.1923 -1.6164
 3136TIP3    H233604   2.890   0.677   8.206  0.5124 -0.2553  0.3833
 3137TIP3   OH233605   1.784   0.513   9.516 -0.1531  0.5851  0.0163
 3137TIP3    H133606   1.771   0.445   9.450 -0.4189  1.4586 -0.8495
 3137TIP3    H233607   1.768   0.468   9.599 -0.9294 -0.2691 -0.5654
 3138TIP3   OH233608   5.471   5.924   8.301 -0.3251  0.3656  0.1299
 3138TIP3    H133609   5.509   6.007   8.329  0.1023 -0.2572  1.4506
 3138TIP3    H233610   5.424   5.946   8.220  0.1867  1.7841  0.1841
 3139TIP3   OH233611   0.473   4.064   8.196  0.2005 -0.0827  0.0872
 3139TIP3    H133612   0.515   3.978   8.198  0.3183 -0.0855 -1.2925
 3139TIP3    H233613   0.380   4.046   8.211  0.7392  0.1057  5.1650
 3140TIP3   OH233614   4.364   5.045   7.511  0.7947  0.2370 -0.0574
 3140TIP3    H133615   4.421   5.110   7.552  1.3560 -0.4135  0.2182
 3140TIP3    H233616   4.348   4.981   7.580 -0.3962  0.4878 -0.0914
 3141TIP3   OH233617   6.892   5.518   7.528 -0.4008 -0.2747  0.5547
 3141TIP3    H133618   6.977   5.474   7.535  0.6760  1.8982  3.0133
 3141TIP3    H233619   6.898   5.569   7.448 -1.3835 -3.6819 -1.9346
 3142TIP3   OH233620   4.294   3.166   8.642  0.1747 -0.3980  0.4525
 3142TIP3    H133621   4.258   3.082   8.615 -0.5130 -0.1468  0.5696
 3142TIP3    H233622   4.333   3.149   8.728  0.0696 -0.6056  0.4590
 3143TIP3   OH233623   6.267   1.485   7.571 -0.3947 -0.5311  0.0994
 3143TIP3    H133624   6.179   1.448   7.567 -0.2974 -0.9674  1.4414
 3143TIP3    H233625   6.323   1.420   7.529 -0.6449 -0.4996 -0.2811
 3144TIP3   OH233626   3.344   6.074   7.869 -0.0315  0.4563  0.5203
 3144TIP3    H133627   3.388   6.054   7.951 -0.9871 -0.5973  0.8000
 3144TIP3    H233628   3.344   5.992   7.820  0.8173  1.1481 -0.6957
 3145TIP3   OH233629   3.780   5.875   8.404 -0.2782 -0.0986  0.0659
 3145TIP3    H133630   3.689   5.846   8.413 -0.5753  1.0666  1.1476
 3145TIP3    H233631   3.792   5.888   8.310 -0.8478 -1.4266 -0.2031
 3146TIP3   OH233632   0.869   4.421   9.373 -0.3651 -1.0387 -0.0375
 3146TIP3    H133633   0.917   4.489   9.326  1.0817 -0.9378  1.4778
 3146TIP3    H233634   0.927   4.345   9.371 -1.3078 -1.7640 -0.4260
 3147TIP3   OH233635   4.374   0.468   7.014  0.3780 -0.2252  0.1294
 3147TIP3    H133636   4.425   0.497   7.090 -0.0584 -0.9033  0.6888
 3147TIP3    H233637   4.368   0.546   6.958  0.4281  0.3678  0.9376
 3148TIP3   OH233638   2.329   0.993   7.839 -0.7858  0.4610 -0.0383
 3148TIP3    H133639   2.248   1.007   7.790  0.0848  2.1623 -1.0840
 3148TIP3    H233640   2.398   0.995   7.773  0.2513  0.7210  1.0207
 3149TIP3   OH233641   3.643   1.592   8.730 -0.1970  0.5909 -0.4302
 3149TIP3    H133642   3.660   1.630   8.643 -0.0798  1.5515 -0.0022
 3149TIP3    H233643   3.549   1.604   8.743 -0.2540  0.2395 -0.5194
 3150TIP3   OH233644   7.280   2.842   6.899 -0.1503 -0.4714 -0.0287
 3150TIP3    H133645   7.318   2.756   6.883  0.3749  0.1742 -2.6753
 3150TIP3    H233646   7.196   2.841   6.855 -0.0181  0.4557 -0.3269
 3151TIP3   OH233647   5.920   0.527   9.079  0.1159 -0.6482  0.6356
 3151TIP3    H133648   5.945   0.450   9.030  1.4132  0.6163 -0.7898
 3151TIP3    H233649   5.824   0.520   9.087 -0.2932 -0.6034 -2.7437
 3152TIP3   OH233650   1.943   0.393   6.989 -0.4440 -0.3252  0.2011
 3152TIP3    H133651   1.984   0.428   7.068 -1.0148  0.0526  0.3352
 3152TIP3    H233652   1.857   0.435   6.986 -0.3860 -0.2517 -0.6832
 3153TIP3   OH233653   2.193   2.155   9.498 -0.6677  0.4352 -0.3553
 3153TIP3    H133654   2.270   2.117   9.457 -0.6098 -0.3373  0.4475
 3153TIP3    H233655   2.119   2.122   9.446 -0.4894  0.9367 -0.9406
 3154TIP3   OH233656   6.078   2.799   8.211 -0.1989  0.3597 -0.1287
 3154TIP3    H133657   6.089   2.889   8.243  0.2132 -0.0834  1.0526
 3154TIP3    H233658   6.034   2.753   8.282  0.0687 -0.5019 -0.4988
 3155TIP3   OH233659   4.293   6.845   7.861 -0.3605 -0.5923  0.7781
 3155TIP3    H133660   4.286   6.814   7.951 -1.6050 -0.5090  0.7329
 3155TIP3    H233661   4.264   6.771   7.808  2.5435 -1.4750  0.2494
 3156TIP3   OH233662   5.747   1.187   8.074 -0.3306  0.2775  0.0665
 3156TIP3    H133663   5.734   1.277   8.104  1.2104  0.5114  0.1207
 3156TIP3    H233664   5.706   1.133   8.142  0.9830  0.8778  1.3811
 3157TIP3   OH233665   4.404   5.985   7.429  0.6064  0.0658  0.1294
 3157TIP3    H133666   4.360   6.069   7.439 -0.0058 -0.3588  1.1756
 3157TIP3    H233667   4.475   5.987   7.494  0.2729 -0.4065  0.5218
 3158TIP3   OH233668   1.341   5.695   7.476 -0.5849 -0.2721  0.0823
 3158TIP3    H133669   1.293   5.737   7.405 -0.3564  2.1392  1.2523
 3158TIP3    H233670   1.433   5.717   7.459 -0.4302 -0.4674  0.6307
 3159TIP3   OH233671   5.800   2.538   7.990  0.1314  0.2948  0.1218
 3159TIP3    H133672   5.731   2.586   8.036 -0.5106  1.6528 -2.0904
 3159TIP3    H233673   5.844   2.605   7.938 -1.0337 -1.4496 -3.4083
 3160TIP3   OH233674   1.708   2.973   7.734 -0.0687 -0.8442 -0.4217
 3160TIP3    H133675   1.701   3.068   7.741 -0.2190 -0.7157 -1.9905
 3160TIP3    H233676   1.800   2.957   7.711  0.8656 -1.3626  3.0140
 3161TIP3   OH233677   5.032   6.652   8.920  0.2548  0.4440 -0.1130
 3161TIP3    H133678   5.030   6.733   8.971 -3.2725  1.2019 -1.1817
 3161TIP3    H233679   4.981   6.589   8.973 -0.9566  0.3720 -1.3193
 3162TIP3   OH233680   1.866   2.983   8.145 -0.5499 -0.3523  0.3193
 3162TIP3    H133681   1.847   2.918   8.077 -0.8757  0.1752 -0.1025
 3162TIP3    H233682   1.815   3.060   8.120 -1.3035 -0.4070  1.5993
 3163TIP3   OH233683   1.414   5.311   8.673  0.1345  0.4859  0.0680
 3163TIP3    H133684   1.360   5.348   8.603  0.2582  1.1521  0.3114
 3163TIP3    H233685   1.370   5.230   8.698 -0.0640  0.3853 -0.5822
 3164TIP3   OH233686   3.816   0.342   9.342 -0.4245 -0.1713 -0.0643
 3164TIP3    H133687   3.896   0.392   9.327  0.6207 -0.8211  2.6457
 3164TIP3    H233688   3.745   0.403   9.324  0.7781  1.5521  0.7775
 3165TIP3   OH233689   1.600   3.679   6.771 -0.3789  0.2191 -0.1276
 3165TIP3    H133690   1.661   3.667   6.698 -0.1723 -0.1975  0.1044
 3165TIP3    H233691   1.657   3.684   6.848 -0.6733 -1.7202  0.2810
 3166TIP3   OH233692   3.200   7.241   9.398  0.1226 -0.1642 -0.2139
 3166TIP3    H133693   3.286   7.281   9.390  0.3298 -0.1493  1.6041
 3166TIP3    H233694   3.196   7.178   9.326  0.6726  1.4917 -1.7704
 3167TIP3   OH233695   3.478   6.316   7.162 -0.2263  0.3722  0.9557
 3167TIP3    H133696   3.570   6.299   7.178 -0.0493  1.8440  1.6589
 3167TIP3    H233697   3.474   6.409   7.139 -1.4475  0.1578  0.1573
 3168TIP3   OH233698   7.454   4.433   8.895  0.2392 -0.3199  0.5387
 3168TIP3    H133699   7.448   4.528   8.891  3.4383 -0.0471 -0.7892
 3168TIP3    H233700   7.429   4.410   8.985 -1.4204  1.6404  0.6272
 3169TIP3   OH233701   6.853   2.172   9.522  0.1563  0.1268  0.7654
 3169TIP3    H133702   6.932   2.120   9.506 -0.6733 -0.9481  0.0501
 3169TIP3    H233703   6.784   2.128   9.473 -0.2905  2.8514 -1.3022
 3170TIP3   OH233704   4.145   3.134   8.207 -0.0084 -0.2620 -0.1191
 3170TIP3    H133705   4.214   3.144   8.273 -2.2138 -1.4931  2.5630
 3170TIP3    H233706   4.063   3.145   8.255 -1.8170  2.0173 -3.3066
 3171TIP3   OH233707   4.803   3.797   9.582 -0.0996 -0.3011 -0.3924
 3171TIP3    H133708   4.846   3.746   9.651 -0.1231 -1.9859 -1.5901
 3171TIP3    H233709   4.711   3.772   9.586 -0.0998 -0.4210 -1.0441
 3172TIP3   OH233710   2.671   7.409   9.539 -0.1344 -0.1091  0.7242
 3172TIP3    H133711   2.750   7.363   9.568  0.0659  0.7682  1.6431
 3172TIP3    H233712   2.680   7.497   9.576 -2.0843 -0.3223  1.8012
 3173TIP3   OH233713   5.076   0.898   8.705 -0.2503 -0.2876  0.2330
 3173TIP3    H133714   5.034   0.862   8.784 -0.0896  0.3718  0.6272
 3173TIP3    H233715   5.005   0.901   8.640 -0.8571  0.8674  0.9116
 3174TIP3   OH233716   0.005   1.809   7.349  0.0038  0.5403 -0.0361
 3174TIP3    H133717   0.020   1.881   7.288 -3.2043 -0.7156 -2.5505
 3174TIP3    H233718  -0.060   1.842   7.410  1.6886  1.0783  1.5856
 3175TIP3   OH233719   6.737   4.249   8.474 -0.3219 -0.1392  0.0855
 3175TIP3    H133720   6.670   4.211   8.418 -0.0250  0.1492 -0.4766
 3175TIP3    H233721   6.690   4.276   8.553 -0.9333  0.3263 -0.4225
 3176TIP3   OH233722   2.307   0.942   7.013  0.1297 -1.1196  0.1386
 3176TIP3    H133723   2.308   0.977   6.924  0.4853  1.4060  1.0681
 3176TIP3    H233724   2.309   0.847   7.001 -1.8646 -0.9454 -2.5812
 3177TIP3   OH233725   2.311   3.072   9.381 -0.2024  0.4610  0.3066
 3177TIP3    H133726   2.400   3.038   9.375 -0.1953  0.4428  0.4994
 3177TIP3    H233727   2.257   3.005   9.340  0.0102  1.0737 -1.0300
 3178TIP3   OH233728   7.057   0.866   9.021 -0.0298 -0.6983 -0.6940
 3178TIP3    H133729   7.021   0.784   8.986 -1.2161 -0.7056  0.4644
 3178TIP3    H233730   7.019   0.934   8.966 -1.8344 -0.7141  0.4446
 3179TIP3   OH233731   4.048   0.557   8.555  0.7374 -0.2303 -0.2674
 3179TIP3    H133732   3.994   0.541   8.477  1.2900 -1.7200 -0.3839
 3179TIP3    H233733   3.987   0.589   8.621 -0.0786 -0.7479 -0.7608
 3180TIP3   OH233734   5.672   5.759   8.878 -0.7128 -0.5119  0.6134
 3180TIP3    H133735   5.596   5.706   8.855 -0.7671  0.3917 -1.5488
 3180TIP3    H233736   5.635   5.845   8.899 -0.3702 -0.3408  0.5194
 3181TIP3   OH233737   5.479   0.631   7.774  0.3578  0.2531 -0.2486
 3181TIP3    H133738   5.416   0.637   7.846  0.7077  0.9799  0.0109
 3181TIP3    H233739   5.495   0.537   7.764 -0.1518  0.1100  0.2178
 3182TIP3   OH233740   1.799   0.415   8.871  0.5314  0.0070  0.3455
 3182TIP3    H133741   1.834   0.383   8.788  0.0354 -0.1946  0.2102
 3182TIP3    H233742   1.824   0.507   8.873 -0.1687  0.2283 -0.4210
 3183TIP3   OH233743   0.640   7.098   7.476  0.0615  0.5098  0.5168
 3183TIP3    H133744   0.682   7.180   7.450 -1.0522  0.7789 -0.4850
 3183TIP3    H233745   0.645   7.042   7.399 -1.3609  0.5315  0.3843
 3184TIP3   OH233746   4.361   1.686   8.218  0.0740  0.3330 -0.4016
 3184TIP3    H133747   4.278   1.699   8.171 -0.1284  1.8063  0.3035
 3184TIP3    H233748   4.339   1.631   8.293 -1.0172  3.2345  1.5776
 3185TIP3   OH233749   3.672   6.726   8.752 -0.1244 -0.3519 -0.1895
 3185TIP3    H133750   3.688   6.752   8.843 -0.9910 -1.6103  0.3492
 3185TIP3    H233751   3.748   6.760   8.704 -0.0068  0.9564  0.8646
 3186TIP3   OH233752   7.404   0.445   8.843  0.5563 -0.5143  0.2569
 3186TIP3    H133753   7.351   0.365   8.851 -2.4463  1.3406  0.3636
 3186TIP3    H233754   7.379   0.497   8.919  3.2309  0.1699  0.7334
 3187TIP3   OH233755   2.056   5.489   8.854 -0.3174 -0.2741  0.2215
 3187TIP3    H133756   2.019   5.521   8.936 -2.2175  1.7228 -1.2949
 3187TIP3    H233757   2.041   5.560   8.792  1.6048 -1.4684 -1.7369
 3188TIP3   OH233758   4.983   6.739   6.597 -0.1291  0.3285  0.1904
 3188TIP3    H133759   5.037   6.679   6.544 -1.6044 -0.1163 -0.8732
 3188TIP3    H233760   5.009   6.826   6.567 -0.5259  0.0996 -0.8866
 3189TIP3   OH233761   0.856   7.253   8.374 -0.5120 -0.1413 -0.6153
 3189TIP3    H133762   0.777   7.291   8.336 -0.0638  0.5079 -0.9209
 3189TIP3    H233763   0.893   7.199   8.304  1.1771  2.3028 -1.7739
 3190TIP3   OH233764   3.777   3.587   8.626 -0.1187  0.0186 -0.3160
 3190TIP3    H133765   3.831   3.630   8.560  1.7541  0.5408  1.4191
 3190TIP3    H233766   3.770   3.653   8.696  0.6046 -1.5364  1.2910
 3191TIP3   OH233767   7.344   4.507   8.520 -0.2483  0.2959  0.6993
 3191TIP3    H133768   7.350   4.504   8.424 -1.6416 -2.2746  0.6189
 3191TIP3    H233769   7.256   4.541   8.537 -0.6287 -0.7796  0.9856
 3192TIP3   OH233770   2.043   5.698   8.146 -0.2733  0.2547 -0.0939
 3192TIP3    H133771   2.107   5.769   8.151 -0.3014  0.2571  0.2397
 3192TIP3    H233772   2.095   5.620   8.126 -0.5681  0.9159 -4.2885
 3193TIP3   OH233773   5.917   2.268   9.036 -0.2791 -0.6563  0.1521
 3193TIP3    H133774   5.994   2.237   9.083 -0.3384 -1.6714 -0.3983
 3193TIP3    H233775   5.878   2.189   8.999  0.5874  0.2148 -2.8788
 3194TIP3   OH233776   1.752   2.257   8.675 -0.2046 -0.0600 -0.3581
 3194TIP3    H133777   1.752   2.208   8.593  0.2568  0.9241 -0.9640
 3194TIP3    H233778   1.752   2.349   8.648  1.4013  0.2941  0.7340
 3195TIP3   OH233779   4.139   1.434   7.174  0.3276 -0.1944 -0.0711
 3195TIP3    H133780   4.058   1.476   7.204 -0.6547 -1.1974 -1.2425
 3195TIP3    H233781   4.112   1.375   7.105  2.0391 -0.8088 -0.2708
 3196TIP3   OH233782   1.738   0.973   8.236  0.2434 -0.1837  0.0262
 3196TIP3    H133783   1.824   0.932   8.222  0.7323  0.0235  2.1632
 3196TIP3    H233784   1.691   0.912   8.292 -0.4696  0.3932  0.0682
 3197TIP3   OH233785   5.401   2.435   8.564  0.2457 -0.2484 -0.0328
 3197TIP3    H133786   5.366   2.377   8.496  0.4765 -0.9809  0.4557
 3197TIP3    H233787   5.496   2.423   8.559  0.4584  1.4772 -1.1314
 3198TIP3   OH233788   3.534   1.388   7.906 -0.2321 -0.7557  0.3950
 3198TIP3    H133789   3.593   1.462   7.889 -0.1992 -0.5876  1.2103
 3198TIP3    H233790   3.508   1.358   7.819 -1.4006  1.1287  0.0278
 3199TIP3   OH233791   2.282   1.656   8.110 -0.2578  0.0311  0.3131
 3199TIP3    H133792   2.193   1.681   8.084 -0.8027  0.1446  2.1391
 3199TIP3    H233793   2.326   1.739   8.129 -0.0868 -0.0733  0.3759
 3200TIP3   OH233794   4.492   1.094   7.507  0.1217 -0.2100 -0.1141
 3200TIP3    H133795   4.580   1.104   7.471  0.1709  1.4884  0.4180
 3200TIP3    H233796   4.471   1.001   7.493  0.8961 -0.0687 -2.7267
 3201TIP3   OH233797   3.489   4.139   9.393 -0.2750  0.2685  0.1997
 3201TIP3    H133798   3.415   4.114   9.339 -0.0445 -1.0127  0.4405
 3201TIP3    H233799   3.470   4.102   9.479 -0.2170  1.5163  0.7847
 3202TIP3   OH233800   4.817   7.392   9.715  0.6436 -0.3115 -0.0276
 3202TIP3    H133801   4.912   7.388   9.726  0.6867  1.7609  0.9590
 3202TIP3    H233802   4.798   7.486   9.709 -1.4135 -0.6470  0.4868
 3203TIP3   OH233803   3.444   2.062   8.756 -0.2485 -0.0059  0.2501
 3203TIP3    H133804   3.382   2.097   8.820  0.0269  1.0566 -0.0589
 3203TIP3    H233805   3.395   1.992   8.711 -0.4494 -0.7599  1.5894
 3204TIP3   OH233806   3.438   4.469   9.596  0.6322  0.3056  0.1217
 3204TIP3    H133807   3.493   4.414   9.652 -0.0233 -0.5952 -0.1128
 3204TIP3    H233808   3.351   4.465   9.635  0.9285  2.8129  1.2850
 3205TIP3   OH233809   0.460   3.058   7.632  0.6211 -0.3208 -0.2261
 3205TIP3    H133810   0.407   3.122   7.585  1.5977 -0.7213 -1.9331
 3205TIP3    H233811   0.550   3.085   7.619  0.9534 -0.8074  0.9076
 3206TIP3   OH233812   1.997   1.251   9.658  0.6104  0.0333  0.2601
 3206TIP3    H133813   1.974   1.262   9.750  0.0086 -0.1417  0.1396
 3206TIP3    H233814   1.996   1.341   9.623  1.3002  0.1453  0.5250
 3207TIP3   OH233815   2.593   6.630   8.734  0.6837  0.1860 -0.1034
 3207TIP3    H133816   2.515   6.575   8.730 -0.6121  1.9410 -3.0737
 3207TIP3    H233817   2.641   6.609   8.654  2.5430  0.1792  0.9612
 3208TIP3   OH233818   3.864   1.388   7.745  0.4172 -0.1425 -0.0756
 3208TIP3    H133819   3.954   1.358   7.756  0.8811  0.4812 -1.8122
 3208TIP3    H233820   3.813   1.308   7.734  0.4652 -0.5915  2.3572
 3209TIP3   OH233821   0.747   4.917   6.951  0.1956  0.0651 -0.1443
 3209TIP3    H133822   0.786   4.998   6.984  0.5903 -0.6950  1.3697
 3209TIP3    H233823   0.820   4.872   6.909  0.9971 -1.1608  2.3160
 3210TIP3   OH233824   0.207   1.145   7.632  0.2147 -0.4344  0.4448
 3210TIP3    H133825   0.117   1.141   7.663  0.5574 -0.6547  1.4610
 3210TIP3    H233826   0.200   1.151   7.537 -0.8633 -0.4819  0.5116
 3211TIP3   OH233827   1.456   6.994   7.623 -0.2292 -0.0345 -0.6871
 3211TIP3    H133828   1.508   6.914   7.638  1.6735  1.3830  0.7884
 3211TIP3    H233829   1.515   7.052   7.574  0.2673  2.1538  2.2366
 3212TIP3   OH233830   2.226   6.414   7.116 -0.2904 -0.1064  0.3442
 3212TIP3    H133831   2.222   6.483   7.182 -1.2440  2.0142 -1.7754
 3212TIP3    H233832   2.306   6.432   7.066  0.1172 -1.3204  0.5175
 3213TIP3   OH233833   3.803   1.676   9.409  0.2678  0.2243  0.2815
 3213TIP3    H133834   3.865   1.618   9.366  1.0216 -0.0431  1.6808
 3213TIP3    H233835   3.770   1.732   9.339  1.0726 -0.5249 -0.7220
 3214TIP3   OH233836   4.997   3.284   7.699 -0.1750  0.4048  0.5514
 3214TIP3    H133837   4.946   3.207   7.721  0.4956  0.1036  1.1037
 3214TIP3    H233838   5.039   3.262   7.615 -0.1426  0.2507  0.6084
 3215TIP3   OH233839   6.698   2.830   9.581  0.4986 -0.0062  0.5265
 3215TIP3    H133840   6.710   2.805   9.672 -2.5013 -1.0021  0.7499
 3215TIP3    H233841   6.621   2.886   9.582 -1.2902 -2.2159 -1.6438
 3216TIP3   OH233842   7.561   7.324   8.631 -0.1873  0.2326  0.6616
 3216TIP3    H133843   7.636   7.351   8.578 -1.0504  1.3360 -0.0283
 3216TIP3    H233844   7.551   7.231   8.613  0.4260  0.2854  0.0181
 3217TIP3   OH233845   2.222   4.571   9.240 -0.0739 -0.2261  0.2802
 3217TIP3    H133846   2.132   4.546   9.265 -0.8567  2.5358  0.5919
 3217TIP3    H233847   2.269   4.573   9.323  0.5060 -2.3464  0.0366
 3218TIP3   OH233848   4.470   1.273   8.502 -0.4245  0.2461  0.2575
 3218TIP3    H133849   4.529   1.281   8.428  0.6442  1.1359  1.1698
 3218TIP3    H233850   4.502   1.196   8.549  0.0867  0.7796  0.7999
 3219TIP3   OH233851   2.858   0.012   7.963 -0.5829  0.0499 -0.1104
 3219TIP3    H133852   2.776   0.059   7.977 -0.1894  1.3658 -1.9161
 3219TIP3    H233853   2.850  -0.024   7.875  1.8313  2.5987 -1.5152
 3220TIP3   OH233854   1.220   2.413   7.824  0.0738  0.5831  0.0472
 3220TIP3    H133855   1.275   2.419   7.902  0.6257 -0.9231 -0.1873
 3220TIP3    H233856   1.225   2.321   7.798 -1.7986  0.5905 -0.5420
 3221TIP3   OH233857   2.169   1.545   8.373  0.3050  0.3845 -1.2458
 3221TIP3    H133858   2.159   1.606   8.446  0.4715  0.1497 -1.0234
 3221TIP3    H233859   2.258   1.560   8.341  1.8893 -2.4563  1.3453
 3222TIP3   OH233860   4.066   6.612   8.970 -0.3860 -0.4350 -0.0256
 3222TIP3    H133861   4.058   6.611   8.875  2.6358 -0.8580 -0.3802
 3222TIP3    H233862   4.067   6.519   8.995  1.9904 -0.4823 -0.0402
 3223TIP3   OH233863   7.223   2.966   7.332 -0.1534  0.0063 -0.4029
 3223TIP3    H133864   7.301   3.003   7.290 -0.1148  0.8673  0.4030
 3223TIP3    H233865   7.175   2.924   7.260  0.9451 -0.3693 -0.9356
 3224TIP3   OH233866   6.308   3.766   8.100  1.0644  0.2971 -0.1991
 3224TIP3    H133867   6.303   3.734   8.190 -1.2733 -0.7556 -0.6272
 3224TIP3    H233868   6.395   3.737   8.069  1.2389 -0.7806  1.1923
 3225TIP3   OH233869   0.555   4.439   7.968  0.3797 -0.4056  0.4453
 3225TIP3    H133870   0.597   4.353   7.965 -0.1935 -0.6938 -2.3081
 3225TIP3    H233871   0.469   4.422   8.007 -1.1452 -1.9396 -3.0877
 3226TIP3   OH233872   6.651   4.205   7.407 -0.5602 -0.1545  0.1248
 3226TIP3    H133873   6.669   4.113   7.389 -1.4718 -0.2769 -0.2212
 3226TIP3    H233874   6.646   4.245   7.320  2.6064  0.8349  0.2447
 3227TIP3   OH233875   6.139   2.103   8.845  0.1140  0.1908 -0.3676
 3227TIP3    H133876   6.044   2.103   8.855  0.0598 -0.5808 -0.7536
 3227TIP3    H233877   6.163   2.195   8.840 -0.5716  0.4050  0.1177
 3228TIP3   OH233878   5.136   4.563   8.930 -0.4247  0.4190 -0.0792
 3228TIP3    H133879   5.066   4.577   8.994  0.2897  0.9985  0.6018
 3228TIP3    H233880   5.130   4.638   8.871 -0.8517  0.0719 -0.4870
 3229TIP3   OH233881   4.193   6.859   9.745  0.7397 -0.3959 -0.0999
 3229TIP3    H133882   4.271   6.915   9.738  0.3999 -0.0094 -0.8950
 3229TIP3    H233883   4.131   6.911   9.796  0.1208  0.3347 -1.5273
 3230TIP3   OH233884   4.996   0.431   7.497  0.1157  0.2170  0.3423
 3230TIP3    H133885   4.924   0.449   7.556 -0.1911  0.9656 -0.2508
 3230TIP3    H233886   4.954   0.401   7.416  0.4556  0.7902 -0.0524
 3231TIP3   OH233887   5.974   5.033   8.560  0.4958 -0.0125 -0.1882
 3231TIP3    H133888   5.934   4.952   8.527  1.2883 -1.0731  1.3407
 3231TIP3    H233889   5.926   5.052   8.641  1.0340  0.4390  0.0307
 3232TIP3   OH233890   6.905   2.173   8.164  0.1643  0.5009 -0.0371
 3232TIP3    H133891   6.853   2.097   8.138  0.6620  0.2669 -0.3681
 3232TIP3    H233892   6.913   2.165   8.259 -0.4387  0.5686  0.0249
 3233TIP3   OH233893   5.674   4.557   9.194 -0.0442 -0.0692  0.6372
 3233TIP3    H133894   5.624   4.638   9.194  1.3172  0.8468 -1.2845
 3233TIP3    H233895   5.611   4.490   9.167 -0.7902  0.6321  0.5983
 3234TIP3   OH233896   0.549   0.589   8.540  0.2353  0.3858 -0.2420
 3234TIP3    H133897   0.578   0.501   8.564 -2.8178 -0.6841 -0.1253
 3234TIP3    H233898   0.579   0.645   8.611 -0.9155 -1.2091  1.5797
 3235TIP3   OH233899   2.083   2.190   8.522 -0.5030 -0.5648 -0.1971
 3235TIP3    H133900   2.010   2.245   8.495 -0.9449 -0.5560  0.9948
 3235TIP3    H233901   2.046   2.128   8.585  0.8110  0.5688  1.8101
 3236TIP3   OH233902   7.093   6.811   8.785  0.0800  0.6643 -0.2880
 3236TIP3    H133903   7.072   6.852   8.702 -1.4771  2.0755  0.7380
 3236TIP3    H233904   7.009   6.780   8.819  0.9676 -1.7439 -0.1508
 3237TIP3   OH233905   1.863   1.149   7.341  0.0470 -0.0672  0.4134
 3237TIP3    H133906   1.959   1.155   7.340  0.0612  1.5989 -3.1524
 3237TIP3    H233907   1.845   1.065   7.385  2.9810  0.2509  2.5371
 3238TIP3   OH233908   6.942   2.823   8.394  0.1457  0.5955 -0.1548
 3238TIP3    H133909   7.021   2.854   8.351  2.7848 -0.8609  3.2170
 3238TIP3    H233910   6.910   2.899   8.443 -1.1622  1.4181 -2.1560
 3239TIP3   OH233911   3.002   7.413   7.763  0.3059 -0.0353  0.3381
 3239TIP3    H133912   2.915   7.372   7.757 -0.2750  0.7677  2.3914
 3239TIP3    H233913   3.039   7.379   7.844  0.2901  2.4619  1.4960
 3240TIP3   OH233914   4.264   3.846   8.134  0.6473 -0.0132 -0.0592
 3240TIP3    H133915   4.179   3.812   8.110  0.8925  0.0882 -1.1073
 3240TIP3    H233916   4.283   3.806   8.219 -0.4125 -0.0728  0.1537
 3241TIP3   OH233917   4.622   7.268   8.641 -0.2973 -0.0446 -0.1868
 3241TIP3    H133918   4.600   7.209   8.714  0.2222 -0.1752 -0.1268
 3241TIP3    H233919   4.713   7.294   8.659 -0.2253  0.0617 -0.6973
 3242TIP3   OH233920   7.158   1.479   8.219  0.2260  0.0972  0.3084
 3242TIP3    H133921   7.228   1.538   8.247  1.6722  0.5743 -3.6474
 3242TIP3    H233922   7.199   1.393   8.216  0.1704  0.0954 -0.4775
 3243TIP3   OH233923   6.342   4.035   9.018 -0.1506  0.0932  0.1021
 3243TIP3    H133924   6.263   4.005   9.064 -0.0023  0.6047  0.7024
 3243TIP3    H233925   6.309   4.068   8.935 -0.2820 -1.9947 -0.7380
 3244TIP3   OH233926   0.336   2.309   8.083  0.0225 -0.0163 -0.2262
 3244TIP3    H133927   0.340   2.347   7.995 -0.9657 -1.3828 -0.9064
 3244TIP3    H233928   0.401   2.358   8.133 -0.4516  1.8199 -1.3040
 3245TIP3   OH233929   7.537   2.017   6.643 -0.0334  0.0157  0.0210
 3245TIP3    H133930   7.618   2.066   6.627 -1.7630  2.0667 -3.5946
 3245TIP3    H233931   7.552   1.932   6.602  0.8914 -0.3969  1.1347
 3246TIP3   OH233932   1.558   0.106   9.168  0.3034 -0.8282  0.7478
 3246TIP3    H133933   1.607   0.124   9.088 -1.5238  0.2692 -0.2012
 3246TIP3    H233934   1.524   0.191   9.195  0.2354 -1.3112  2.2626
 3247TIP3   OH233935   3.761   2.288   9.588  0.1542 -0.1736 -0.1849
 3247TIP3    H133936   3.699   2.216   9.593  0.5241 -0.5051 -0.2925
 3247TIP3    H233937   3.816   2.279   9.666 -0.5412  0.6963  0.4261
 3248TIP3   OH233938   4.135   1.387   9.053  0.4747 -0.3311 -0.3341
 3248TIP3    H133939   4.095   1.474   9.046  0.3239 -0.3343  0.4489
 3248TIP3    H233940   4.148   1.374   9.146  1.3584 -0.7693 -0.5113
 3249TIP3   OH233941   7.503   6.662   9.127 -0.1532 -0.0386 -0.2908
 3249TIP3    H133942   7.474   6.594   9.066 -0.9021  1.3192 -1.4929
 3249TIP3    H233943   7.457   6.741   9.099  1.2570  1.1538  0.6095
 3250TIP3   OH233944   0.331   3.556   7.364  0.3939 -0.2165 -0.9232
 3250TIP3    H133945   0.240   3.582   7.351  0.2273 -1.6386 -2.8877
 3250TIP3    H233946   0.373   3.635   7.398 -1.8653  0.0124  1.7455
 3251TIP3   OH233947   2.282   1.703   6.937  0.5778 -0.3179 -0.3871
 3251TIP3    H133948   2.311   1.753   7.013 -1.6355 -0.5201  0.6649
 3251TIP3    H233949   2.345   1.631   6.931  1.4335  0.3193  0.5720
 3252TIP3   OH233950   6.335   3.718   7.694  0.0724 -0.2949 -0.6695
 3252TIP3    H133951   6.282   3.704   7.615 -1.0632  0.0506  0.0057
 3252TIP3    H233952   6.276   3.697   7.766  1.2517 -1.0936  0.0876
 3253TIP3   OH233953   5.498   2.108   9.326 -0.3662 -0.2288  0.9179
 3253TIP3    H133954   5.577   2.112   9.272 -0.1859 -1.5308  1.0469
 3253TIP3    H233955   5.516   2.041   9.391 -1.1973  0.1849  1.6000
 3254TIP3   OH233956   0.916   5.890   7.472 -0.6734  0.2660 -0.0155
 3254TIP3    H133957   0.955   5.971   7.440  1.2993  0.0547  1.6769
 3254TIP3    H233958   0.958   5.821   7.420 -0.0021  0.1366  0.6969
 3255TIP3   OH233959   6.086   4.829   8.772  0.2054 -0.2850 -0.0191
 3255TIP3    H133960   6.012   4.811   8.713  0.3447  1.2558 -0.7053
 3255TIP3    H233961   6.153   4.865   8.716  0.3368  1.2640  1.0775
 3256TIP3   OH233962   6.518   7.250   9.240 -0.0326 -0.5360  0.0881
 3256TIP3    H133963   6.514   7.159   9.271 -0.2431 -0.9045 -0.9902
 3256TIP3    H233964   6.491   7.246   9.149 -0.9307  0.7512  0.2679
 3257TIP3   OH233965   1.350   7.376   8.187  0.4170 -0.2942  0.1878
 3257TIP3    H133966   1.357   7.281   8.196 -0.5350 -0.3661  0.1859
 3257TIP3    H233967   1.261   7.392   8.156  0.8572  0.5379 -0.7515
 3258TIP3   OH233968   4.798   2.188   7.888 -0.2138  0.4949 -0.0196
 3258TIP3    H133969   4.802   2.128   7.813 -0.1972 -0.1310  0.4717
 3258TIP3    H233970   4.888   2.193   7.920 -0.6301 -1.5594  1.7219
 3259TIP3   OH233971   0.849   3.328   7.790  0.5478 -0.3971 -0.8479
 3259TIP3    H133972   0.939   3.356   7.807  0.3386  1.1391 -2.0134
 3259TIP3    H233973   0.811   3.315   7.877  1.4901  0.3013 -0.3050
 3260TIP3   OH233974   0.229   5.936   8.697  0.5275 -0.1186  0.1184
 3260TIP3    H133975   0.258   5.966   8.783  1.1558 -1.8992  0.5769
 3260TIP3    H233976   0.215   5.841   8.708 -2.4675  0.0770 -0.9102
 3261TIP3   OH233977   2.478   3.847   8.744 -0.2675  0.0980  0.9015
 3261TIP3    H133978   2.495   3.920   8.804 -2.1021  0.7223  0.7112
 3261TIP3    H233979   2.434   3.887   8.669  1.9917 -0.6460 -0.9619
 3262TIP3   OH233980   6.189   3.579   8.524  0.3147  0.0024 -0.0608
 3262TIP3    H133981   6.217   3.510   8.464  0.4668 -1.8916  2.0795
 3262TIP3    H233982   6.130   3.634   8.471  2.9562  0.4125 -2.8537
 3263TIP3   OH233983   2.525   7.545   8.370  0.3782 -0.1003 -0.1027
 3263TIP3    H133984   2.547   7.559   8.278 -0.8833 -2.8104 -0.9374
 3263TIP3    H233985   2.575   7.466   8.395 -1.3630 -1.0177  0.6575
 3264TIP3   OH233986   0.680   7.408   8.980 -0.0365  0.3280 -0.0515
 3264TIP3    H133987   0.697   7.457   9.060 -0.6017  1.1766 -0.4333
 3264TIP3    H233988   0.736   7.330   8.986  1.2726  1.2721  0.3260
 3265TIP3   OH233989   2.170   6.530   9.790  0.2291 -0.1756  0.0491
 3265TIP3    H133990   2.118   6.456   9.761 -0.1003 -1.0097  2.5218
 3265TIP3    H233991   2.120   6.607   9.763 -0.0697 -0.8609 -1.4156
 3266TIP3   OH233992   2.915   7.000   9.290  0.1240 -0.1551  0.2447
 3266TIP3    H133993   2.988   7.058   9.266  0.9589 -0.6981  1.3663
 3266TIP3    H233994   2.874   6.977   9.207  0.3887  1.2459 -0.3028
 3267TIP3   OH233995   5.222   5.418   8.962  0.4840 -0.7672 -0.1659
 3267TIP3    H133996   5.258   5.499   8.926  3.3728 -1.8878 -0.0425
 3267TIP3    H233997   5.215   5.359   8.887  0.6721 -1.1417  0.1061
 3268TIP3   OH233998   1.107   5.772   6.912 -0.5960 -0.1243  0.4722
 3268TIP3    H133999   1.101   5.857   6.869 -1.2880 -1.2145 -1.6913
 3268TIP3    H234000   1.198   5.766   6.940 -0.2205  0.8178 -0.4826
 3269TIP3   OH234001   4.896   7.089   7.160  0.3516 -0.1251 -0.3989
 3269TIP3    H134002   4.953   7.020   7.126 -2.5382 -2.6284 -0.6634
 3269TIP3    H234003   4.936   7.170   7.130  3.3162 -1.6967 -1.1209
 3270TIP3   OH234004   3.420   2.368   9.204 -0.4397 -0.5276 -0.1243
 3270TIP3    H134005   3.398   2.415   9.285  0.7566  1.8072 -1.0509
 3270TIP3    H234006   3.501   2.409   9.174 -1.3758 -0.5539 -3.0396
 3271TIP3   OH234007   7.033   3.226   9.163 -0.6310  0.0996 -0.1681
 3271TIP3    H134008   6.963   3.216   9.228 -1.6646  1.4460 -1.0160
 3271TIP3    H234009   7.100   3.276   9.209 -1.2926  0.9176 -0.0505
 3272TIP3   OH234010   6.135   7.296   9.480  0.4090 -0.0317 -0.2245
 3272TIP3    H134011   6.058   7.285   9.537 -0.2857 -0.1384 -1.1625
 3272TIP3    H234012   6.210   7.286   9.539 -0.2861 -0.8801  0.5466
 3273TIP3   OH234013   1.831   0.319   7.585 -0.4126 -0.1139  0.1311
 3273TIP3    H134014   1.866   0.368   7.660  0.8943 -1.0884  0.1890
 3273TIP3    H234015   1.909   0.288   7.539 -1.2125 -1.5247 -0.3096
 3274TIP3   OH234016   2.001   3.098   9.101  0.3751  0.4302 -0.6388
 3274TIP3    H134017   2.062   3.163   9.067  1.5519  0.0104  0.5599
 3274TIP3    H234018   2.035   3.014   9.070  0.2087  0.2207 -0.2697
 3275TIP3   OH234019   1.868   2.241   7.648  0.1139  0.5399 -0.2106
 3275TIP3    H134020   1.808   2.310   7.620 -0.5600  0.2105  0.3894
 3275TIP3    H234021   1.910   2.276   7.726 -1.5555 -0.3912  1.1704
 3276TIP3   OH234022   6.784   0.926   7.040 -0.3638  0.0726  0.2506
 3276TIP3    H134023   6.695   0.905   7.069 -0.4085  2.6221  2.4011
 3276TIP3    H234024   6.790   1.021   7.051  2.7340 -0.0684  0.5059
 3277TIP3   OH234025   4.124   3.437   8.909 -0.5145  0.5779  0.0763
 3277TIP3    H134026   4.174   3.377   8.964 -0.5169  0.9220  0.4512
 3277TIP3    H234027   4.136   3.523   8.949 -1.8147  0.5946  0.4757
 3278TIP3   OH234028   6.003   4.524   7.365 -0.5520  0.6875  0.0657
 3278TIP3    H134029   6.072   4.457   7.367 -1.4541 -0.3101 -0.8014
 3278TIP3    H234030   6.042   4.596   7.316 -0.2680 -0.0536 -0.8344
 3279TIP3   OH234031   5.682   6.204   9.668 -0.3100 -0.4351 -0.0863
 3279TIP3    H134032   5.590   6.178   9.665 -1.0825  1.9628  0.7937
 3279TIP3    H234033   5.717   6.176   9.583 -1.4812 -2.4705  0.0258
 3280TIP3   OH234034   1.543   2.121   7.252  0.4277  0.3457  0.0003
 3280TIP3    H134035   1.487   2.123   7.174  1.4843  2.3192 -0.7853
 3280TIP3    H234036   1.632   2.110   7.217  0.6378 -3.9451  1.2715
 3281TIP3   OH234037   3.418   4.710   6.831 -0.0560 -0.3253  0.5908
 3281TIP3    H134038   3.393   4.618   6.840 -0.5147 -0.1100  1.6583
 3281TIP3    H234039   3.502   4.717   6.876 -1.3127  0.3050  3.0037
 3282TIP3   OH234040   1.945   0.519   7.263 -0.0847 -0.6662  0.2920
 3282TIP3    H134041   1.955   0.525   7.358 -0.2351 -1.8977  0.4048
 3282TIP3    H234042   2.027   0.554   7.228 -0.8798  1.8620  0.7764
 3283TIP3   OH234043   1.645   5.753   7.779  0.1704 -0.0729  0.0248
 3283TIP3    H134044   1.667   5.667   7.816  0.4456  0.0445  0.1291
 3283TIP3    H234045   1.720   5.776   7.726 -1.5483 -1.8574 -3.5900
 3284TIP3   OH234046   5.278   0.216   7.925  0.0991  0.3991 -0.1963
 3284TIP3    H134047   5.225   0.269   7.866 -0.3501  0.9894  0.7079
 3284TIP3    H234048   5.232   0.222   8.009  0.6699 -0.4909  0.1924
 3285TIP3   OH234049   6.979   1.807   7.884  0.5294  0.0097  0.0495
 3285TIP3    H134050   6.887   1.808   7.857  0.9254  2.5072 -1.5050
 3285TIP3    H234051   6.977   1.774   7.974 -1.7777 -0.6371 -0.1592
 3286TIP3   OH234052   0.443   5.085   9.117 -0.4004 -0.5033  0.2080
 3286TIP3    H134053   0.382   5.021   9.153  0.6115 -1.6446 -0.0456
 3286TIP3    H234054   0.398   5.169   9.127 -2.0675 -1.3156 -0.1071
 3287TIP3   OH234055   3.583   7.472   8.240 -0.2131 -0.3369  0.1294
 3287TIP3    H134056   3.531   7.460   8.319 -1.0174  0.4194 -0.2650
 3287TIP3    H234057   3.528   7.526   8.183  0.1092 -1.3204 -1.1716
 3288TIP3   OH234058   0.623   4.373   7.353  0.3282 -0.5013  0.3084
 3288TIP3    H134059   0.550   4.435   7.346  0.1585 -0.7598 -0.2431
 3288TIP3    H234060   0.618   4.321   7.273  0.2808 -1.4433  0.9119
 3289TIP3   OH234061   4.764   7.562   8.535 -0.3662  0.0919  0.3340
 3289TIP3    H134062   4.826   7.512   8.589  0.3632  0.2377 -0.3345
 3289TIP3    H234063   4.763   7.649   8.574  2.3165  1.0494 -1.4298
 3290TIP3   OH234064   6.647   3.367   8.810 -0.3936 -0.1101  0.1880
 3290TIP3    H134065   6.591   3.398   8.881 -0.3841  0.8531 -0.2052
 3290TIP3    H234066   6.628   3.274   8.802  0.5142 -0.5329  2.2771
 3291TIP3   OH234067   4.676   1.273   8.305  0.1492  0.0506 -0.2238
 3291TIP3    H134068   4.753   1.223   8.332  0.1306 -0.2118 -0.6555
 3291TIP3    H234069   4.619   1.209   8.263 -0.3275  0.2346  0.1278
 3292TIP3   OH234070   3.075   5.053   7.013 -0.4479 -0.6556 -0.5709
 3292TIP3    H134071   3.117   5.002   6.944  0.8271 -0.5582  0.1207
 3292TIP3    H234072   3.132   5.044   7.089 -0.4704  1.3274 -0.2504
 3293TIP3   OH234073   4.264   7.150   7.034 -0.2031  0.0495  0.0487
 3293TIP3    H134074   4.326   7.084   7.064  0.1573 -0.0711 -0.9302
 3293TIP3    H234075   4.244   7.202   7.113  0.9576 -0.0467  0.4160
 3294TIP3   OH234076   6.045   6.932   8.838 -0.3770  0.7666 -0.1049
 3294TIP3    H134077   6.061   6.962   8.749  0.2750  0.7712  0.0064
 3294TIP3    H234078   6.053   6.836   8.833  1.7354  0.8522  0.3036
 3295TIP3   OH234079   3.698   4.591   9.522  0.6118 -0.7417  0.8583
 3295TIP3    H134080   3.730   4.594   9.612  0.3983 -0.1932  0.9150
 3295TIP3    H234081   3.622   4.533   9.525  0.3990 -0.4489  1.0934
 3296TIP3   OH234082   7.298   0.132   7.407 -0.1386  0.0489 -0.4272
 3296TIP3    H134083   7.371   0.190   7.388  0.1942 -0.3465 -0.3835
 3296TIP3    H234084   7.270   0.100   7.322  0.5080 -0.7088 -0.3741
 3297TIP3   OH234085   2.074   5.231   7.792  0.4297  0.2591 -0.1739
 3297TIP3    H134086   2.150   5.244   7.734 -1.1577 -1.0571 -2.6911
 3297TIP3    H234087   2.033   5.318   7.796  0.1430  0.2197 -1.7017
 3298TIP3   OH234088   5.072   0.026   7.251  0.2023 -0.7445  0.2585
 3298TIP3    H134089   5.002  -0.029   7.219  1.4380 -1.9870 -0.4118
 3298TIP3    H234090   5.070   0.104   7.195  0.6369 -1.6969 -1.1200
 3299TIP3   OH234091   3.624   2.843   9.480  0.3940  0.0999 -0.0869
 3299TIP3    H134092   3.702   2.895   9.458  0.7647 -0.5064 -0.2132
 3299TIP3    H234093   3.658   2.767   9.526 -0.0161 -0.7667 -1.1712
 3300TIP3   OH234094   1.367   7.548   8.880 -0.0527 -0.6569 -0.4754
 3300TIP3    H134095   1.417   7.584   8.807  0.6287 -0.4495  0.0945
 3300TIP3    H234096   1.348   7.623   8.937 -0.3644 -0.8619 -0.3017
 3301TIP3   OH234097   7.273   3.700   7.556  0.1546 -0.5899  0.0034
 3301TIP3    H134098   7.280   3.746   7.640 -0.8344  0.0422 -0.2431
 3301TIP3    H234099   7.350   3.728   7.507  0.5028 -0.6112  0.5354
 3302TIP3   OH234100   7.410   3.807   7.760 -0.6832  0.8441 -0.4800
 3302TIP3    H134101   7.500   3.785   7.782 -0.3632  1.4977 -1.1143
 3302TIP3    H234102   7.411   3.900   7.740 -1.4590  0.8199 -0.6962
 3303TIP3   OH234103   0.381   5.518   9.362  0.6230  0.4015  0.0576
 3303TIP3    H134104   0.434   5.512   9.441 -0.2860 -0.1335  0.6395
 3303TIP3    H234105   0.423   5.459   9.300  0.7051 -0.0219  0.5155
 3304TIP3   OH234106   5.854   2.499   9.207  0.0725 -0.2591  0.1660
 3304TIP3    H134107   5.884   2.429   9.148 -1.2677 -0.2610 -0.5621
 3304TIP3    H234108   5.778   2.461   9.252 -1.6016  1.1531 -1.3168
 3305TIP3   OH234109   3.804   4.083   8.777 -0.2826  0.7036  0.0239
 3305TIP3    H134110   3.858   4.140   8.833  0.6393 -0.2290  0.1128
 3305TIP3    H234111   3.719   4.127   8.774 -0.0111  1.3753  1.2158
 3306TIP3   OH234112   3.323   1.876   7.799  0.1165 -0.2416 -0.6045
 3306TIP3    H134113   3.389   1.817   7.763 -0.2838 -0.7398 -0.5469
 3306TIP3    H234114   3.275   1.822   7.863  0.3403  0.4137  0.1297
 3307TIP3   OH234115   5.563   3.881   9.155  0.2289 -0.2281  0.5651
 3307TIP3    H134116   5.517   3.847   9.233 -2.5582  1.0521 -0.3849
 3307TIP3    H234117   5.500   3.870   9.084  2.2917 -0.3364 -1.3432
 3308TIP3   OH234118   4.465   1.259   7.225 -0.1000  1.0132 -0.3282
 3308TIP3    H134119   4.403   1.195   7.190 -0.9791  1.6947 -0.0353
 3308TIP3    H234120   4.551   1.226   7.198 -0.5921  0.1252 -0.8435
 3309TIP3   OH234121   1.420   4.570   7.579 -0.4766  0.1649  0.4352
 3309TIP3    H134122   1.486   4.637   7.600 -0.8449  0.3401  1.0719
 3309TIP3    H234123   1.471   4.494   7.551 -0.0702  1.0999 -1.5571
 3310TIP3   OH234124   5.307   3.679   8.230 -0.1724  0.2381  0.2859
 3310TIP3    H134125   5.302   3.758   8.285  1.0333  0.5438 -0.0140
 3310TIP3    H234126   5.337   3.712   8.145 -0.5590 -0.4290 -0.1090
 3311TIP3   OH234127   3.367   1.603   8.821 -0.3008 -0.1855 -0.2004
 3311TIP3    H134128   3.291   1.588   8.764 -1.1315  0.4468  0.7172
 3311TIP3    H234129   3.369   1.527   8.879 -1.1511  0.4910  0.7543
 3312TIP3   OH234130   1.411   0.484   9.468 -0.9540 -0.2806 -0.5858
 3312TIP3    H134131   1.420   0.416   9.534 -0.3901  0.4653  0.1180
 3312TIP3    H234132   1.316   0.490   9.452 -1.2113  0.3097  0.9958
 3313TIP3   OH234133   3.454   3.404   6.827  0.4967 -0.2673  0.0086
 3313TIP3    H134134   3.358   3.397   6.824  0.3710  1.2577 -0.4666
 3313TIP3    H234135   3.474   3.481   6.773  1.9376 -0.1138  0.7178
 3314TIP3   OH234136   2.393   0.481   7.679 -0.3805 -0.0761 -0.0119
 3314TIP3    H134137   2.450   0.408   7.705 -3.3322 -2.1792  1.1032
 3314TIP3    H234138   2.349   0.507   7.760 -3.3037 -0.7273 -1.2751
 3315TIP3   OH234139   2.923   2.910   7.674 -0.1098  0.3063 -0.2806
 3315TIP3    H134140   3.001   2.897   7.727  0.0417  1.1216 -0.2931
 3315TIP3    H234141   2.947   2.880   7.586  0.7554  2.0428 -0.6964
 3316TIP3   OH234142   3.502   5.202   7.157  0.2472  0.2608 -0.1815
 3316TIP3    H134143   3.511   5.126   7.100 -1.3750 -0.7347  0.8225
 3316TIP3    H234144   3.525   5.276   7.101  3.0168 -0.9853 -0.8704
 3317TIP3   OH234145   6.925   1.803   8.550  0.3491  0.0973 -0.5044
 3317TIP3    H134146   6.839   1.793   8.591  0.8662  1.2682  0.9523
 3317TIP3    H234147   6.947   1.715   8.520  0.2280 -1.0262  2.4085
 3318TIP3   OH234148   2.183   3.636   8.511  0.2237 -0.4658  0.0792
 3318TIP3    H134149   2.196   3.542   8.511  1.9426 -0.2598 -0.1877
 3318TIP3    H234150   2.214   3.665   8.597 -1.0813 -0.2139  0.4906
 3319TIP3   OH234151   3.487   2.570   7.560  0.1934 -0.0134  0.2649
 3319TIP3    H134152   3.475   2.480   7.528 -1.7187 -0.1728  1.2736
 3319TIP3    H234153   3.436   2.573   7.641  0.4844  1.9068  0.4103
 3320TIP3   OH234154   0.079   2.488   7.789  0.5759  0.6629 -0.2023
 3320TIP3    H134155  -0.002   2.439   7.779  0.6352  0.4166  0.5051
 3320TIP3    H234156   0.088   2.502   7.883  1.2159  0.9258 -0.2946
 3321TIP3   OH234157   4.871   4.185   9.048  0.0512 -0.2957  0.0064
 3321TIP3    H134158   4.791   4.228   9.018  0.7245  0.1960 -1.1656
 3321TIP3    H234159   4.933   4.199   8.977  0.7491 -1.9241  0.2644
 3322TIP3   OH234160   3.777   3.053   7.622  0.0224  0.4094 -0.3345
 3322TIP3    H134161   3.818   3.127   7.667 -1.9209  2.7161 -2.0574
 3322TIP3    H234162   3.690   3.047   7.660  0.6700 -2.2343  0.9724
 3323TIP3   OH234163   1.453   0.238   9.628  0.3186 -0.0308 -0.0951
 3323TIP3    H134164   1.369   0.191   9.631  0.4519 -0.4465 -1.8708
 3323TIP3    H234165   1.505   0.199   9.698 -1.6285  1.6832  2.5111
 3324TIP3   OH234166   3.399   6.524   8.009 -0.5758 -0.4219  0.0164
 3324TIP3    H134167   3.458   6.452   8.033  1.7756  0.6744 -1.9658
 3324TIP3    H234168   3.390   6.515   7.914 -0.4625  1.6778 -0.2301
 3325TIP3   OH234169   1.569   7.175   7.460 -0.3700  0.1774  0.1505
 3325TIP3    H134170   1.526   7.125   7.390 -0.1410  1.2113 -0.7572
 3325TIP3    H234171   1.649   7.208   7.419  0.7646 -0.8028  1.4915
 3326TIP3   OH234172   4.450   0.671   9.120 -0.0335  0.0238  0.3952
 3326TIP3    H134173   4.450   0.575   9.131 -1.6911 -0.0084  0.4039
 3326TIP3    H234174   4.361   0.697   9.144  0.0541  1.4356 -0.7140
 3327TIP3   OH234175   0.466   3.766   9.621 -0.0641 -0.6234  0.4452
 3327TIP3    H134176   0.539   3.729   9.671 -0.8711 -1.1357  1.2854
 3327TIP3    H234177   0.391   3.762   9.681 -0.3023  2.0532  0.4542
 3328TIP3   OH234178   1.100   3.394   8.217  0.6249 -0.2129  1.3016
 3328TIP3    H134179   1.130   3.469   8.268 -0.4269  1.3667 -0.2769
 3328TIP3    H234180   1.162   3.387   8.144 -1.3294  1.6596 -0.7139
 3329TIP3   OH234181   2.800   6.771   9.375  0.1740  0.6821  0.1432
 3329TIP3    H134182   2.826   6.859   9.348  0.4801  0.3736 -0.5875
 3329TIP3    H234183   2.781   6.779   9.469 -0.3489  1.6513 -0.0331
 3330TIP3   OH234184   1.527   6.964   8.120 -0.1275 -0.2739  0.1277
 3330TIP3    H134185   1.581   7.015   8.061 -0.3950  0.3911  0.4490
 3330TIP3    H234186   1.587   6.899   8.157 -0.2305 -1.5747 -1.8262
 3331TIP3   OH234187   3.196   6.635   9.073  0.0043 -0.0689  0.9557
 3331TIP3    H134188   3.229   6.718   9.038  0.4853 -1.0486 -1.0608
 3331TIP3    H234189   3.108   6.627   9.037  1.5772 -2.5545 -2.9842
 3332TIP3   OH234190   3.656   6.973   7.250  0.1760 -0.3279 -0.4346
 3332TIP3    H134191   3.663   6.907   7.318 -0.3865 -0.8874 -0.9011
 3332TIP3    H234192   3.562   6.989   7.242  0.3077  0.5462 -0.3145
 3333TIP3   OH234193   1.460   5.877   9.226  0.5336 -0.1338  0.2863
 3333TIP3    H134194   1.552   5.877   9.197  0.0569 -0.5895 -1.3193
 3333TIP3    H234195   1.426   5.962   9.197  0.0026 -0.6646 -0.7006
 3334TIP3   OH234196   4.773   3.902   9.087  0.7550 -0.0632 -0.6382
 3334TIP3    H134197   4.808   3.990   9.076  0.4940  0.1544  0.1556
 3334TIP3    H234198   4.703   3.913   9.152  0.1064 -0.7021 -1.2088
 3335TIP3   OH234199   7.353   1.589   9.398 -0.6127  0.5999  0.6171
 3335TIP3    H134200   7.295   1.565   9.327  0.1869  0.4263  0.0093
 3335TIP3    H234201   7.397   1.507   9.421 -0.0256  0.8841  0.5251
 3336TIP3   OH234202   4.288   0.242   8.049  0.3061  0.0177 -0.7076
 3336TIP3    H134203   4.343   0.217   7.975 -1.0840 -0.2055 -1.6804
 3336TIP3    H234204   4.322   0.190   8.122  0.5857 -1.0627 -1.5815
 3337TIP3   OH234205   0.101   7.055   7.347  0.4198  0.2240  0.2029
 3337TIP3    H134206   0.178   7.071   7.291  1.7892 -3.5048  0.7454
 3337TIP3    H234207   0.031   7.033   7.285  0.8461 -0.0586 -0.1924
 3338TIP3   OH234208   6.806   5.431   8.456 -0.1627 -0.4721  0.2826
 3338TIP3    H134209   6.858   5.507   8.483 -0.0692  0.0374 -1.2303
 3338TIP3    H234210   6.734   5.428   8.520  0.2457  0.4262  0.8147
 3339TIP3   OH234211   2.962   2.294   7.246  0.9387  0.2919 -0.0279
 3339TIP3    H134212   2.974   2.221   7.306  1.7453  1.6159  1.4688
 3339TIP3    H234213   3.044   2.343   7.250 -0.4569  2.6848  0.9529
 3340TIP3   OH234214   4.170   0.675   9.171 -0.3561 -0.3861  0.1946
 3340TIP3    H134215   4.146   0.593   9.128  0.3316  0.8366 -2.7045
 3340TIP3    H234216   4.092   0.699   9.222 -1.4692 -1.6015 -0.8588
 3341TIP3   OH234217   0.343   5.364   9.086 -0.0876  0.0249 -0.2993
 3341TIP3    H134218   0.373   5.454   9.077 -1.5690  0.4901 -0.9502
 3341TIP3    H234219   0.248   5.371   9.097 -0.1305 -1.4166  0.5853
 3342TIP3   OH234220   0.049   7.464   7.134  0.4570 -0.2000 -0.5412
 3342TIP3    H134221   0.124   7.410   7.109 -0.2523 -1.8465  0.6772
 3342TIP3    H234222  -0.024   7.402   7.138 -0.5427  0.9864  0.2574
 3343TIP3   OH234223   1.078   6.549   7.778  0.7994  0.4007 -0.1230
 3343TIP3    H134224   1.043   6.460   7.773 -2.1598  1.4863 -0.4994
 3343TIP3    H234225   1.150   6.542   7.842 -0.3848 -1.9527  1.1000
 3344TIP3   OH234226   1.734   7.448   7.236  0.5471 -0.2901  0.2264
 3344TIP3    H134227   1.728   7.414   7.147  0.3348 -2.0201  0.8674
 3344TIP3    H234228   1.665   7.513   7.242  0.5156 -0.2050 -0.8384
 3345TIP3   OH234229   4.031   3.915   9.125  0.6428 -0.5567  0.2039
 3345TIP3    H134230   4.094   3.986   9.117  1.1660 -1.0048  0.2631
 3345TIP3    H234231   3.946   3.956   9.107  1.0870 -0.2335 -1.3130
 3346TIP3   OH234232   2.315   1.455   8.756 -0.1802 -0.2754  0.8301
 3346TIP3    H134233   2.240   1.514   8.761  0.4969  0.8823 -1.6004
 3346TIP3    H234234   2.318   1.427   8.665  2.7980  0.3537  0.6402
 3347TIP3   OH234235   1.178   3.003   9.482 -0.2893  0.3063 -0.2661
 3347TIP3    H134236   1.095   2.969   9.515  0.5984 -1.4083  0.2931
 3347TIP3    H234237   1.198   3.078   9.538 -1.4085  0.7036 -0.3760
 3348TIP3   OH234238   1.270   3.626   8.685  0.5908  0.5146  0.4627
 3348TIP3    H134239   1.199   3.640   8.747 -1.3255  1.1216 -1.7114
 3348TIP3    H234240   1.325   3.704   8.693 -0.4124  1.2384  0.4326
 3349TIP3   OH234241   2.162   0.101   9.597  0.6575 -0.3782  0.6920
 3349TIP3    H134242   2.074   0.078   9.566  0.9945  0.0058 -0.6342
 3349TIP3    H234243   2.154   0.193   9.622  1.5739  1.0727 -3.4927
 3350TIP3   OH234244   4.202   6.124   8.475  0.4229 -0.0242 -0.0293
 3350TIP3    H134245   4.160   6.038   8.469  0.0738  0.0836  0.6870
 3350TIP3    H234246   4.198   6.146   8.569  2.9363 -0.4309  0.2490
 3351TIP3   OH234247   0.405   0.617   8.779 -0.8041 -0.4906 -0.3518
 3351TIP3    H134248   0.375   0.576   8.698  1.3613 -1.6700 -0.6360
 3351TIP3    H234249   0.470   0.556   8.814  1.4982  2.0206  0.0013
 3352TIP3   OH234250   0.813   1.186   7.372  0.3340 -0.1322 -0.6973
 3352TIP3    H134251   0.903   1.209   7.395  0.6395  0.3179 -2.2356
 3352TIP3    H234252   0.773   1.269   7.346 -0.3042 -0.4477 -0.7545
 3353TIP3   OH234253   0.435   6.744   9.615 -0.2270 -0.1999  1.1733
 3353TIP3    H134254   0.345   6.768   9.594 -0.3854 -0.2957  1.7348
 3353TIP3    H234255   0.428   6.689   9.693  0.1892 -1.4077  0.3922
 3354TIP3   OH234256   5.829   7.027   9.277  0.5524  0.0871 -0.0654
 3354TIP3    H134257   5.797   7.013   9.366  0.6810  0.6826  0.0794
 3354TIP3    H234258   5.921   7.000   9.280  0.0990 -1.5732 -0.4689
 3355TIP3   OH234259   2.317   2.753   6.500  0.7644  0.1792  0.1231
 3355TIP3    H134260   2.242   2.694   6.507  0.7213  0.2115 -0.0713
 3355TIP3    H234261   2.390   2.696   6.473  1.2302 -0.1849  2.0004
 3356TIP3   OH234262   5.573   0.233   8.955  0.0043 -0.3788 -0.5622
 3356TIP3    H134263   5.598   0.284   8.878  0.1321  0.5954  0.1120
 3356TIP3    H234264   5.647   0.173   8.968  0.7265  0.5607 -0.2478
 3357TIP3   OH234265   4.629   6.772   9.655  0.6660  0.2649  0.2447
 3357TIP3    H134266   4.566   6.830   9.698 -0.2435  0.6410 -1.5390
 3357TIP3    H234267   4.714   6.814   9.670  0.3817  0.4054  1.6070
 3358TIP3   OH234268   5.164   4.937   9.064  0.0336  0.3508  0.6544
 3358TIP3    H134269   5.242   4.983   9.034 -0.7835  1.5079  0.2227
 3358TIP3    H234270   5.195   4.879   9.133  1.6283 -0.8475 -0.9593
 3359TIP3   OH234271   4.698   1.992   8.621  0.3772  0.5103  0.4175
 3359TIP3    H134272   4.644   2.016   8.546  1.8741  1.6858 -0.3340
 3359TIP3    H234273   4.636   1.963   8.687 -1.0870  0.9310 -0.7258
 3360TIP3   OH234274   4.157   5.137   7.345 -0.0927  0.4645 -0.3509
 3360TIP3    H134275   4.165   5.089   7.263 -1.1574 -1.2433  0.4795
 3360TIP3    H234276   4.231   5.106   7.398  0.3341  1.2278 -0.4780
 3361TIP3   OH234277   6.117   2.611   8.963  0.3253 -0.0845  0.2688
 3361TIP3    H134278   6.081   2.603   8.875  0.5263  0.9398  0.0841
 3361TIP3    H234279   6.051   2.662   9.011 -1.1815 -3.0025  1.5494
 3362TIP3   OH234280   1.095   7.476   8.064  0.3193  0.4644  0.0673
 3362TIP3    H134281   1.029   7.546   8.060  1.4648  1.5678 -0.1744
 3362TIP3    H234282   1.142   7.483   7.982  0.9079 -0.1420  0.3446
 3363TIP3   OH234283   1.933   2.793   8.341 -0.1240 -0.1037 -0.1565
 3363TIP3    H134284   1.929   2.863   8.276 -0.4400 -1.7330 -1.9744
 3363TIP3    H234285   1.989   2.726   8.302  0.1743 -0.9013  1.5214
 3364TIP3   OH234286   2.861   0.919   7.192 -0.1974 -0.0360  0.2702
 3364TIP3    H134287   2.894   0.857   7.127 -0.5043 -0.7749  0.7960
 3364TIP3    H234288   2.854   0.867   7.273 -2.0275  0.2417  0.3336
 3365TIP3   OH234289   2.067   6.256   7.328 -0.3494 -0.2275 -0.1893
 3365TIP3    H134290   2.028   6.335   7.365  0.4389  0.2029 -0.2730
 3365TIP3    H234291   2.077   6.275   7.235 -1.0000 -0.7767 -0.3836
 3366TIP3   OH234292   2.866   0.001   8.272 -0.4769 -0.4178 -0.0586
 3366TIP3    H134293   2.838  -0.010   8.181 -3.2402 -1.6447  0.8295
 3366TIP3    H234294   2.813   0.074   8.305 -0.7448 -1.0716  0.9990
 3367TIP3   OH234295   2.069   7.239   7.622 -0.3372 -0.1615 -0.2640
 3367TIP3    H134296   2.042   7.288   7.544 -1.2333 -0.5726 -0.2228
 3367TIP3    H234297   2.093   7.307   7.686  2.1695  0.1831 -1.4523
 3368TIP3   OH234298   7.115   0.592   8.626 -0.0777 -0.1182  0.1496
 3368TIP3    H134299   7.050   0.523   8.614  0.1912 -0.1892 -1.0243
 3368TIP3    H234300   7.199   0.546   8.628  0.1868  0.2156 -1.6098
 3369TIP3   OH234301   4.718   2.675   7.972 -0.6495 -0.1487  0.8800
 3369TIP3    H134302   4.629   2.643   7.986 -0.4239 -1.7401 -0.8765
 3369TIP3    H234303   4.773   2.597   7.980  0.9251  1.1067  3.9977
 3370TIP3   OH234304   7.382   4.775   8.236 -0.1109  0.6531 -0.4552
 3370TIP3    H134305   7.336   4.693   8.251 -0.0044  0.6622 -0.0673
 3370TIP3    H234306   7.475   4.751   8.236 -0.0105  0.9369  0.8511
 3371TIP3   OH234307   3.359   1.276   9.253 -0.1649 -0.1256  0.1807
 3371TIP3    H134308   3.276   1.321   9.235 -0.5421 -1.5741 -2.1761
 3371TIP3    H234309   3.344   1.232   9.337 -0.4207  2.5190  1.6235
 3372TIP3   OH234310   4.029   4.006   8.453 -0.2039 -0.2626 -0.2604
 3372TIP3    H134311   4.015   4.094   8.418  1.2317  0.1245  0.0618
 3372TIP3    H234312   4.035   4.018   8.548 -1.4309 -0.9289 -0.0755
 3373TIP3   OH234313   2.787   5.482   7.514 -0.3641 -0.0396 -0.0661
 3373TIP3    H134314   2.789   5.498   7.608  1.8965  2.7632 -0.4698
 3373TIP3    H234315   2.836   5.401   7.502 -1.2641 -0.8002  1.1742
 3374TIP3   OH234316   7.072   1.449   9.021  0.7296  1.0380  0.1438
 3374TIP3    H134317   7.002   1.482   9.076  1.5907  2.4410  0.4535
 3374TIP3    H234318   7.067   1.501   8.941  0.3222 -0.0774 -0.5870
 3375TIP3   OH234319   2.061   5.102   7.223 -0.1847  0.2058 -0.3563
 3375TIP3    H134320   2.135   5.154   7.254 -1.0778 -0.1208  2.6465
 3375TIP3    H234321   2.093   5.012   7.224 -0.1652  0.2088 -0.6012
 3376TIP3   OH234322   4.302   4.354   8.799  0.0630  0.0851 -0.5673
 3376TIP3    H134323   4.224   4.409   8.808 -0.2772 -0.4612 -0.0710
 3376TIP3    H234324   4.270   4.265   8.818  1.0369 -0.0026  0.8192
 3377TIP3   OH234325   2.958   5.507   8.224 -0.2257 -0.1982 -0.9775
 3377TIP3    H134326   2.912   5.524   8.306  1.1562  0.9909 -0.4051
 3377TIP3    H234327   3.026   5.574   8.220  0.6662 -1.1224 -2.3914
 3378TIP3   OH234328   1.369   1.686   9.339  0.4168 -0.3162 -0.1574
 3378TIP3    H134329   1.354   1.610   9.396 -2.0120  0.7861  0.7957
 3378TIP3    H234330   1.383   1.759   9.399  1.1139  0.3039 -1.0422
 3379TIP3   OH234331   3.021   3.579   9.832 -0.1371 -0.3303  0.5090
 3379TIP3    H134332   3.019   3.487   9.805  0.3459 -0.6927  1.6569
 3379TIP3    H234333   2.932   3.610   9.817 -0.3629 -1.0480  0.3073
 3380TIP3   OH234334   0.926   5.510   7.809 -1.1153 -0.4800  0.1487
 3380TIP3    H134335   1.011   5.550   7.822 -1.2275  0.0278 -0.5811
 3380TIP3    H234336   0.864   5.584   7.809 -1.2222 -0.4914 -2.1537
 3381TIP3   OH234337   0.449   3.904   8.719  0.4281 -0.4481  0.4364
 3381TIP3    H134338   0.529   3.954   8.731  0.1046  0.1705  0.0517
 3381TIP3    H234339   0.383   3.952   8.769  0.0547 -0.3189 -0.1633
 3382TIP3   OH234340   4.828   5.554   7.732 -0.4646 -0.6297 -0.4527
 3382TIP3    H134341   4.880   5.602   7.667  0.3961 -1.0840 -0.1109
 3382TIP3    H234342   4.808   5.471   7.689  0.4405 -1.0930 -0.0145
 3383TIP3   OH234343   2.162   7.108   8.066  0.0998 -0.0010  0.4192
 3383TIP3    H134344   2.256   7.114   8.082  0.3541 -0.5904 -0.7522
 3383TIP3    H234345   2.131   7.198   8.074  0.7188  0.1745  0.9917
 3384TIP3   OH234346   5.119   5.988   9.125  0.5115  0.2872 -0.2597
 3384TIP3    H134347   5.072   5.908   9.100 -0.2499  0.4288  0.6539
 3384TIP3    H234348   5.172   5.962   9.201  0.7646  0.4928 -0.3653
 3385TIP3   OH234349   5.886   4.755   8.536 -0.1243  0.5129 -0.5869
 3385TIP3    H134350   5.930   4.700   8.472 -0.3874 -0.4557  0.0339
 3385TIP3    H234351   5.792   4.743   8.517 -0.1771  0.8530 -0.5389
 3386TIP3   OH234352   2.063   7.486   9.014  0.1080  0.1471  0.2102
 3386TIP3    H134353   2.053   7.459   9.106 -0.8972  3.1164  1.0935
 3386TIP3    H234354   2.015   7.419   8.964  0.4114 -1.3737  1.8486
 3387TIP3   OH234355   2.156   0.961   7.231 -0.7778  0.2899 -0.0419
 3387TIP3    H134356   2.214   0.976   7.156  0.3137  0.3939  0.7973
 3387TIP3    H234357   2.215   0.937   7.303 -1.8152  0.0172  0.7460
 3388TIP3   OH234358   6.217   3.296   6.926  0.0504 -0.1741  0.0965
 3388TIP3    H134359   6.218   3.232   6.855  0.7681  0.8556 -0.8392
 3388TIP3    H234360   6.126   3.325   6.931  0.3579  1.2454 -1.7993
 3389TIP3   OH234361   4.268   7.260   8.183 -0.4359 -0.1661  0.1903
 3389TIP3    H134362   4.248   7.305   8.265  0.7470  1.6656 -0.4629
 3389TIP3    H234363   4.225   7.312   8.115  0.8657 -0.0693 -0.5918
 3390TIP3   OH234364   3.672   2.659   8.368  0.1855 -0.1884  0.1250
 3390TIP3    H134365   3.699   2.613   8.289  2.0701  0.7906  0.1197
 3390TIP3    H234366   3.734   2.629   8.436 -0.2838  0.2860  0.7798
 3391TIP3   OH234367   2.581   4.218   7.641  0.0500  0.1060 -0.1648
 3391TIP3    H134368   2.614   4.239   7.729 -0.7794  0.3649  0.0886
 3391TIP3    H234369   2.653   4.242   7.583  0.4268  0.3892  0.4027
 3392TIP3   OH234370   2.271   3.366   8.425  0.2750 -0.8449  0.3757
 3392TIP3    H134371   2.364   3.353   8.444  0.5497  1.1278  0.5947
 3392TIP3    H234372   2.261   3.339   8.334  1.8557  2.0457 -0.7794
 3393TIP3   OH234373   4.067   2.494   7.500  0.0999  0.7195 -0.1565
 3393TIP3    H134374   4.058   2.487   7.595  2.1226  0.3526  0.0429
 3393TIP3    H234375   4.055   2.587   7.482 -1.8806  0.5956  0.2192
 3394TIP3   OH234376   6.269   5.286   8.646 -0.9407  0.0982  0.1256
 3394TIP3    H134377   6.233   5.362   8.601  0.2442  0.3036 -0.5304
 3394TIP3    H234378   6.211   5.272   8.720 -2.2084  0.5454 -0.7379
 3395TIP3   OH234379   2.068   0.015   7.525  0.0657 -0.7929  0.0743
 3395TIP3    H134380   2.055   0.026   7.619 -0.5464 -0.0560 -0.0863
 3395TIP3    H234381   2.000  -0.047   7.499  0.0623 -0.7869  0.0686
 3396TIP3   OH234382   5.628   5.620   8.452 -0.3622  0.0472 -0.2522
 3396TIP3    H134383   5.621   5.577   8.367  0.4436 -1.9994  0.6499
 3396TIP3    H234384   5.540   5.654   8.469 -0.8907 -0.7447 -1.2786
 3397TIP3   OH234385   1.243   5.449   7.918 -0.0255  0.2086  0.6031
 3397TIP3    H134386   1.277   5.366   7.950  2.4067  0.0308 -1.9738
 3397TIP3    H234387   1.307   5.478   7.853 -3.3193  1.5091 -2.4546
 3398TIP3   OH234388   0.227   3.275   9.141 -0.1440  0.8311 -0.1224
 3398TIP3    H134389   0.249   3.366   9.162 -0.3525  0.6701  0.8416
 3398TIP3    H234390   0.168   3.281   9.066  0.5850  1.4378 -0.6639
 3399TIP3   OH234391   4.628   5.712   8.404 -0.4077  0.1866  0.1859
 3399TIP3    H134392   4.656   5.719   8.312 -1.1685 -1.1385 -0.1632
 3399TIP3    H234393   4.537   5.741   8.403 -0.6323 -0.5008  0.3970
 3400TIP3   OH234394   5.637   5.709   8.193  0.2365  0.1341 -0.0984
 3400TIP3    H134395   5.562   5.762   8.222 -0.5383 -0.1745 -1.3951
 3400TIP3    H234396   5.714   5.756   8.223 -0.4812  0.8168  0.7041
 3401TIP3   OH234397   3.236   5.408   8.880  0.2436 -0.2539  0.2960
 3401TIP3    H134398   3.306   5.407   8.945  0.0612 -1.5689  0.5012
 3401TIP3    H234399   3.178   5.336   8.906 -0.7947  0.3553 -0.2871
 3402TIP3   OH234400   0.668   4.201   7.599  0.3336  0.1118  0.7043
 3402TIP3    H134401   0.675   4.270   7.534 -0.2262 -1.6499 -1.3484
 3402TIP3    H234402   0.578   4.205   7.630 -0.0398 -0.4313 -0.2928
 3403TIP3   OH234403   2.213   5.888   7.950  0.8232 -0.1254 -0.2833
 3403TIP3    H134404   2.121   5.882   7.927  1.2829 -2.3871 -1.9187
 3403TIP3    H234405   2.215   5.882   8.046 -0.7330  0.7689 -0.1723
 3404TIP3   OH234406   4.437   4.804   7.735 -0.0242  0.8267 -0.1183
 3404TIP3    H134407   4.402   4.739   7.796 -0.7962  0.8845 -0.4865
 3404TIP3    H234408   4.472   4.874   7.791  0.8652  0.0846  0.2847
 3405TIP3   OH234409   7.250   5.100   7.368 -0.4883 -0.0782  0.3028
 3405TIP3    H134410   7.169   5.103   7.418  0.2271  0.3919  1.4926
 3405TIP3    H234411   7.254   5.011   7.333 -1.3440 -0.1985  0.4965
 3406TIP3   OH234412   4.732   2.317   8.573 -0.0156  0.2136  0.0061
 3406TIP3    H134413   4.740   2.231   8.614  0.0318  0.5355  0.6818
 3406TIP3    H234414   4.751   2.379   8.643  1.7254  0.7529 -0.8791
 3407TIP3   OH234415   1.725   3.839   8.443  0.7300  0.0181 -0.4647
 3407TIP3    H134416   1.819   3.825   8.452  0.4431 -1.4564  0.5516
 3407TIP3    H234417   1.707   3.915   8.499  1.3575  0.6251 -1.0568
 3408TIP3   OH234418   2.161   7.000   7.065 -0.1564  0.4376 -0.2794
 3408TIP3    H134419   2.249   7.003   7.029  0.1063  2.1857  0.4039
 3408TIP3    H234420   2.138   6.907   7.065  0.9670  0.1085 -2.1313
 3409TIP3   OH234421   5.210   1.983   8.066 -0.1684  0.0180  0.3053
 3409TIP3    H134422   5.199   1.969   8.160 -1.5148 -2.7933 -0.1433
 3409TIP3    H234423   5.202   1.895   8.028 -0.0539  1.1005 -2.4799
 3410TIP3   OH234424   4.558   6.755   9.015  0.2303 -0.5154  0.0248
 3410TIP3    H134425   4.489   6.796   9.067 -1.5528 -1.7902 -1.2303
 3410TIP3    H234426   4.603   6.829   8.974  1.0924  0.4597  2.5280
 3411TIP3   OH234427   5.464   0.036   8.259 -0.8627  0.2725 -0.5302
 3411TIP3    H134428   5.430  -0.049   8.231 -1.5670  0.8664 -1.5903
 3411TIP3    H234429   5.488   0.024   8.351 -0.5407 -1.1775 -0.7830
 3412TIP3   OH234430   0.053   5.969   8.073 -0.2141  0.1575  0.1019
 3412TIP3    H134431   0.136   6.015   8.058 -0.5622  0.3945 -1.1766
 3412TIP3    H234432   0.007   6.024   8.136 -0.1387  0.9825 -0.5430
 3413TIP3   OH234433   0.762   6.440   8.141 -0.2886  0.0434  0.6473
 3413TIP3    H134434   0.687   6.407   8.191 -2.6768  1.8161 -1.5124
 3413TIP3    H234435   0.791   6.364   8.090 -0.3678 -0.7396  1.7167
 3414TIP3   OH234436   1.700   2.543   8.526 -0.0700 -0.4506  0.2338
 3414TIP3    H134437   1.793   2.564   8.533 -0.1507  0.2272 -0.5554
 3414TIP3    H234438   1.655   2.623   8.551 -0.4264 -0.5022 -0.2284
 3415TIP3   OH234439   3.920   5.655   6.599 -0.4712  0.0489  0.0996
 3415TIP3    H134440   3.966   5.714   6.540 -2.9612  0.2552 -1.8442
 3415TIP3    H234441   3.974   5.650   6.677  2.3109  0.8895 -1.6535
 3416TIP3   OH234442   7.450   0.841   8.752  0.2588  0.4884  0.1873
 3416TIP3    H134443   7.511   0.906   8.716 -0.4600 -0.0974 -2.2422
 3416TIP3    H234444   7.498   0.758   8.746  0.0867  0.3608  0.5432
 3417TIP3   OH234445   6.210   6.798   9.163 -0.7071 -0.1737  0.3495
 3417TIP3    H134446   6.126   6.831   9.193  0.1119  2.3857  0.0158
 3417TIP3    H234447   6.192   6.764   9.075 -1.6608 -1.1000  0.8804
 3418TIP3   OH234448   2.093   0.496   6.751  0.0956  0.2480  0.8821
 3418TIP3    H134449   2.162   0.432   6.733  1.1898  1.4870  0.4472
 3418TIP3    H234450   2.024   0.446   6.795 -0.3528 -1.8151 -1.9202
 3419TIP3   OH234451   4.485   0.098   9.556  0.0461 -0.5127 -0.2474
 3419TIP3    H134452   4.428   0.031   9.593  0.1076  0.4512  1.7137
 3419TIP3    H234453   4.432   0.178   9.557  1.1626  0.2576  0.9898
 3420TIP3   OH234454   3.920   3.772   8.208 -0.8644 -0.0132 -0.1681
 3420TIP3    H134455   3.983   3.710   8.170 -1.9311 -0.8210 -0.6699
 3420TIP3    H234456   3.946   3.777   8.300  0.2885  0.1229 -0.4806
 3421TIP3   OH234457   2.925   1.947   9.690 -0.0564 -0.1129  0.5193
 3421TIP3    H134458   2.976   1.868   9.672 -0.1471  0.3437 -2.1453
 3421TIP3    H234459   2.985   2.004   9.739  1.3314 -0.3717 -0.8264
 3422TIP3   OH234460   3.117   3.239   9.378 -0.1595 -0.1259  0.0025
 3422TIP3    H134461   3.099   3.169   9.314 -1.2703 -0.0492  0.2010
 3422TIP3    H234462   3.058   3.220   9.451 -0.0267  0.6730  0.3255
 3423TIP3   OH234463   6.449   6.857   8.285 -0.0694 -0.0416  0.4454
 3423TIP3    H134464   6.531   6.807   8.285  0.6879  1.1332 -0.4415
 3423TIP3    H234465   6.423   6.859   8.377  0.9172 -0.4007  0.7553
 3424TIP3   OH234466   1.982   1.826   7.151 -0.1180 -0.2918 -0.6661
 3424TIP3    H134467   1.894   1.816   7.188  0.5300 -1.5537  0.6435
 3424TIP3    H234468   1.974   1.794   7.061 -0.8572 -1.0424 -0.3461
 3425TIP3   OH234469   5.934   5.609   7.820 -0.0870  0.4451  0.2400
 3425TIP3    H134470   5.881   5.689   7.824  0.4732  0.8321  0.0823
 3425TIP3    H234471   5.987   5.619   7.741  0.9504  0.5379  0.9218
 3426TIP3   OH234472   7.276   7.295   8.835 -0.2743 -0.0838  0.0627
 3426TIP3    H134473   7.357   7.245   8.828 -0.9018 -1.0331 -0.7083
 3426TIP3    H234474   7.231   7.257   8.910  0.0523  0.5508  0.5898
 3427TIP3   OH234475   4.866   4.091   8.476  0.4568  0.0828 -0.0783
 3427TIP3    H134476   4.870   4.007   8.521  0.7214 -0.3053 -0.8050
 3427TIP3    H234477   4.780   4.092   8.434  0.3387  0.3041  0.1664
 3428TIP3   OH234478   4.815   7.413   6.695  0.3231 -0.2577  0.2336
 3428TIP3    H134479   4.879   7.343   6.708 -0.3788 -1.0937 -0.6937
 3428TIP3    H234480   4.805   7.419   6.600 -0.2929  0.4948  0.3371
 3429TIP3   OH234481   6.003   4.247   8.875 -0.1509 -0.0497 -0.0581
 3429TIP3    H134482   5.974   4.246   8.966 -1.7761 -0.0570 -0.5439
 3429TIP3    H234483   5.997   4.156   8.847  0.3290 -0.0437 -0.1930
 3430TIP3   OH234484   1.240   2.517   8.883  0.1014  0.5644  0.1217
 3430TIP3    H134485   1.259   2.541   8.974  1.1792 -0.7075  0.2783
 3430TIP3    H234486   1.194   2.433   8.890  2.3144 -0.7923 -0.5128
 3431TIP3   OH234487   1.409   1.038   8.053 -0.4157 -0.1087  0.6471
 3431TIP3    H134488   1.321   1.062   8.022  0.1241  0.6298 -0.3809
 3431TIP3    H234489   1.441   1.117   8.096 -0.5198 -0.6088  1.6608
 3432TIP3   OH234490   5.449   1.782   8.504 -0.1856  0.5087 -0.3112
 3432TIP3    H134491   5.499   1.700   8.500 -1.5115 -0.3838  0.2895
 3432TIP3    H234492   5.406   1.779   8.589  0.0314  2.0374 -0.1240
 3433TIP3   OH234493   4.467   4.518   6.827  0.2490 -0.1398  0.6346
 3433TIP3    H134494   4.530   4.590   6.822  1.4332 -1.2202 -2.7493
 3433TIP3    H234495   4.389   4.552   6.783  0.7393 -0.7875 -0.7852
 3434TIP3   OH234496   1.766   3.424   9.373  0.4043  0.1758 -0.1641
 3434TIP3    H134497   1.730   3.409   9.460 -0.5426 -1.7274 -0.8076
 3434TIP3    H234498   1.779   3.336   9.338 -2.8694  0.7216 -3.3463
 3435TIP3   OH234499   7.089   5.300   8.070 -0.2392  0.2885 -0.1118
 3435TIP3    H134500   7.030   5.284   8.144 -0.9488 -0.1923 -0.7521
 3435TIP3    H234501   7.030   5.315   7.996  0.4394 -0.1795 -0.7688
 3436TIP3   OH234502   7.257   7.138   7.298  0.3815  0.2003 -0.2539
 3436TIP3    H134503   7.170   7.118   7.332  1.0026 -0.0767  1.2424
 3436TIP3    H234504   7.272   7.073   7.230 -0.7482  0.5278 -0.8310
 3437TIP3   OH234505   2.922   4.093   9.183  0.0259 -0.7962 -0.7121
 3437TIP3    H134506   2.955   4.006   9.162  0.9792 -0.7978  0.6774
 3437TIP3    H234507   2.840   4.077   9.228  0.0298 -0.9535 -0.7582
 3438TIP3   OH234508   2.262   7.451   9.718  0.4200  0.1220  0.1690
 3438TIP3    H134509   2.229   7.474   9.805 -0.8862  0.7316 -0.4720
 3438TIP3    H234510   2.248   7.529   9.665  0.2576 -0.5870 -0.8551
 3439TIP3   OH234511   7.508   3.695   8.085 -0.2259 -0.1460 -0.1743
 3439TIP3    H134512   7.572   3.665   8.020 -0.2269  0.3463 -0.4085
 3439TIP3    H234513   7.499   3.789   8.068  0.7456  0.2695  1.3647
 3440TIP3   OH234514   6.038   0.924   8.115 -0.1035 -0.5694  0.4344
 3440TIP3    H134515   6.026   0.914   8.020  2.5297 -2.2340  0.1567
 3440TIP3    H234516   5.953   0.902   8.152 -0.5700 -2.3150 -1.4604
 3441TIP3   OH234517   2.427   2.868   7.938  0.3112 -0.0372  0.1027
 3441TIP3    H134518   2.468   2.840   7.856  1.7193 -1.4134  1.2009
 3441TIP3    H234519   2.468   2.813   8.005 -1.6011  0.2625  1.6062
 3442TIP3   OH234520   1.084   0.273   7.269  0.0978 -0.6446  0.1743
 3442TIP3    H134521   1.017   0.229   7.218  0.1074 -0.9462  0.4195
 3442TIP3    H234522   1.167   0.234   7.240  0.1530 -0.4028  0.0024
 3443TIP3   OH234523   2.632   0.959   7.424 -0.6666  0.3812 -0.2980
 3443TIP3    H134524   2.579   0.908   7.363 -0.6010 -0.1374  0.0775
 3443TIP3    H234525   2.645   1.043   7.380 -2.3836  0.7839 -0.1143
 3444TIP3   OH234526   5.425   2.828   9.341 -0.5926  0.0369  0.0923
 3444TIP3    H134527   5.463   2.916   9.343  2.6644 -0.9900 -3.8360
 3444TIP3    H234528   5.486   2.775   9.391 -1.0982 -0.4494  0.2047
 3445TIP3   OH234529   0.565   6.180   8.994  0.3910 -0.0520 -0.4332
 3445TIP3    H134530   0.658   6.193   8.982  0.9579 -3.0997 -0.2258
 3445TIP3    H234531   0.554   6.175   9.089  0.5195 -2.0633 -0.4678
 3446TIP3   OH234532   6.514   0.750   7.909  0.2184 -0.5994 -0.9431
 3446TIP3    H134533   6.538   0.740   8.001  0.9119  1.3163 -0.8625
 3446TIP3    H234534   6.578   0.697   7.861  0.0966 -1.2882 -0.3445
 3447TIP3   OH234535   1.842   3.177   9.297 -0.0164  0.5959  0.1925
 3447TIP3    H134536   1.904   3.143   9.234 -1.9486 -3.1992  0.0449
 3447TIP3    H234537   1.759   3.180   9.250 -0.9230  0.6321  1.7225
 3448TIP3   OH234538   7.437   4.372   7.570 -0.0173 -0.1343 -0.4456
 3448TIP3    H134539   7.371   4.341   7.632  1.9008 -2.0016  0.8263
 3448TIP3    H234540   7.445   4.301   7.506 -2.2669  1.9262 -3.3068
 3449TIP3   OH234541   6.953   1.887   9.281  0.4903  0.8507 -0.0076
 3449TIP3    H134542   6.974   1.876   9.188  2.3564  1.7468  0.2524
 3449TIP3    H234543   6.987   1.974   9.303 -1.7186  1.5058  1.0702
 3450TIP3   OH234544   7.446   0.844   8.337  0.0434  0.2331 -0.1119
 3450TIP3    H134545   7.492   0.844   8.253 -1.7895 -1.2966 -1.2133
 3450TIP3    H234546   7.473   0.762   8.379 -1.1499 -0.3957 -0.5128
 3451TIP3   OH234547   6.355   2.997   9.311  0.1397 -0.3436 -0.6815
 3451TIP3    H134548   6.333   3.073   9.257 -3.5338 -0.3843  0.4370
 3451TIP3    H234549   6.337   2.921   9.255  0.6775 -0.4018 -0.7805
 3452TIP3   OH234550   1.964   4.480   7.320  0.1954 -0.0805 -0.7011
 3452TIP3    H134551   1.986   4.389   7.343  0.3238  0.6437  2.4466
 3452TIP3    H234552   1.872   4.489   7.344  0.3784  0.8192 -0.3382
 3453TIP3   OH234553   2.928   3.931   7.233  0.1535 -0.5465  0.6274
 3453TIP3    H134554   2.898   3.848   7.196 -0.1807 -0.7098  1.2412
 3453TIP3    H234555   2.988   3.905   7.303  0.0159 -0.2786  0.8499
 3454TIP3   OH234556   5.100   2.167   7.883 -0.0799  0.0997 -0.0038
 3454TIP3    H134557   5.146   2.137   7.804  0.1753  0.7723 -0.1153
 3454TIP3    H234558   5.151   2.131   7.955 -1.1078 -1.7137 -0.1251
 3455TIP3   OH234559   1.989   3.315   7.074 -0.2227  0.0964  0.0625
 3455TIP3    H134560   1.915   3.296   7.016 -0.3639 -2.5251  0.9617
 3455TIP3    H234561   2.066   3.306   7.019 -0.3585 -2.3446  0.1904
 3456TIP3   OH234562   1.560   5.120   7.379  0.0680 -0.4107 -0.3307
 3456TIP3    H134563   1.646   5.088   7.353 -0.2660  0.5063 -2.8181
 3456TIP3    H234564   1.577   5.201   7.426  0.6276 -1.4215  1.3022
 3457TIP3   OH234565   5.249   0.844   8.195  0.3944 -0.1411 -0.2665
 3457TIP3    H134566   5.177   0.793   8.231  0.8419  0.1495  1.1042
 3457TIP3    H234567   5.274   0.904   8.266  2.0703 -0.3378 -0.6477
 3458TIP3   OH234568   0.716   3.193   9.787  0.3066  0.0205  0.1144
 3458TIP3    H134569   0.774   3.221   9.716 -2.3902  0.7672 -1.9508
 3458TIP3    H234570   0.691   3.104   9.763  0.3883 -0.2047  0.8576
 3459TIP3   OH234571   0.219   3.036   7.350 -0.5994 -0.7377  0.3100
 3459TIP3    H134572   0.185   3.125   7.350 -0.3140 -0.6162 -0.6807
 3459TIP3    H234573   0.194   3.000   7.436  0.6095  0.7787  1.3429
 3460TIP3   OH234574   4.285   6.134   8.076 -0.0860 -0.4270  0.8713
 3460TIP3    H134575   4.322   6.171   7.996  2.0512 -2.6994  0.7178
 3460TIP3    H234576   4.284   6.208   8.138  0.8985  0.6679 -0.3718
 3461TIP3   OH234577   5.101   6.911   7.289 -0.0792 -0.3266  0.3706
 3461TIP3    H134578   5.148   6.960   7.220 -0.2056 -0.4812  0.1750
 3461TIP3    H234579   5.109   6.967   7.366 -0.7214  0.2829  0.0056
 3462TIP3   OH234580   0.763   1.593   8.150  0.3209  0.5433 -0.2065
 3462TIP3    H134581   0.835   1.634   8.102  0.7352  1.9597  1.5489
 3462TIP3    H234582   0.727   1.530   8.088  2.7390  0.1324 -1.3097
 3463TIP3   OH234583   0.809   2.377   9.039  0.5422  0.0140 -0.0437
 3463TIP3    H134584   0.795   2.303   9.099 -3.5006  1.5810  1.2876
 3463TIP3    H234585   0.868   2.435   9.087  0.0132 -0.2681  0.9911
 3464TIP3   OH234586   4.283   4.085   9.411  0.2942 -0.2695 -0.4163
 3464TIP3    H134587   4.290   4.099   9.317  0.0373  1.1818 -0.2478
 3464TIP3    H234588   4.189   4.090   9.429  0.4377  1.0871  0.1064
 3465TIP3   OH234589   1.266   6.518   7.998  0.8796  0.4005  0.2522
 3465TIP3    H134590   1.253   6.427   7.973  1.1794  0.3400  0.3088
 3465TIP3    H234591   1.202   6.534   8.067  0.9181  0.1900  0.3381
 3466TIP3   OH234592   3.325   1.071   8.243  0.5789 -0.4668  0.2846
 3466TIP3    H134593   3.401   1.053   8.299  0.3653  0.3728  0.8612
 3466TIP3    H234594   3.347   1.151   8.197  0.9245 -1.3699 -1.1781
 3467TIP3   OH234595   1.979   2.140   6.310  0.4776 -0.4116  0.0295
 3467TIP3    H134596   2.038   2.178   6.375  0.6524  1.2640 -1.0417
 3467TIP3    H234597   1.975   2.206   6.240 -1.2286 -1.2917 -0.7582
 3468TIP3   OH234598   1.289   4.110   9.764 -0.6943  0.0084  0.0119
 3468TIP3    H134599   1.373   4.071   9.738 -0.5262 -0.2189  0.8757
 3468TIP3    H234600   1.312   4.200   9.788 -0.4666 -0.4186  1.4718
 3469TIP3   OH234601   4.343   1.410   7.999  0.0081 -0.0118 -0.6200
 3469TIP3    H134602   4.394   1.457   7.933  1.3993  1.1662  1.1813
 3469TIP3    H234603   4.335   1.471   8.072 -1.7723 -1.1280  0.1964
 3470TIP3   OH234604   5.978   1.616   7.338  0.3728  0.7245  0.1843
 3470TIP3    H134605   5.912   1.578   7.397  1.0817 -0.6130  0.1498
 3470TIP3    H234606   5.952   1.586   7.251 -0.8533  2.9561 -0.2766
 3471TIP3   OH234607   0.864   5.616   8.105  0.3735 -0.1765  0.4367
 3471TIP3    H134608   0.932   5.552   8.082 -0.7350 -0.9149 -0.9675
 3471TIP3    H234609   0.856   5.609   8.200  1.6746 -0.6630  0.5306
 3472TIP3   OH234610   1.047   4.057   9.626  0.1353 -0.4689  0.6221
 3472TIP3    H134611   1.002   3.986   9.672 -1.2815 -0.4356 -0.6179
 3472TIP3    H234612   1.123   4.076   9.680  0.8730 -3.2879  0.7563
 3473TIP3   OH234613   4.067   5.436   9.137 -0.1414 -0.4779 -0.2040
 3473TIP3    H134614   3.972   5.445   9.150  0.0057 -0.3976  0.9317
 3473TIP3    H234615   4.089   5.505   9.075 -0.7231 -0.0414  0.0612
 3474TIP3   OH234616   5.726   4.228   8.433  0.5927 -0.0785 -0.0357
 3474TIP3    H134617   5.734   4.323   8.428  1.8639 -0.2258 -1.8008
 3474TIP3    H234618   5.645   4.208   8.385 -1.0729  0.2130  2.4684
 3475TIP3   OH234619   1.915   6.427   7.480  0.2506  0.1425  0.0688
 3475TIP3    H134620   1.915   6.491   7.550  0.3658  0.8281 -0.5479
 3475TIP3    H234621   1.823   6.407   7.464  0.2271 -0.0708  0.4523
 3476TIP3   OH234622   7.488   4.269   8.540  0.0498 -0.4056  0.3766
 3476TIP3    H134623   7.426   4.339   8.522  0.3003 -0.2277  0.1971
 3476TIP3    H234624   7.563   4.289   8.484 -0.0938 -1.1099 -0.0829
 3477TIP3   OH234625   4.741   2.627   7.389  0.6573  0.0651  0.0057
 3477TIP3    H134626   4.766   2.535   7.380 -1.4385 -0.4981 -0.5648
 3477TIP3    H234627   4.803   2.674   7.335  2.3121 -0.8848  0.9929
 3478TIP3   OH234628   5.673   0.652   8.091 -0.4111  0.5121  0.4182
 3478TIP3    H134629   5.597   0.685   8.139 -1.5571 -0.4930 -0.6277
 3478TIP3    H234630   5.675   0.559   8.112  1.1342  0.7071  1.1982
 3479TIP3   OH234631   2.725   5.206   7.756  1.0362 -0.0498  0.0375
 3479TIP3    H134632   2.723   5.289   7.805  0.2866  0.2123 -0.4270
 3479TIP3    H234633   2.633   5.187   7.737  1.2101 -0.9422  0.0473
 3480TIP3   OH234634   2.647   2.224   8.222  0.1552  0.0002 -0.0631
 3480TIP3    H134635   2.636   2.167   8.147  1.0613 -0.1082 -0.1285
 3480TIP3    H234636   2.685   2.305   8.186  0.4775 -0.0055  0.2477
 3481TIP3   OH234637   4.739   5.174   9.203 -0.1993  0.1225 -0.4553
 3481TIP3    H134638   4.680   5.232   9.154  1.7166  0.0540 -3.0350
 3481TIP3    H234639   4.800   5.140   9.137  0.8498 -2.2084  1.5486
 3482TIP3   OH234640   2.136   1.437   7.925 -0.3318 -0.0263  0.0745
 3482TIP3    H134641   2.227   1.453   7.948 -0.6539 -2.8051  4.3901
 3482TIP3    H234642   2.094   1.523   7.930  1.3916  0.7796  2.2528
 3483TIP3   OH234643   0.247   7.482   7.945 -0.0012  0.2148 -0.3028
 3483TIP3    H134644   0.246   7.410   8.008 -1.2237  0.4199 -0.0633
 3483TIP3    H234645   0.158   7.486   7.911  0.7875 -0.4059 -2.6657
 3484TIP3   OH234646   3.033   0.436   7.264 -0.5460  0.9018 -0.2315
 3484TIP3    H134647   3.112   0.489   7.269  1.5400 -2.0829  0.8826
 3484TIP3    H234648   3.007   0.439   7.172  1.0842  1.6303 -0.6919
 3485TIP3   OH234649   6.967   6.907   8.265 -0.5682  0.1694  1.0325
 3485TIP3    H134650   7.024   6.838   8.231 -0.4355  1.0519 -0.6257
 3485TIP3    H234651   7.017   6.988   8.255 -0.6972  0.5407  3.0183
 3486TIP3   OH234652   6.211   1.336   8.449 -0.4604  0.2266 -0.0861
 3486TIP3    H134653   6.226   1.414   8.502 -2.6199 -0.3871  1.5608
 3486TIP3    H234654   6.127   1.353   8.405 -0.0696 -0.4563 -1.1382
 3487TIP3   OH234655   5.438   3.503   8.880  0.2789 -0.3844 -0.0840
 3487TIP3    H134656   5.520   3.536   8.842 -0.8211  0.0301 -2.2245
 3487TIP3    H234657   5.373   3.569   8.857 -0.7126 -0.7520  1.5100
 3488TIP3   OH234658   6.651   5.840   7.972  0.1551  0.7096  0.0398
 3488TIP3    H134659   6.641   5.780   8.047 -0.1124  1.2085  0.4064
 3488TIP3    H234660   6.716   5.904   8.001 -0.8311  1.6168  0.3119
 3489TIP3   OH234661   5.609   5.288   8.936 -0.7741 -0.0149  0.1112
 3489TIP3    H134662   5.588   5.362   8.993 -1.4548 -0.1449  0.0394
 3489TIP3    H234663   5.701   5.268   8.956 -1.2526 -0.6795  1.9117
 3490TIP3   OH234664   4.144   0.048   8.830  0.1407 -0.2111  0.6435
 3490TIP3    H134665   4.196  -0.009   8.774  0.7362 -1.2617  2.1978
 3490TIP3    H234666   4.167   0.136   8.801  1.4105 -0.6901  0.0943
 3491TIP3   OH234667   1.723   5.853   8.502 -0.3665  0.7681  0.4256
 3491TIP3    H134668   1.727   5.810   8.588  0.1330  0.5989  0.3233
 3491TIP3    H234669   1.783   5.802   8.447 -0.6503  0.9036 -0.0123
 3492TIP3   OH234670   4.174   7.003   8.201 -0.4194 -0.2618 -0.4844
 3492TIP3    H134671   4.193   7.096   8.195  0.3122 -0.3149  0.6667
 3492TIP3    H234672   4.079   6.997   8.193 -0.4287  0.5377 -1.0016
 3493TIP3   OH234673   6.331   1.544   8.823 -0.0348  0.8378 -0.3629
 3493TIP3    H134674   6.304   1.625   8.866  1.0859  1.3944 -0.6645
 3493TIP3    H234675   6.423   1.535   8.845 -0.7839 -2.0233  2.2336
 3494TIP3   OH234676   4.994   6.702   7.082 -0.5562 -0.1632  0.4127
 3494TIP3    H134677   4.944   6.702   7.000  3.6276 -0.1243 -2.4474
 3494TIP3    H234678   5.028   6.792   7.089  0.2175 -0.5205  1.4517
 3495TIP3   OH234679   4.803   2.310   9.138 -0.3027 -0.3765 -0.2711
 3495TIP3    H134680   4.740   2.257   9.088 -0.3971 -0.2075 -0.3315
 3495TIP3    H234681   4.877   2.251   9.152  0.5311  0.1345 -2.2347
 3496TIP3   OH234682   2.988   0.551   8.714  0.4601  0.3985  0.3287
 3496TIP3    H134683   2.999   0.645   8.724 -1.5528  0.6832  0.2953
 3496TIP3    H234684   2.949   0.523   8.797 -2.1909  0.2422 -0.8446
 3497TIP3   OH234685   3.557   1.432   7.493  0.3016  0.1755  0.1689
 3497TIP3    H134686   3.556   1.359   7.556  1.2136  1.1272  1.3384
 3497TIP3    H234687   3.533   1.392   7.410  0.0556 -1.3273  0.9257
 3498TIP3   OH234688   3.617   0.886   7.548 -0.4822 -0.9631  0.2549
 3498TIP3    H134689   3.597   0.961   7.604 -1.6705 -0.9356 -0.1870
 3498TIP3    H234690   3.531   0.851   7.523 -0.2254  1.0309 -4.3080
 3499TIP3   OH234691   1.873   1.572   7.643 -0.3756 -0.4940 -0.3626
 3499TIP3    H134692   1.960   1.609   7.631 -0.7173 -0.0681 -1.7394
 3499TIP3    H234693   1.879   1.522   7.725  1.2764 -0.8412 -0.6486
 3500TIP3   OH234694   4.417   0.697   8.536 -0.5078  0.4548 -0.0098
 3500TIP3    H134695   4.370   0.777   8.561 -1.7233  0.0910 -1.0199
 3500TIP3    H234696   4.509   0.718   8.550 -0.9715  0.7769  3.2519
 3501TIP3   OH234697   1.101   1.868   6.298 -0.4027  0.2582 -0.4983
 3501TIP3    H134698   1.087   1.956   6.265 -2.0106  0.5821  0.8979
 3501TIP3    H234699   1.037   1.858   6.369 -0.1457 -1.9682 -0.4959
 3502TIP3   OH234700   1.645   2.763   7.886  0.4524  0.1894  0.6274
 3502TIP3    H134701   1.640   2.857   7.870 -0.4020  0.1210  0.4395
 3502TIP3    H234702   1.738   2.746   7.900  1.0985  0.5254 -2.6014
 3503TIP3   OH234703   0.410   6.273   8.093  0.1361  0.1718 -0.3312
 3503TIP3    H134704   0.409   6.184   8.130 -1.1051 -0.0074 -0.7418
 3503TIP3    H234705   0.327   6.312   8.122  0.0584  0.7221 -1.2531
 3504TIP3   OH234706   0.814   2.989   9.143 -0.1226 -0.1796  0.5172
 3504TIP3    H134707   0.904   2.966   9.121  0.0568 -0.1319  1.1630
 3504TIP3    H234708   0.763   2.911   9.121  0.2554 -0.6507  1.2403
 3505TIP3   OH234709   3.615   6.905   9.203 -0.4870 -0.2596  0.0561
 3505TIP3    H134710   3.623   6.994   9.238 -1.6363 -0.6323  1.3451
 3505TIP3    H234711   3.547   6.912   9.136 -0.1052 -0.0547 -0.3195
 3506TIP3   OH234712   5.047   0.412   9.304  0.6265  0.1650 -0.3629
 3506TIP3    H134713   5.058   0.439   9.213 -0.3142 -1.1961 -0.9232
 3506TIP3    H234714   5.037   0.493   9.353  0.4017  0.8959 -1.5895
 3507TIP3   OH234715   6.008   7.236   6.937  0.3246  0.0597  0.1570
 3507TIP3    H134716   5.937   7.179   6.968 -0.2967  2.5785  4.0700
 3507TIP3    H234717   5.976   7.325   6.953  3.3152  1.3819 -0.5689
 3508TIP3   OH234718   1.217   2.651   7.150 -0.1148  0.8710  0.0154
 3508TIP3    H134719   1.204   2.716   7.218  1.4354  0.5706  0.6301
 3508TIP3    H234720   1.199   2.697   7.068  1.3514  2.2044  0.4111
 3509TIP3   OH234721   0.955   7.321   9.218  0.0083  0.1669 -0.3551
 3509TIP3    H134722   0.934   7.414   9.229  1.3209  0.3716  0.7356
 3509TIP3    H234723   0.909   7.277   9.289  0.5470  0.1821  0.0091
 3510TIP3   OH234724   5.514   3.185   7.035 -0.3863  0.0670  0.0820
 3510TIP3    H134725   5.447   3.249   7.013 -0.4341 -0.2139 -0.6256
 3510TIP3    H234726   5.596   3.226   7.007 -0.5540 -0.7604 -1.7881
 3511TIP3   OH234727   0.826   5.443   7.419  0.0850 -0.3565  0.2885
 3511TIP3    H134728   0.772   5.500   7.474  0.2721 -0.2754  0.3914
 3511TIP3    H234729   0.815   5.356   7.457 -0.1010 -0.3657  0.2097
 3512TIP3   OH234730   0.251   2.043   8.685 -0.2395 -0.0201  1.0112
 3512TIP3    H134731   0.203   2.120   8.654 -1.0177 -1.2869 -1.1412
 3512TIP3    H234732   0.339   2.053   8.649 -0.5336 -0.4253  0.1395
 3513TIP3   OH234733   6.558   2.085   9.039  0.0112  0.4733  0.4129
 3513TIP3    H134734   6.486   2.139   9.073 -2.1229 -0.9164 -1.5601
 3513TIP3    H234735   6.587   2.130   8.960  1.3098  0.9716  1.1445
 3514TIP3   OH234736   4.374   6.993   8.832 -0.1493 -0.4517 -0.0603
 3514TIP3    H134737   4.390   6.899   8.821 -0.1385 -0.4753  0.1505
 3514TIP3    H234738   4.283   7.005   8.807 -1.0757 -1.0163  2.7232
 3515TIP3   OH234739   3.521   0.537   8.025 -0.2204 -0.1987  0.0798
 3515TIP3    H134740   3.488   0.533   8.115 -0.1305 -0.6581  0.0928
 3515TIP3    H234741   3.488   0.458   7.983 -2.5964  1.3115 -1.1137
 3516TIP3   OH234742   4.453   3.016   7.611 -0.0628  0.5651  0.1113
 3516TIP3    H134743   4.455   2.970   7.695 -0.6036 -1.6110 -1.0067
 3516TIP3    H234744   4.465   2.948   7.546 -2.8535  1.6877 -1.7465
 3517TIP3   OH234745   2.202   3.368   7.334 -0.6448  0.5694  0.3084
 3517TIP3    H134746   2.218   3.281   7.296  1.6699  0.5518  1.1731
 3517TIP3    H234747   2.262   3.426   7.287  0.5680  0.9690  2.2563
 3518TIP3   OH234748   0.164   4.611   7.642  0.0982  0.3522  0.4245
 3518TIP3    H134749   0.225   4.668   7.688 -0.7649  3.2198 -1.6951
 3518TIP3    H234750   0.081   4.622   7.690 -0.1088  1.0829 -0.0800
 3519TIP3   OH234751   6.709   1.412   9.142 -0.1440 -0.1642 -0.3484
 3519TIP3    H134752   6.624   1.371   9.125 -1.2975  1.5363  0.9395
 3519TIP3    H234753   6.736   1.377   9.226  0.1367 -0.2288 -0.4641
 3520TIP3   OH234754   4.084   4.198   9.207 -0.4693 -0.1343  0.2145
 3520TIP3    H134755   4.043   4.145   9.275 -0.7005 -0.8995 -0.4907
 3520TIP3    H234756   4.113   4.277   9.251  1.3386 -1.5233  1.6690
 3521TIP3   OH234757   6.445   2.821   7.498  0.0675 -0.4276  0.1915
 3521TIP3    H134758   6.490   2.741   7.526 -0.7939 -1.5907 -1.4867
 3521TIP3    H234759   6.352   2.796   7.495 -0.3456  0.9814  0.6870
 3522TIP3   OH234760   2.967   7.405   9.586  0.1888  0.1246 -0.0285
 3522TIP3    H134761   2.949   7.498   9.598 -0.3443 -0.0697  0.8106
 3522TIP3    H234762   3.042   7.402   9.527  0.7589  1.1160  0.6172
 3523TIP3   OH234763   0.607   0.616   7.661 -0.7129 -0.1063 -0.2234
 3523TIP3    H134764   0.564   0.699   7.640  0.0253  0.1881 -0.6259
 3523TIP3    H234765   0.582   0.598   7.752  0.5444  1.4830  0.4784
 3524TIP3   OH234766   0.189   7.051   8.709 -0.3531  0.0342 -0.1191
 3524TIP3    H134767   0.167   6.963   8.680 -0.3643 -0.1369  0.3933
 3524TIP3    H234768   0.196   7.044   8.804  0.8794  0.3075 -0.1699
 3525TIP3   OH234769   1.903   3.662   9.546 -0.7413 -0.4180 -0.2886
 3525TIP3    H134770   1.993   3.694   9.554 -0.3684 -1.3302 -0.6790
 3525TIP3    H234771   1.908   3.594   9.479 -1.5011 -1.2643  0.4810
 3526TIP3   OH234772   0.624   3.407   7.600 -0.0527  0.8421 -0.0159
 3526TIP3    H134773   0.629   3.467   7.525 -0.6201 -0.3805 -1.0811
 3526TIP3    H234774   0.713   3.404   7.635  0.1790  1.6004 -0.5256
 3527TIP3   OH234775   7.525   7.353   8.910  0.1157 -0.0558  0.2638
 3527TIP3    H134776   7.557   7.356   8.819  0.1588 -0.2204  0.2724
 3527TIP3    H234777   7.430   7.350   8.901  0.1058  0.3000  0.2340
 3528TIP3   OH234778   2.272   1.696   8.979 -0.4233 -0.0508 -0.0097
 3528TIP3    H134779   2.180   1.721   8.970 -0.6109 -0.4975  0.5796
 3528TIP3    H234780   2.296   1.726   9.067 -0.3756 -1.0560  0.3313
 3529TIP3   OH234781   1.157   3.919   8.908  0.2213 -0.3314 -0.2697
 3529TIP3    H134782   1.228   3.926   8.844  0.1485 -1.0556 -0.4391
 3529TIP3    H234783   1.080   3.898   8.856 -0.2472  0.9542 -0.1472
 3530TIP3   OH234784   4.815   7.473   7.689 -0.0160  0.1178  0.5452
 3530TIP3    H134785   4.810   7.377   7.685 -4.0246  0.1361  0.5129
 3530TIP3    H234786   4.850   7.499   7.604 -0.8326 -1.3378 -0.2801
 3531TIP3   OH234787   2.158   3.281   8.181 -0.5466  0.7764  0.0840
 3531TIP3    H134788   2.230   3.228   8.149 -0.0501  0.9945  0.8234
 3531TIP3    H234789   2.081   3.224   8.175 -0.0102 -0.0626  0.9467
 3532TIP3   OH234790   3.842   5.930   8.141 -0.0005  0.3055  0.3037
 3532TIP3    H134791   3.903   6.004   8.148  0.0295  0.1408  2.5912
 3532TIP3    H234792   3.887   5.867   8.085  0.5321  1.4696 -0.6348
 3533TIP3   OH234793   1.218   0.139   9.730 -0.7309  0.1640  0.1074
 3533TIP3    H134794   1.127   0.164   9.712 -0.8632  0.1272  0.6998
 3533TIP3    H234795   1.244   0.196   9.802 -0.4191 -0.1151  0.2150
 3534TIP3   OH234796   0.630   0.977   7.472 -0.4757 -0.2283  0.2045
 3534TIP3    H134797   0.619   0.894   7.425  3.4396 -2.4484  2.5861
 3534TIP3    H234798   0.711   1.014   7.435 -0.2643  0.6880  1.5299
 3535TIP3   OH234799   7.520   0.507   9.132 -0.7706 -0.7350  0.0224
 3535TIP3    H134800   7.450   0.562   9.097 -0.3686 -0.3166 -0.1499
 3535TIP3    H234801   7.599   0.536   9.085  0.4209  1.9853  3.2508
 3536TIP3   OH234802   6.878   0.283   8.795  0.2662 -0.6975 -0.0783
 3536TIP3    H134803   6.834   0.244   8.870  0.7366  0.6941  0.9839
 3536TIP3    H234804   6.808   0.307   8.735 -0.1779 -1.2458  0.2220
 3537TIP3   OH234805   3.757   3.695   9.124 -0.1765 -0.1621 -0.4264
 3537TIP3    H134806   3.684   3.634   9.124 -0.5854  0.2964  1.0734
 3537TIP3    H234807   3.834   3.640   9.140 -0.2654 -0.5439 -1.2529
 3538TIP3   OH234808   5.633   4.764   7.185 -0.3559  0.0386 -0.7153
 3538TIP3    H134809   5.609   4.855   7.174 -0.1822  0.1336 -0.3386
 3538TIP3    H234810   5.698   4.747   7.116  1.8550  1.0402  1.0048
 3539TIP3   OH234811   2.621   6.884   7.603  0.0321 -0.1142 -0.0341
 3539TIP3    H134812   2.673   6.806   7.584  0.5572  0.0027  0.8718
 3539TIP3    H234813   2.629   6.937   7.524  0.1401 -0.7261 -0.4416
 3540TIP3   OH234814   4.703   0.815   9.358  0.1566 -0.4804 -0.5665
 3540TIP3    H134815   4.656   0.741   9.396  0.0552 -0.2399 -0.2154
 3540TIP3    H234816   4.783   0.777   9.323  0.0925 -0.7610 -0.4103
 3541TIP3   OH234817   1.249   1.430   6.503  0.8281 -0.1525  0.0590
 3541TIP3    H134818   1.327   1.444   6.556  0.9672  1.4454 -0.5152
 3541TIP3    H234819   1.250   1.501   6.439 -0.5550 -0.7019 -0.6184
 3542TIP3   OH234820   3.752   1.149   7.272 -0.0861 -0.9286 -0.5630
 3542TIP3    H134821   3.837   1.177   7.308 -1.2859  0.6556  1.2466
 3542TIP3    H234822   3.723   1.223   7.219 -1.4193 -0.3583  0.8820
 3543TIP3   OH234823   0.099   3.914   6.520 -0.7506 -0.1618 -0.2516
 3543TIP3    H134824   0.190   3.942   6.511 -0.6353 -0.3652  0.2314
 3543TIP3    H234825   0.104   3.819   6.528 -0.7710 -0.0213  2.2861
 3544TIP3   OH234826   6.283   2.166   7.771  0.2583 -0.2490 -0.1726
 3544TIP3    H134827   6.308   2.074   7.775 -0.5046 -0.4287  1.8438
 3544TIP3    H234828   6.319   2.197   7.688  2.3180 -1.8284  0.0346
 3545TIP3   OH234829   2.888   0.738   7.794 -0.0726  0.1397 -0.5442
 3545TIP3    H134830   2.929   0.679   7.731  0.0788  0.2723 -0.5713
 3545TIP3    H234831   2.945   0.815   7.795 -0.1601  0.2027 -0.3614
 3546TIP3   OH234832   1.574   4.226   9.129  0.1617  0.9420  0.7116
 3546TIP3    H134833   1.500   4.281   9.104 -0.3658 -0.2660 -0.4908
 3546TIP3    H234834   1.568   4.219   9.224 -2.0423 -0.1559  0.5541
 3547TIP3   OH234835   2.179   6.518   9.493  0.4235  0.4682  0.1407
 3547TIP3    H134836   2.212   6.434   9.461 -0.9780 -0.5893  1.3599
 3547TIP3    H234837   2.220   6.529   9.579  1.9826  1.9376 -0.7240
 3548TIP3   OH234838   1.991   5.817   7.050  0.6001  0.2471  0.3622
 3548TIP3    H134839   2.072   5.766   7.052  0.8337  0.5824 -0.4315
 3548TIP3    H234840   2.010   5.890   6.991 -0.0441  0.7316  0.7441
 3549TIP3   OH234841   6.990   2.614   9.052 -0.0489  0.3169  0.5223
 3549TIP3    H134842   6.988   2.604   9.148 -0.3369  1.8004  0.6929
 3549TIP3    H234843   7.053   2.685   9.037  0.4542 -0.3139 -0.4415
 3550TIP3   OH234844   0.942   4.092   8.187 -0.4925  0.3352 -0.2742
 3550TIP3    H134845   0.972   4.055   8.104  0.5560  1.6008 -0.4956
 3550TIP3    H234846   0.949   4.187   8.174 -0.6799  0.5563  1.1389
 3551TIP3   OH234847   3.296   5.874   9.037  0.2080  0.2975 -0.1152
 3551TIP3    H134848   3.283   5.963   9.006 -1.4152  0.2744  0.4229
 3551TIP3    H234849   3.224   5.824   8.999  0.0421 -0.3954  1.0598
 3552TIP3   OH234850   0.674   4.218   8.286  0.2298 -0.3152  0.7710
 3552TIP3    H134851   0.599   4.173   8.246  0.5062  1.4427 -1.9400
 3552TIP3    H234852   0.743   4.212   8.221  0.9095  2.2500  1.1708
 3553TIP3   OH234853   5.471   5.894   7.573  0.4323 -0.2341 -0.2568
 3553TIP3    H134854   5.397   5.852   7.618  0.2160  0.2064 -0.1968
 3553TIP3    H234855   5.430   5.944   7.503  0.4444  1.8716  1.1511
 3554TIP3   OH234856   1.074   4.459   9.605 -0.0063  0.1488  0.1373
 3554TIP3    H134857   1.065   4.365   9.590 -0.8315  0.3135 -0.4894
 3554TIP3    H234858   0.999   4.483   9.658  1.4218  0.0827  2.3017
 3555TIP3   OH234859   5.994   2.638   7.743  0.1828 -0.9003  0.7745
 3555TIP3    H134860   6.053   2.669   7.811  1.3805  0.0287 -0.6210
 3555TIP3    H234861   5.918   2.696   7.749  1.9162  1.7877 -1.0718
 3556TIP3   OH234862   6.944   1.427   7.734 -0.7311  0.0468  0.1631
 3556TIP3    H134863   6.931   1.422   7.829  0.4223  0.2578  0.3499
 3556TIP3    H234864   6.886   1.360   7.698 -1.2365  0.0160  1.0101
 3557TIP3   OH234865   3.141   0.009   8.914 -0.4776 -0.5514  0.4330
 3557TIP3    H134866   3.190   0.089   8.891  1.0185 -1.1572  1.3435
 3557TIP3    H234867   3.074   0.040   8.976 -1.2275  0.2796 -0.7466
 3558TIP3   OH234868   1.965   4.949   8.972 -0.4833  0.3390  0.0863
 3558TIP3    H134869   1.957   4.927   9.065 -0.3693 -0.5967 -0.1166
 3558TIP3    H234870   2.060   4.957   8.958 -0.3406 -1.7244 -0.4174
 3559TIP3   OH234871   2.610   4.715   8.349 -0.2787 -0.3729  0.2304
 3559TIP3    H134872   2.675   4.649   8.370  0.0223  0.7265  3.1079
 3559TIP3    H234873   2.661   4.793   8.325 -0.4764  0.2271  1.6441
 3560TIP3   OH234874   5.313   1.100   7.877  0.4795 -0.1066  0.4506
 3560TIP3    H134875   5.377   1.147   7.823 -1.3388  0.6488 -1.1726
 3560TIP3    H234876   5.366   1.051   7.940  2.5519  3.6021  1.9056
 3561TIP3   OH234877   1.959   3.370   7.578  0.2246 -0.6153  0.2198
 3561TIP3    H134878   1.955   3.464   7.560  3.0569 -0.7175 -1.3894
 3561TIP3    H234879   1.960   3.329   7.492  0.1799 -2.0881  0.8871
 3562TIP3   OH234880   1.656   7.399   8.007  0.9653  0.3801 -0.1367
 3562TIP3    H134881   1.700   7.330   8.057  0.1561  0.1211  0.2381
 3562TIP3    H234882   1.653   7.365   7.917 -1.4895 -1.1978  0.4194
 3563TIP3   OH234883   4.067   5.880   8.500  0.4778 -0.7300  0.1987
 3563TIP3    H134884   3.975   5.893   8.475  0.5922  1.5173  0.7060
 3563TIP3    H234885   4.099   5.814   8.439 -1.2812 -1.0595 -0.4472
 3564TIP3   OH234886   1.892   5.500   7.435  0.4049  0.6215 -0.1113
 3564TIP3    H134887   1.883   5.517   7.341 -0.1672  0.3449 -0.1098
 3564TIP3    H234888   1.981   5.465   7.444 -0.2816 -1.4422 -0.8830
 3565TIP3   OH234889   6.113   0.595   7.967 -0.2846 -0.4096  0.1488
 3565TIP3    H134890   6.108   0.641   8.050 -0.0784 -0.9744  0.4794
 3565TIP3    H234891   6.179   0.526   7.981  0.3112 -0.0457 -0.7030
 3566TIP3   OH234892   6.448   5.330   7.611  0.1383 -0.2984 -0.4376
 3566TIP3    H134893   6.398   5.251   7.588 -1.2885 -0.3066  2.2966
 3566TIP3    H234894   6.382   5.399   7.618  1.1281  0.7322 -0.9355
 3567TIP3   OH234895   2.830   7.033   8.622  0.4385  0.3231  0.0116
 3567TIP3    H134896   2.739   7.003   8.618  1.3360 -2.6186 -0.8334
 3567TIP3    H234897   2.823   7.129   8.622 -2.5947  0.2831 -2.3809
 3568TIP3   OH234898   1.709   6.048   7.525 -0.3509 -0.2092 -0.0754
 3568TIP3    H134899   1.729   6.083   7.439  0.3370 -1.3876 -0.4155
 3568TIP3    H234900   1.684   6.125   7.577  1.1293  0.7872 -0.7716
 3569TIP3   OH234901   6.164   3.882   6.848 -0.1643 -0.7534  0.0132
 3569TIP3    H134902   6.252   3.862   6.817  0.0669 -0.2713  0.3587
 3569TIP3    H234903   6.136   3.802   6.894  0.4299 -0.6004  0.6557
 3570TIP3   OH234904   1.205   3.933   7.034 -0.0889  0.1439 -0.0284
 3570TIP3    H134905   1.150   3.943   6.957 -0.2447 -0.3519  0.0200
 3570TIP3    H234906   1.282   3.886   7.003 -0.3459 -0.4375  0.2048
 3571TIP3   OH234907   6.323   6.495   9.182 -0.0116 -0.1024  0.0636
 3571TIP3    H134908   6.265   6.427   9.148 -0.1423  0.9385 -1.9627
 3571TIP3    H234909   6.266   6.554   9.230 -0.2748 -0.2652 -0.0449
 3572TIP3   OH234910   1.214   5.831   8.478 -0.5618  0.1310 -0.6757
 3572TIP3    H134911   1.298   5.787   8.491 -0.2044  1.0320  0.1687
 3572TIP3    H234912   1.198   5.878   8.560 -2.0802 -0.3312 -0.6809
 3573TIP3   OH234913   5.646   5.290   7.669  0.4195  0.2599 -0.0938
 3573TIP3    H134914   5.721   5.335   7.631  1.2612 -1.1797 -0.2504
 3573TIP3    H234915   5.654   5.304   7.763  0.7078  0.3710 -0.1357
 3574TIP3   OH234916   4.572   0.348   7.940 -0.1478 -0.3655 -0.3017
 3574TIP3    H134917   4.594   0.274   7.883  0.8405 -1.5930  1.5747
 3574TIP3    H234918   4.563   0.422   7.880 -0.0617 -1.7629 -2.1376
 3575TIP3   OH234919   6.832   2.648   8.208  0.1071 -0.3698 -0.1686
 3575TIP3    H134920   6.751   2.674   8.252  0.6213 -0.7500  1.0434
 3575TIP3    H234921   6.901   2.677   8.268  0.8142 -1.1436 -0.6042
 3576TIP3   OH234922   5.236   4.790   9.288  0.2524  0.1746 -0.3752
 3576TIP3    H134923   5.171   4.723   9.310 -0.1324 -0.4010 -2.9877
 3576TIP3    H234924   5.263   4.825   9.373 -0.1951 -2.6283  1.0320
 3577TIP3   OH234925   0.930   1.611   9.390  0.2863  0.6451 -0.5522
 3577TIP3    H134926   0.938   1.614   9.295 -1.1864 -0.0150 -0.7307
 3577TIP3    H234927   0.928   1.703   9.418  0.6703  0.8396 -1.1514
 3578TIP3   OH234928   2.943   6.056   9.021 -0.0033  0.1346 -0.0700
 3578TIP3    H134929   2.902   6.134   9.058 -0.8448  0.3439 -1.3420
 3578TIP3    H234930   3.018   6.038   9.078 -0.0217  1.6334  0.4812
 3579TIP3   OH234931   3.930   2.560   8.873 -0.0269 -0.3573 -0.2132
 3579TIP3    H134932   3.949   2.491   8.937  1.5963  1.9124  1.9449
 3579TIP3    H234933   4.017   2.594   8.849 -0.8038  1.5387 -0.4825
 3580TIP3   OH234934   0.583   2.098   8.894 -0.5854 -0.2139 -0.0120
 3580TIP3    H134935   0.502   2.148   8.887  0.1612  1.2228  1.0932
 3580TIP3    H234936   0.643   2.142   8.834 -0.4134 -0.8739 -0.3356
 3581TIP3   OH234937   7.039   4.964   7.495  0.2784  0.3812 -0.0239
 3581TIP3    H134938   7.012   5.024   7.564 -0.1912 -0.0092  0.1358
 3581TIP3    H234939   7.090   4.897   7.541  0.2369  0.2942 -0.1055
 3582TIP3   OH234940   0.532   3.237   9.193 -0.4219 -0.0960  0.3374
 3582TIP3    H134941   0.543   3.290   9.114 -3.3533  0.7282  0.3549
 3582TIP3    H234942   0.485   3.159   9.163  0.2071 -0.7184  0.9565
 3583TIP3   OH234943   4.441   2.161   9.502  0.0395  0.3255  0.0635
 3583TIP3    H134944   4.413   2.238   9.453  2.5690  1.5321  0.3579
 3583TIP3    H234945   4.482   2.104   9.437  0.3606  0.3577  0.2369
 3584TIP3   OH234946   2.395   3.995   8.515  0.2674 -0.1119  0.5776
 3584TIP3    H134947   2.393   4.091   8.524  1.6534 -0.0761  0.5841
 3584TIP3    H234948   2.449   3.979   8.438 -0.2163 -0.8917  0.3957
 3585TIP3   OH234949   6.918   2.424   9.552 -0.2278  0.6557  0.1950
 3585TIP3    H134950   6.982   2.422   9.623 -1.3306 -0.5397  1.2057
 3585TIP3    H234951   6.895   2.332   9.538 -0.3101  0.9087 -1.4759
 3586TIP3   OH234952   2.173   0.944   6.505 -0.0355  0.2338  0.3461
 3586TIP3    H134953   2.118   0.867   6.496  1.7450 -1.1352  0.6481
 3586TIP3    H234954   2.113   1.015   6.529 -1.8001 -0.8882 -0.6266
 3587TIP3   OH234955   5.410   6.774   9.598 -0.1327  0.4037 -0.3269
 3587TIP3    H134956   5.460   6.790   9.678 -0.6831 -0.3987  0.1911
 3587TIP3    H234957   5.469   6.726   9.541 -0.1756 -0.1957  0.1291
 3588TIP3   OH234958   4.491   5.293   8.276 -0.1851  0.3759  0.0438
 3588TIP3    H134959   4.548   5.238   8.330  0.0588  0.1438 -0.4493
 3588TIP3    H234960   4.402   5.268   8.301 -0.0718  0.2194  0.2883
 3589TIP3   OH234961   4.650   5.486   8.554 -0.3589  0.1282  0.0384
 3589TIP3    H134962   4.735   5.457   8.522 -0.5249  0.7395 -1.0141
 3589TIP3    H234963   4.636   5.570   8.511 -1.1096  0.4546  0.8831
 3590TIP3   OH234964   4.269   1.318   8.780 -0.5325 -0.2444  0.2906
 3590TIP3    H134965   4.273   1.231   8.741 -1.9183  0.0185 -0.4697
 3590TIP3    H234966   4.244   1.302   8.871  0.6632 -0.7165  0.5540
 3591TIP3   OH234967   6.777   1.236   8.287  0.2984  0.0930  0.0865
 3591TIP3    H134968   6.693   1.281   8.293  1.2362  1.9092  0.3227
 3591TIP3    H234969   6.764   1.171   8.218 -0.9650  1.0834 -0.6616
 3592TIP3   OH234970   7.270   1.848   9.493 -0.2688 -0.4120  0.2320
 3592TIP3    H134971   7.193   1.796   9.515  0.4763 -2.3389 -1.4581
 3592TIP3    H234972   7.337   1.784   9.471  0.8200  1.2445 -1.5388
 3593TIP3   OH234973   6.179   5.948   9.429 -0.6872 -0.4600 -0.4362
 3593TIP3    H134974   6.259   5.908   9.393  0.3393  0.3697  0.8274
 3593TIP3    H234975   6.119   5.951   9.355  0.7496 -0.3640 -1.6579
 3594TIP3   OH234976   5.739   5.271   8.599 -0.1649 -0.0862 -0.3245
 3594TIP3    H134977   5.734   5.231   8.512  0.1494  0.0120 -0.3864
 3594TIP3    H234978   5.732   5.197   8.659 -0.3645 -0.1566 -0.4297
 3595TIP3   OH234979   0.544   2.715   7.943  0.4066  0.1744  0.4686
 3595TIP3    H134980   0.575   2.797   7.903  1.1489  0.8964  2.4304
 3595TIP3    H234981   0.611   2.692   8.007  0.5101 -2.3402 -0.4088
 3596TIP3   OH234982   0.400   5.603   7.773  0.2531 -0.3258  0.4512
 3596TIP3    H134983   0.360   5.541   7.835  1.7599 -0.8158  0.9884
 3596TIP3    H234984   0.328   5.630   7.717 -1.2363  0.2535  2.5016
 3597TIP3   OH234985   5.347   6.298   8.561  0.7320  0.6348 -0.1235
 3597TIP3    H134986   5.351   6.392   8.583  0.6576  0.6779 -0.2935
 3597TIP3    H234987   5.268   6.267   8.604 -0.1890  1.0227 -1.4664
 3598TIP3   OH234988   2.003   1.690   7.978  0.3348  0.3487 -0.2413
 3598TIP3    H134989   1.917   1.675   8.019 -0.1695  1.1941 -0.9649
 3598TIP3    H234990   1.987   1.756   7.911  1.7343  1.1726  0.1904
 3599TIP3   OH234991   3.947   0.523   7.833 -0.1136  0.5389 -0.1173
 3599TIP3    H134992   3.910   0.491   7.916  1.3738 -0.8617  0.0479
 3599TIP3    H234993   3.934   0.450   7.772  1.3324  0.4405 -0.3382
 3600TIP3   OH234994   1.489   0.246   8.379  0.3873  0.0439 -0.4171
 3600TIP3    H134995   1.569   0.200   8.355  0.9477  0.9270 -0.3072
 3600TIP3    H234996   1.426   0.177   8.399  1.3500 -0.6682  0.2485
 3601TIP3   OH234997   4.228   3.369   7.209 -0.0619  0.5220  0.5278
 3601TIP3    H134998   4.304   3.390   7.154  0.7144  0.2355  1.4713
 3601TIP3    H234999   4.165   3.439   7.190  0.0252  0.2207 -1.0109
 3602TIP3   OH235000   0.694   3.201   7.973  0.2756 -0.0833 -0.0501
 3602TIP3    H135001   0.693   3.148   8.053 -0.1015  1.7001  1.2006
 3602TIP3    H235002   0.625   3.163   7.918  0.2831 -1.1119  0.6293
 3603TIP3   OH235003   2.412   1.471   9.044 -0.1957  0.3511 -0.3901
 3603TIP3    H135004   2.358   1.532   8.993  1.1973  0.9370 -1.1980
 3603TIP3    H235005   2.378   1.385   9.022 -1.5968  0.7592  0.0604
 3604TIP3   OH235006   2.282   1.338   9.423 -0.0891  0.0946 -0.0418
 3604TIP3    H135007   2.290   1.271   9.355 -2.0944 -1.1177  0.8399
 3604TIP3    H235008   2.325   1.300   9.500 -2.7358 -1.0706  0.9912
 3605TIP3   OH235009   6.925   0.882   8.086  0.5063  0.5025 -0.3294
 3605TIP3    H135010   6.861   0.911   8.151  0.5160  0.5987 -0.3623
 3605TIP3    H235011   6.956   0.963   8.045  1.6636  0.5784  0.6294
 3606TIP3   OH235012   4.892   4.579   7.463  0.0618 -0.0515 -0.4287
 3606TIP3    H135013   4.957   4.510   7.477  0.0372  0.0655  0.3078
 3606TIP3    H235014   4.831   4.542   7.399  0.6948 -0.2664 -0.9208
 3607TIP3   OH235015   4.960   5.262   8.646 -0.0355 -0.2921  0.3088
 3607TIP3    H135016   4.985   5.349   8.678  0.5651 -0.5854  0.6699
 3607TIP3    H235017   4.972   5.266   8.551  0.6965 -0.1930  0.3989
 3608TIP3   OH235018   4.626   4.402   8.024 -0.1939 -0.4645 -0.3504
 3608TIP3    H135019   4.539   4.365   8.039 -0.2138 -1.0213 -1.7262
 3608TIP3    H235020   4.683   4.353   8.084 -0.6576 -0.8280 -0.1979
 3609TIP3   OH235021   2.337   5.979   9.190 -0.0225 -0.0345 -0.6446
 3609TIP3    H135022   2.430   5.963   9.200 -0.2435 -0.2413  1.7999
 3609TIP3    H235023   2.331   6.051   9.127  1.7865  0.1747 -0.6230
 3610TIP3   OH235024   0.742   4.594   7.113 -0.0685  0.1706 -0.2208
 3610TIP3    H135025   0.649   4.572   7.126  0.3480 -0.5912  1.8453
 3610TIP3    H235026   0.770   4.537   7.041 -1.0266 -0.0522 -0.4444
 3611TIP3   OH235027   5.060   1.575   9.563 -0.5769 -0.2026 -0.6466
 3611TIP3    H135028   5.149   1.583   9.529 -0.4918 -1.0500 -0.6484
 3611TIP3    H235029   5.067   1.513   9.636 -1.1798 -0.3437 -0.6973
 3612TIP3   OH235030   3.712   5.611   8.632  0.0837 -0.1912 -0.2710
 3612TIP3    H135031   3.655   5.576   8.700  1.2089 -0.1897  0.7062
 3612TIP3    H235032   3.693   5.558   8.555  1.1688 -2.4872  0.9495
 3613TIP3   OH235033   1.082   3.302   8.851  0.3329  0.6573  0.2770
 3613TIP3    H135034   0.991   3.276   8.868  0.7638 -1.9799 -0.9110
 3613TIP3    H235035   1.091   3.298   8.756  1.6391  1.0426  0.3618
 3614TIP3   OH235036   0.166   6.050   7.775  0.0040  0.2620 -0.2299
 3614TIP3    H135037   0.113   6.116   7.820  0.0060 -1.5687  2.6716
 3614TIP3    H235038   0.118   5.968   7.788  2.1229 -1.0026  0.0388
 3615TIP3   OH235039   4.558   3.682   7.730  0.0356 -0.1195  0.1819
 3615TIP3    H135040   4.575   3.742   7.803  1.0169 -0.6236  0.3765
 3615TIP3    H235041   4.575   3.734   7.652 -1.2216  0.4874  0.2869
 3616TIP3   OH235042   3.764   1.898   9.010  0.1474 -1.0286 -0.8364
 3616TIP3    H135043   3.700   1.830   9.030  0.2458 -1.0215 -0.4892
 3616TIP3    H235044   3.806   1.868   8.929  0.3845 -1.5242 -0.5391
 3617TIP3   OH235045   3.047   2.963   9.380  0.0824 -0.0798  0.3798
 3617TIP3    H135046   3.003   2.981   9.297 -1.6379 -0.0242  1.2703
 3617TIP3    H235047   3.131   2.925   9.354  0.1567  1.1433 -1.4039
 3618TIP3   OH235048   3.155   7.499   8.307  0.1175  0.0557 -0.7413
 3618TIP3    H135049   3.148   7.517   8.401  0.3147 -1.0419 -0.5029
 3618TIP3    H235050   3.078   7.542   8.269 -0.4053 -0.1811  0.0259
 3619TIP3   OH235051   6.871   7.171   9.497 -0.4940 -0.2721 -0.7624
 3619TIP3    H135052   6.875   7.140   9.406 -0.1694  0.7722 -1.1198
 3619TIP3    H235053   6.962   7.172   9.526 -0.5979 -0.5961 -0.4206
 3620TIP3   OH235054   1.208   1.134   8.916  0.1542 -0.4604 -0.4691
 3620TIP3    H135055   1.144   1.153   8.848 -0.0920 -0.6456 -0.2949
 3620TIP3    H235056   1.223   1.040   8.910 -1.4941 -0.8861  1.0971
 3621TIP3   OH235057   6.591   2.923   8.000  0.3853  0.7118  0.6461
 3621TIP3    H135058   6.540   2.883   8.071 -0.2541  0.3814  0.0080
 3621TIP3    H235059   6.682   2.907   8.025  0.1622  0.2631  1.2034
 3622TIP3   OH235060   2.491   0.773   8.756 -0.0022 -0.0163 -0.2568
 3622TIP3    H135061   2.480   0.698   8.698  0.0438 -1.1259  1.1064
 3622TIP3    H235062   2.420   0.832   8.732 -1.7895 -1.7560  0.4604
 3623TIP3   OH235063   7.355   6.566   6.723  0.0332 -0.7547 -0.3837
 3623TIP3    H135064   7.338   6.506   6.796 -0.6943 -1.7143 -1.3175
 3623TIP3    H235065   7.448   6.586   6.730  0.1305 -1.4226  0.3799
 3624TIP3   OH235066   0.004   1.369   9.379 -0.1226 -0.6361  0.1851
 3624TIP3    H135067  -0.014   1.374   9.285 -2.4427  0.5338  0.6250
 3624TIP3    H235068   0.073   1.303   9.386 -0.8949 -1.8366 -2.2067
 3625TIP3   OH235069   1.403   6.205   9.211  0.0464  0.1176 -0.3037
 3625TIP3    H135070   1.401   6.272   9.280 -0.0088 -0.7255  0.5320
 3625TIP3    H235071   1.310   6.187   9.193  0.0446  1.0440 -1.3225
 3626TIP3   OH235072   5.938   4.543   9.252 -0.1919  0.7457 -0.3688
 3626TIP3    H135073   5.940   4.547   9.348  0.7818 -0.8565 -0.2878
 3626TIP3    H235074   5.845   4.537   9.231 -0.4033  0.8549  0.4932
 3627TIP3   OH235075   4.925   3.664   9.790 -0.0382 -0.0034 -0.0763
 3627TIP3    H135076   5.007   3.632   9.751  0.1259  0.4152 -0.0778
 3627TIP3    H235077   4.933   3.643   9.883  0.2843  0.4688  0.0060
 3628TIP3   OH235078   0.887   3.435   9.891  0.3205  0.1688  0.3297
 3628TIP3    H135079   0.846   3.479   9.817  0.6149  0.7199  0.4891
 3628TIP3    H235080   0.841   3.351   9.898 -1.4603  1.1588  1.1378
 3629TIP3   OH235081   1.706   4.545   7.379 -0.0694  0.2724  0.3998
 3629TIP3    H135082   1.643   4.617   7.382  0.3154  0.6173  0.4314
 3629TIP3    H235083   1.716   4.519   7.471 -0.3892  0.0137  0.3639
 3630TIP3   OH235084   2.960   1.841   7.727  0.5131 -0.0705 -0.1100
 3630TIP3    H135085   2.888   1.901   7.751  0.7365 -0.0031  0.4114
 3630TIP3    H235086   2.970   1.785   7.804  2.4387  1.3053  0.7142
 3631TIP3   OH235087   2.763   6.639   7.930  0.6701  0.0671 -0.0327
 3631TIP3    H135088   2.784   6.550   7.901  2.0290  0.0556  0.8983
 3631TIP3    H235089   2.702   6.627   8.003 -1.1506  0.0315 -1.4717
 3632TIP3   OH235090   4.322   3.724   8.687  0.6402 -0.1832  0.1336
 3632TIP3    H135091   4.412   3.709   8.716  0.4020 -1.2643  0.3631
 3632TIP3    H235092   4.295   3.640   8.650 -0.2663  0.1407  0.0376
 3633TIP3   OH235093   2.168   6.023   8.874  0.1497  0.0130 -0.0632
 3633TIP3    H135094   2.159   5.962   8.801 -3.6067  1.1024 -0.7085
 3633TIP3    H235095   2.184   6.108   8.832 -1.7700  0.6003  0.3170
 3634TIP3   OH235096   4.462   4.792   9.421  0.4663 -0.3739  0.2332
 3634TIP3    H135097   4.519   4.867   9.405  0.4098 -0.5885 -1.0513
 3634TIP3    H235098   4.379   4.830   9.450  0.2629  0.0987 -0.9320
 3635TIP3   OH235099   5.395   0.789   9.265 -0.2209 -0.0968 -1.1723
 3635TIP3    H135100   5.403   0.733   9.342 -2.1638  0.7440 -0.2889
 3635TIP3    H235101   5.454   0.863   9.281  0.5850 -0.7076 -1.2673
 3636TIP3   OH235102   1.425   5.096   9.714  0.1751  0.9855  0.1146
 3636TIP3    H135103   1.373   5.112   9.794 -0.0065 -1.0083  0.4603
 3636TIP3    H235104   1.372   5.034   9.664  1.3022  0.5109 -0.5154
 3637TIP3   OH235105   4.303   5.329   9.203  0.2685  0.1124  0.0754
 3637TIP3    H135106   4.295   5.240   9.170  0.8040 -0.6198  1.8087
 3637TIP3    H235107   4.216   5.368   9.190 -0.3054 -1.0440  0.3544
 3638TIP3   OH235108   4.438   4.076   8.714 -0.4508  0.3201  0.6942
 3638TIP3    H135109   4.518   4.034   8.746  0.2659  1.2913  0.2493
 3638TIP3    H235110   4.436   4.056   8.621  0.2541  1.7883  0.3449
 3639TIP3   OH235111   5.254   6.600   9.158 -0.4359 -0.0221  0.5266
 3639TIP3    H135112   5.170   6.555   9.159  0.0729 -1.0956 -0.9658
 3639TIP3    H235113   5.308   6.552   9.221 -0.3301 -0.6040 -0.0065
 3640TIP3   OH235114   3.360   5.423   9.110 -0.3908  0.0213  0.2708
 3640TIP3    H135115   3.379   5.385   9.196  2.1385  0.3855 -0.0479
 3640TIP3    H235116   3.382   5.516   9.120  1.0836 -0.1455 -1.0380
 3641TIP3   OH235117   1.020   6.410   8.569 -0.0204 -0.1751 -0.3283
 3641TIP3    H135118   0.991   6.498   8.544 -2.8875 -1.1345 -0.7417
 3641TIP3    H235119   1.109   6.403   8.534  0.0777  2.3345 -0.7477
 3642TIP3   OH235120   3.091   5.947   7.531 -0.6053  0.0906  0.0421
 3642TIP3    H135121   3.091   6.024   7.474 -1.7742 -0.4826 -0.7725
 3642TIP3    H235122   3.069   5.874   7.473  1.0431 -0.9676  0.6843
 3643TIP3   OH235123   3.166   0.343   8.043  0.2008 -0.0657 -0.2002
 3643TIP3    H135124   3.071   0.340   8.051  0.2133 -1.3898 -0.3707
 3643TIP3    H235125   3.199   0.292   8.117  0.7897  0.4655 -0.0833
 3644TIP3   OH235126   7.357   6.573   7.293 -0.4314  0.1006  0.2758
 3644TIP3    H135127   7.293   6.578   7.364  0.2650 -0.6917  0.9747
 3644TIP3    H235128   7.415   6.648   7.308 -0.1211 -0.2220  0.7171
 3645TIP3   OH235129   0.967   2.066   9.659 -0.1638  0.4267  0.3416
 3645TIP3    H135130   0.905   2.011   9.707 -0.6135  1.3844  0.8746
 3645TIP3    H235131   0.913   2.134   9.619  0.4535  0.8132  0.1542
 3646TIP3   OH235132   1.969   1.074   9.444 -0.3935  0.2781 -0.2030
 3646TIP3    H135133   1.893   1.130   9.433 -0.2653  0.2623 -1.2228
 3646TIP3    H235134   2.016   1.113   9.519 -1.1982  0.4985  0.1969
 3647TIP3   OH235135   4.270   7.403   7.139  0.3282  0.2110 -0.0597
 3647TIP3    H135136   4.243   7.413   7.048 -0.5230  0.1178  0.1755
 3647TIP3    H235137   4.224   7.473   7.186  1.9065  1.2205  0.0925
 3648TIP3   OH235138   2.010   5.463   7.013 -0.6440  0.2166 -0.2696
 3648TIP3    H135139   2.010   5.462   6.918 -1.6179 -0.4687 -0.2740
 3648TIP3    H235140   2.079   5.525   7.037 -2.2552  2.5442 -1.4280
 3649TIP3   OH235141   3.673   2.135   8.887  0.7766  0.0494 -0.1676
 3649TIP3    H135142   3.612   2.118   8.815 -0.2229  0.8206  0.4731
 3649TIP3    H235143   3.661   2.061   8.946  0.2025  0.3656  0.1203
 3650TIP3   OH235144   6.768   4.844   9.073 -0.0219 -0.0838  0.1874
 3650TIP3    H135145   6.700   4.796   9.120 -0.4364  0.4799  0.1707
 3650TIP3    H235146   6.720   4.908   9.020  0.4984  0.0266 -0.1541
 3651TIP3   OH235147   3.702   2.878   8.647 -0.2800  0.0636  0.0009
 3651TIP3    H135148   3.611   2.856   8.668  0.6139 -0.6394  3.9184
 3651TIP3    H235149   3.717   2.962   8.691  1.2014 -0.2295  0.0978
 3652TIP3   OH235150   7.390   3.160   7.643 -0.2376  0.0789 -0.2371
 3652TIP3    H135151   7.383   3.191   7.734  0.6404  0.8500 -0.4135
 3652TIP3    H235152   7.343   3.225   7.591 -0.6009 -0.2758 -0.3550
 3653TIP3   OH235153   4.835   2.040   7.669 -0.9370  0.1425  0.4723
 3653TIP3    H135154   4.869   1.951   7.680 -1.0439  0.1100  0.5397
 3653TIP3    H235155   4.776   2.034   7.594 -3.1846 -0.4897  2.1973
 3654TIP3   OH235156   5.621   2.360   8.192  0.2366  0.2037 -0.2241
 3654TIP3    H135157   5.673   2.426   8.236  0.4493  0.6270 -1.0970
 3654TIP3    H235158   5.621   2.386   8.100 -1.7037  0.3515 -0.2225
 3655TIP3   OH235159   0.797   6.998   9.615 -0.4693 -0.5835 -0.0663
 3655TIP3    H135160   0.756   7.084   9.626  1.2813  0.4012 -0.9272
 3655TIP3    H235161   0.810   6.989   9.520  0.9954 -0.9951  0.1451
 3656TIP3   OH235162   4.752   4.311   8.691  0.0966  0.5727  0.0464
 3656TIP3    H135163   4.684   4.297   8.757 -0.4341  2.4653 -0.0195
 3656TIP3    H235164   4.827   4.346   8.741  0.3804  0.2079 -0.1182
 3657TIP3   OH235165   4.051   2.207   7.765  0.0787  0.3845  0.3702
 3657TIP3    H135166   4.074   2.188   7.674  1.6711  0.0168  0.8255
 3657TIP3    H235167   3.965   2.167   7.776  0.7224 -1.3244 -0.4247
 3658TIP3   OH235168   2.255   0.106   8.409  0.1247 -0.1178  0.4710
 3658TIP3    H135169   2.314   0.034   8.431 -0.1273 -0.8665 -1.1510
 3658TIP3    H235170   2.286   0.139   8.325  0.9991  2.5521  1.7213
 3659TIP3   OH235171   6.987   3.712   9.293  0.3698  0.3455  0.1722
 3659TIP3    H135172   6.922   3.656   9.336  1.4001 -2.7075 -1.9342
 3659TIP3    H235173   6.943   3.744   9.214  0.6170  0.4418  0.0728
 3660TIP3   OH235174   0.026   0.273   8.523 -0.2407  0.4763  0.3878
 3660TIP3    H135175  -0.018   0.249   8.604  1.0161  0.3145  1.0492
 3660TIP3    H235176   0.024   0.193   8.470  0.2304  0.1416  0.8682
 3661TIP3   OH235177   0.420   1.995   7.544  0.4876  0.4451 -0.0607
 3661TIP3    H135178   0.463   1.973   7.626 -0.3968 -1.4046 -0.0505
 3661TIP3    H235179   0.343   1.938   7.541 -1.2173  2.6018 -0.7354
 3662TIP3   OH235180   4.370   3.307   7.824  0.3862 -0.0427 -0.0496
 3662TIP3    H135181   4.386   3.400   7.838 -1.8341  0.3342  0.2649
 3662TIP3    H235182   4.394   3.265   7.907 -2.3533  0.8032  1.2683
 3663TIP3   OH235183   7.040   1.163   9.060 -0.3595 -0.1609 -0.2135
 3663TIP3    H135184   7.082   1.124   8.983 -0.3305 -0.6531  0.0477
 3663TIP3    H235185   7.041   1.257   9.042  0.2180 -0.2180 -0.5338
 3664TIP3   OH235186   4.116   1.533   8.739  0.1145 -0.5647  0.2712
 3664TIP3    H135187   4.173   1.456   8.746  1.3335  0.1761 -0.9009
 3664TIP3    H235188   4.072   1.523   8.655 -0.3449 -0.3892  0.4883
 3665TIP3   OH235189   1.510   2.763   8.610  0.4820  0.0215 -0.6745
 3665TIP3    H135190   1.504   2.832   8.544  0.3627 -0.9347 -1.6901
 3665TIP3    H235191   1.558   2.803   8.682 -0.1557  1.3632 -0.9637
 3666TIP3   OH235192   4.751   0.195   8.741  0.0788  0.3761  0.6051
 3666TIP3    H135193   4.800   0.269   8.705  1.2324 -1.0188 -0.8376
 3666TIP3    H235194   4.793   0.177   8.825  1.7281 -0.4401 -0.3582
 3667TIP3   OH235195   6.786   2.887   7.701 -0.3967 -0.3942  0.1725
 3667TIP3    H135196   6.809   2.813   7.757  0.5624 -0.1491  0.1165
 3667TIP3    H235197   6.712   2.855   7.648 -0.6582 -0.9573  0.8652
 3668TIP3   OH235198   4.635   5.142   7.736 -0.0706 -0.2488  0.5007
 3668TIP3    H135199   4.659   5.213   7.677 -3.4230  0.1452 -0.5711
 3668TIP3    H235200   4.682   5.065   7.702 -0.4706  0.3713 -1.5641
 3669TIP3   OH235201   5.221   6.439   8.876 -0.4526 -0.4587  0.5403
 3669TIP3    H135202   5.170   6.467   8.951 -0.7902  1.4352 -0.3551
 3669TIP3    H235203   5.308   6.419   8.912 -0.6260  0.3596  1.4392
 3670TIP3   OH235204   0.407   0.950   7.634 -0.4394  0.0048 -0.2269
 3670TIP3    H135205   0.345   1.023   7.641 -0.0349  0.4447 -1.0583
 3670TIP3    H235206   0.487   0.990   7.598 -0.4189 -0.9496 -1.2947
 3671TIP3   OH235207   0.249   3.783   7.714  0.5898  0.0301 -0.0592
 3671TIP3    H135208   0.287   3.864   7.748  1.0910 -0.3520  0.3148
 3671TIP3    H235209   0.279   3.780   7.623 -1.3871  1.4365 -0.8100
 3672TIP3   OH235210   6.951   1.138   7.995  0.1525  0.2145 -0.2752
 3672TIP3    H135211   6.946   1.233   8.003  1.2230  0.1095  3.1436
 3672TIP3    H235212   7.029   1.122   7.941 -0.8837  1.2207 -2.1436
 3673TIP3   OH235213   5.988   7.062   7.328  0.3493  0.2583 -0.1822
 3673TIP3    H135214   6.037   7.079   7.409  1.1766 -1.0183 -0.3837
 3673TIP3    H235215   5.968   7.148   7.293  3.6438  0.8982 -0.8018
 3674TIP3   OH235216   1.735   2.152   7.072 -0.6195  0.3505  0.1922
 3674TIP3    H135217   1.813   2.180   7.024 -1.0845  0.7523 -0.3555
 3674TIP3    H235218   1.663   2.174   7.013 -1.0806 -0.9871  0.2336
 3675TIP3   OH235219   5.451   5.019   8.001  0.1388  0.2958 -0.0863
 3675TIP3    H135220   5.459   4.990   7.911 -1.3615  0.8733 -0.4243
 3675TIP3    H235221   5.383   4.963   8.039  0.9220 -0.1032  0.7675
 3676TIP3   OH235222   2.510   0.375   8.280 -0.4516  0.2613  0.2893
 3676TIP3    H135223   2.450   0.316   8.233 -2.2972  1.3259  1.1860
 3676TIP3    H235224   2.502   0.458   8.233  0.8664  0.2482  0.0245
 3677TIP3   OH235225   2.067   4.319   7.542  0.2123 -0.0245  0.4069
 3677TIP3    H135226   2.071   4.252   7.474  0.5509  1.8102 -1.4580
 3677TIP3    H235227   2.158   4.332   7.567  0.3722  1.1383 -0.7041
 3678TIP3   OH235228   5.924   5.856   7.135  0.1156 -0.2105 -0.2600
 3678TIP3    H135229   5.877   5.775   7.112 -3.0802  1.0690  1.1890
 3678TIP3    H235230   5.923   5.907   7.054 -0.0313 -0.6678 -0.5505
 3679TIP3   OH235231   0.175   6.686   7.895  0.3019 -0.5332 -0.4656
 3679TIP3    H135232   0.123   6.678   7.815 -0.3012 -1.3078 -0.0022
 3679TIP3    H235233   0.240   6.617   7.889 -1.3587 -2.3302  0.8822
 3680TIP3   OH235234   6.443   1.695   7.512  0.2036  0.2100  0.2709
 3680TIP3    H135235   6.459   1.747   7.591 -2.0832  0.3578  0.6945
 3680TIP3    H235236   6.392   1.620   7.542 -1.3071  0.6190 -1.1215
 3681TIP3   OH235237   4.100   0.225   7.706 -0.4392 -0.1325 -0.0689
 3681TIP3    H135238   4.084   0.177   7.787 -0.1236 -0.6789 -0.3331
 3681TIP3    H235239   4.012   0.241   7.671 -0.5378 -0.6512 -0.0634
 3682TIP3   OH235240   2.190   6.547   8.679 -0.1756  0.0617 -0.2922
 3682TIP3    H135241   2.106   6.521   8.717  0.1703 -0.9409 -0.2079
 3682TIP3    H235242   2.180   6.641   8.662 -2.0803 -0.3971 -2.1726
 3683TIP3   OH235243   1.123   6.987   7.707 -0.0665 -0.0523 -0.2065
 3683TIP3    H135244   1.149   7.063   7.655  1.7184 -0.4488  0.0451
 3683TIP3    H235245   1.201   6.931   7.707 -1.4163 -2.0079 -0.5888
 3684TIP3   OH235246   4.013   0.408   6.732  0.3178  0.6292 -0.2283
 3684TIP3    H135247   4.090   0.359   6.760 -0.7948 -0.1484  1.6567
 3684TIP3    H235248   4.004   0.389   6.639  2.0741  0.3262 -0.3596
 3685TIP3   OH235249   3.844   3.393   8.818 -0.1217 -0.1264 -0.1149
 3685TIP3    H135250   3.937   3.401   8.840 -0.3062  0.5547  0.4683
 3685TIP3    H235251   3.834   3.447   8.739 -0.0367 -0.1137 -0.1179
 3686TIP3   OH235252   6.631   6.059   7.394 -0.2819 -0.5305  0.2509
 3686TIP3    H135253   6.634   5.970   7.358  0.1712 -0.3733 -0.1184
 3686TIP3    H235254   6.673   6.052   7.479 -0.0151 -0.6229  0.1127
 3687TIP3   OH235255   5.373   0.569   9.088 -0.4188 -0.8600  0.4197
 3687TIP3    H135256   5.436   0.530   9.149  0.5534  0.3509  0.2278
 3687TIP3    H235257   5.348   0.651   9.130 -0.0090 -0.1814 -0.6429
 3688TIP3   OH235258   0.644   5.110   8.851  0.3747  0.5473  0.6818
 3688TIP3    H135259   0.585   5.172   8.809  1.5243  1.5310  0.4856
 3688TIP3    H235260   0.607   5.098   8.939 -0.4961  0.5938  0.3336
 3689TIP3   OH235261   5.192   6.407   7.491 -0.7145  0.5865 -0.1373
 3689TIP3    H135262   5.267   6.409   7.551 -0.6387  0.7624 -0.2348
 3689TIP3    H235263   5.232   6.408   7.403 -0.7843 -1.0016 -0.2123
 3690TIP3   OH235264   4.308   2.513   8.888 -0.2849 -0.0371 -0.1796
 3690TIP3    H135265   4.283   2.441   8.945  0.1837  0.1444  0.2627
 3690TIP3    H235266   4.382   2.480   8.837 -0.1422  0.0883 -0.0573
 3691TIP3   OH235267   7.046   4.115   7.862  0.4963  0.2935  0.3140
 3691TIP3    H135268   6.961   4.137   7.901  0.0640 -0.5998 -0.1005
 3691TIP3    H235269   7.109   4.132   7.931 -0.1332 -0.0818  0.9961
 3692TIP3   OH235270   5.193   2.981   7.512 -0.0480  0.1593 -0.0529
 3692TIP3    H135271   5.230   2.949   7.430 -0.2480 -0.5724  0.1385
 3692TIP3    H235272   5.173   3.073   7.494  1.5241  0.4835 -0.2730
 3693TIP3   OH235273   3.579   1.068   8.967  0.4550  0.3377 -0.4812
 3693TIP3    H135274   3.580   1.047   9.060  0.3709  0.0108 -0.5511
 3693TIP3    H235275   3.599   1.161   8.962  1.9415  0.0496 -0.2315
 3694TIP3   OH235276   4.952   3.803   8.342  0.0908 -0.2381  0.4854
 3694TIP3    H135277   4.964   3.877   8.282  0.4831  1.0735  2.0899
 3694TIP3    H235278   4.887   3.748   8.300 -1.4097  1.8275 -0.0728
 3695TIP3   OH235279   6.717   5.394   7.712 -0.0405 -0.1761 -0.3782
 3695TIP3    H135280   6.763   5.447   7.647 -0.2797 -1.1423 -1.3813
 3695TIP3    H235281   6.631   5.377   7.673  0.2028 -1.6887 -0.3483
 3696TIP3   OH235282   7.023   0.697   9.272 -0.0596  0.1230  0.0841
 3696TIP3    H135283   6.933   0.695   9.239 -1.3183  1.2920  3.1220
 3696TIP3    H235284   7.061   0.777   9.234  0.0570 -0.8147 -1.8858
 3697TIP3   OH235285   2.148   2.032   8.858 -0.3591  0.2550  0.2461
 3697TIP3    H135286   2.223   2.090   8.845  0.4366 -0.4404  1.5391
 3697TIP3    H235287   2.182   1.945   8.839 -0.9429 -0.0311  0.4900
 3698TIP3   OH235288   4.772   6.948   9.011  0.3183  0.1776 -0.2719
 3698TIP3    H135289   4.781   6.929   9.104  1.7054  2.8540  0.2266
 3698TIP3    H235290   4.856   6.922   8.973  0.2810  0.4170 -0.5208
 3699TIP3   OH235291   0.853   3.755   9.056 -0.0526  0.0922 -0.2409
 3699TIP3    H135292   0.808   3.787   9.133  0.8337 -0.8334  0.6999
 3699TIP3    H235293   0.812   3.801   8.982 -1.0968  0.7808  0.7466
 3700TIP3   OH235294   4.283   5.799   7.911 -0.3101  0.2363  0.1212
 3700TIP3    H135295   4.336   5.817   7.988 -1.6831  2.5591  0.6004
 3700TIP3    H235296   4.326   5.848   7.840 -0.4961  0.1879 -0.0264
 3701TIP3   OH235297   6.296   5.530   7.724 -0.6467 -0.3243 -0.2697
 3701TIP3    H135298   6.352   5.587   7.776 -0.3445 -0.1868 -0.7431
 3701TIP3    H235299   6.231   5.497   7.786 -0.9343  0.6719 -0.0292
 3702TIP3   OH235300   4.247   4.474   7.392 -0.0331  0.8331  0.2841
 3702TIP3    H135301   4.187   4.547   7.405 -0.3526  1.0382 -1.9045
 3702TIP3    H235302   4.196   4.409   7.345  1.1159  0.5612 -0.6510
 3703TIP3   OH235303   3.892   7.281   8.186  0.2505 -0.5678  0.8075
 3703TIP3    H135304   3.809   7.257   8.227  0.5976 -0.9705  1.2965
 3703TIP3    H235305   3.876   7.366   8.146  0.0933  0.1816  2.4087
 3704TIP3   OH235306   1.412   7.263   8.973  0.1492 -0.3606 -0.0928
 3704TIP3    H135307   1.358   7.221   9.040 -0.6932  0.3169 -0.3340
 3704TIP3    H235308   1.388   7.356   8.976 -0.8653 -0.4932 -2.1909
 3705TIP3   OH235309   3.947   3.487   9.177  0.2467  0.4831 -0.3302
 3705TIP3    H135310   3.946   3.399   9.139 -2.4119  0.9826 -1.5928
 3705TIP3    H235311   3.884   3.482   9.249 -0.2085  1.4357 -0.6536
 3706TIP3   OH235312   0.892   3.497   8.642  0.0088  0.3114 -0.4467
 3706TIP3    H135313   0.936   3.428   8.592 -0.5766 -0.3626 -0.0634
 3706TIP3    H235314   0.952   3.517   8.714 -1.0006 -1.8765  1.1253
 3707TIP3   OH235315   6.098   3.030   6.797  0.1978  0.6475  0.0170
 3707TIP3    H135316   6.013   3.070   6.817 -0.2683 -0.3448  0.0830
 3707TIP3    H235317   6.077   2.959   6.736  0.9726  0.3417  0.1021
 3708TIP3   OH235318   2.812   3.047   9.045  0.2500  0.1003 -0.3316
 3708TIP3    H135319   2.743   3.113   9.036 -0.2252 -0.2678  0.5061
 3708TIP3    H235320   2.856   3.047   8.960 -3.1088 -2.2568 -2.3370
 3709TIP3   OH235321   1.395   6.563   7.329  0.1653 -0.5315  0.2921
 3709TIP3    H135322   1.314   6.547   7.377 -0.2546  1.6818  0.4386
 3709TIP3    H235323   1.386   6.653   7.297  1.8907 -0.7905 -1.0556
 3710TIP3   OH235324   4.951   1.375   8.966  0.3585  0.3052  0.8281
 3710TIP3    H135325   5.023   1.419   9.011  0.6341  0.0536  0.6447
 3710TIP3    H235326   4.891   1.445   8.941  0.4635  0.5012  1.1211
 3711TIP3   OH235327   0.656   3.586   7.901 -0.5495 -0.2542 -0.2331
 3711TIP3    H135328   0.714   3.563   7.974 -1.5521 -0.8069  0.4139
 3711TIP3    H235329   0.644   3.504   7.853  2.0174  0.5338 -2.5270
 3712TIP3   OH235330   6.498   0.086   8.754  0.2854 -0.1187  0.1319
 3712TIP3    H135331   6.471   0.013   8.698 -0.0167  1.6327 -2.1704
 3712TIP3    H235332   6.446   0.161   8.723  2.1197  1.5738  0.8834
 3713TIP3   OH235333   6.052   4.956   9.028  0.1660  0.1470 -0.3926
 3713TIP3    H135334   6.042   4.897   8.953  2.0933  2.1636 -2.4067
 3713TIP3    H235335   6.130   4.925   9.073  0.5364  0.4796 -0.7977
 3714TIP3   OH235336   0.759   3.273   7.393 -0.3491  0.3360  0.1929
 3714TIP3    H135337   0.791   3.292   7.305  0.0649 -0.0618  0.2539
 3714TIP3    H235338   0.669   3.304   7.393 -0.1851  0.8301 -0.2025
 3715TIP3   OH235339   6.801   3.890   8.186  0.3483 -0.6280 -0.3790
 3715TIP3    H135340   6.722   3.891   8.241 -0.3397 -0.4330 -1.3385
 3715TIP3    H235341   6.810   3.981   8.157  0.4864 -0.8013 -0.8811
 3716TIP3   OH235342   7.481   7.258   9.415 -0.4828  0.2467  0.6957
 3716TIP3    H135343   7.545   7.328   9.406  0.0924  0.0017  2.4074
 3716TIP3    H235344   7.435   7.278   9.497 -2.3007  0.1564 -0.2406
 3717TIP3   OH235345   4.311   5.119   6.739  0.5369 -0.2027  0.3811
 3717TIP3    H135346   4.340   5.199   6.696  1.5443 -0.8951 -0.2792
 3717TIP3    H235347   4.329   5.049   6.676 -1.5216 -0.8328  0.4219
 3718TIP3   OH235348   1.789   6.303   8.651 -0.1543 -0.0611  0.7372
 3718TIP3    H135349   1.845   6.359   8.705  2.6760 -0.9057 -1.0797
 3718TIP3    H235350   1.794   6.217   8.691 -0.3150 -0.0998  0.6762
 3719TIP3   OH235351   2.355   1.110   9.187 -0.0048  0.0282 -0.1320
 3719TIP3    H135352   2.322   1.179   9.130 -1.3775 -0.9451 -0.5487
 3719TIP3    H235353   2.345   1.030   9.137  0.0417 -0.6894  0.9662
 3720TIP3   OH235354   3.812   0.701   8.623 -0.1013 -0.2007 -0.4011
 3720TIP3    H135355   3.751   0.670   8.690 -2.0636  2.2328 -0.8953
 3720TIP3    H235356   3.796   0.796   8.619  1.5028  0.0430 -2.8028
 3721TIP3   OH235357   4.563   1.740   7.674 -0.3375 -0.5733  0.0867
 3721TIP3    H135358   4.588   1.691   7.752 -0.6586 -1.4337 -0.3430
 3721TIP3    H235359   4.485   1.695   7.640 -0.3077 -0.1087 -0.6309
 3722TIP3   OH235360   2.505   3.703   6.617 -0.5649  0.4264  0.1935
 3722TIP3    H135361   2.555   3.780   6.646  1.4999  0.0776 -2.1110
 3722TIP3    H235362   2.570   3.632   6.613 -1.8331 -0.7534 -0.3482
 3723TIP3   OH235363   1.613   0.156   9.842  0.1412  0.2616  0.4844
 3723TIP3    H135364   1.564   0.152   9.924  1.2833 -0.0598  1.1822
 3723TIP3    H235365   1.698   0.117   9.863  0.7223  0.8454 -0.6609
 3724TIP3   OH235366   7.002   0.026   7.426 -0.1006  0.0089  0.7678
 3724TIP3    H135367   6.942   0.090   7.387 -0.0866 -0.5899 -0.2487
 3724TIP3    H235368   7.010  -0.043   7.361 -1.1771 -1.7229  2.3707
 3725TIP3   OH235369   0.148   4.743   9.131  0.2500 -0.0456  0.2169
 3725TIP3    H135370   0.167   4.796   9.209 -2.5612  0.0789  0.8966
 3725TIP3    H235371   0.130   4.656   9.166 -0.4550 -0.1281 -0.3444
 3726TIP3   OH235372   0.437   7.461   9.325 -0.0865 -0.8701  0.0765
 3726TIP3    H135373   0.527   7.488   9.343  0.3963 -2.2119 -0.2041
 3726TIP3    H235374   0.390   7.543   9.313  1.0215 -0.1324  0.5748
 3727TIP3   OH235375   6.004   7.163   8.240 -0.5250 -0.5065  0.4047
 3727TIP3    H135376   5.982   7.092   8.300 -0.6997  0.0997  1.0683
 3727TIP3    H235377   6.098   7.178   8.254 -0.4273 -0.7840  0.0660
 3728TIP3   OH235378   5.774   3.684   9.315  0.3129 -0.3829  0.0040
 3728TIP3    H135379   5.685   3.715   9.329  0.8462  1.2028  0.1018
 3728TIP3    H235380   5.779   3.601   9.362 -0.8839 -0.1010  0.6472
 3729TIP3   OH235381   3.655   2.404   9.031 -0.4785 -0.3225 -0.0099
 3729TIP3    H135382   3.615   2.481   8.990  1.8496  1.1042  0.2408
 3729TIP3    H235383   3.651   2.337   8.964 -0.1495  0.8420 -1.2504
 3730TIP3   OH235384   5.018   4.008   8.168 -0.7191  0.7864 -0.2650
 3730TIP3    H135385   4.943   4.013   8.109 -0.7338 -0.6085 -0.3979
 3730TIP3    H235386   5.086   4.060   8.125 -1.1234  0.7952 -0.9047
 3731TIP3   OH235387   3.005   0.272   8.390 -0.3214 -0.0154 -1.0821
 3731TIP3    H135388   2.930   0.292   8.333 -1.5484  1.3034  0.8747
 3731TIP3    H235389   2.967   0.226   8.465  0.7890  0.7457 -0.0186
 3732TIP3   OH235390   4.469   3.696   9.036  0.1508 -0.4357  0.1988
 3732TIP3    H135391   4.388   3.745   9.049  0.6816  0.4846  0.1605
 3732TIP3    H235392   4.513   3.697   9.121  0.4209 -0.3597  0.0618
 3733TIP3   OH235393   3.611   5.165   8.828  0.7483 -0.5540 -0.4397
 3733TIP3    H135394   3.585   5.074   8.842  2.2239 -1.3431 -2.3601
 3733TIP3    H235395   3.661   5.188   8.907 -1.0152 -0.8156  0.8021
 3734TIP3   OH235396   4.896   3.647   9.369  0.4887 -0.3519 -0.3199
 3734TIP3    H135397   4.853   3.693   9.442  1.2593 -1.1727  0.6784
 3734TIP3    H235398   4.985   3.682   9.368  0.3861 -0.1107 -1.0883
 3735TIP3   OH235399   6.098   4.876   8.093  0.2321 -0.5312 -0.0519
 3735TIP3    H135400   6.150   4.919   8.026 -1.9952  2.1175 -0.2913
 3735TIP3    H235401   6.042   4.816   8.045 -1.5723  1.5758 -0.7910
 3736TIP3   OH235402   2.162   5.701   7.654 -0.8255 -0.1945  0.1031
 3736TIP3    H135403   2.077   5.737   7.679 -0.7991  0.3037 -0.5059
 3736TIP3    H235404   2.149   5.666   7.566 -0.2577  0.4222 -0.2370
 3737TIP3   OH235405   3.169   5.221   7.526  0.2211 -0.1503  0.2002
 3737TIP3    H135406   3.206   5.279   7.593  0.1155 -0.0787  0.1957
 3737TIP3    H235407   3.195   5.261   7.443  0.5118 -0.3399  0.1967
 3738TIP3   OH235408   0.165   0.723   7.097  0.1599 -0.0211  0.1391
 3738TIP3    H135409   0.138   0.755   7.011 -0.4810  1.0612  0.7233
 3738TIP3    H235410   0.260   0.738   7.099  0.1371  0.2042 -0.2851
 3739TIP3   OH235411   1.254   0.414   7.018 -0.0624  0.4624 -0.1459
 3739TIP3    H135412   1.289   0.393   6.931  0.1343  0.2543 -0.0163
 3739TIP3    H235413   1.161   0.433   7.003  0.0269  0.6666 -0.4382
 3740TIP3   OH235414   4.873   3.760   7.354 -0.3269 -0.0704  0.0667
 3740TIP3    H135415   4.841   3.795   7.438 -0.5157  1.9965 -0.7905
 3740TIP3    H235416   4.951   3.812   7.334  1.5537 -2.6146  0.3730
 3741TIP3   OH235417   2.195   0.450   8.852 -0.1713  0.1789 -0.2159
 3741TIP3    H135418   2.237   0.369   8.881  0.8420  1.1076  1.0218
 3741TIP3    H235419   2.162   0.490   8.933 -0.2161  1.2482 -0.7478
 3742TIP3   OH235420   0.072   3.640   7.843 -0.4088 -0.3042 -0.2328
 3742TIP3    H135421   0.124   3.710   7.805  0.8181 -0.7309  0.5932
 3742TIP3    H235422   0.097   3.562   7.792 -0.7881 -0.3882 -0.2956
 3743TIP3   OH235423   0.250   1.429   7.435  0.2454  0.2115 -0.2184
 3743TIP3    H135424   0.286   1.501   7.383  1.3732 -0.2718 -0.1394
 3743TIP3    H235425   0.324   1.369   7.447 -0.4491 -0.5299  0.4657
 3744TIP3   OH235426   1.165   0.793   9.476 -0.0746  0.3936 -0.2623
 3744TIP3    H135427   1.193   0.885   9.472 -2.7289  1.4004  1.6049
 3744TIP3    H235428   1.189   0.766   9.564 -0.1237 -0.4352 -0.5015
 3745TIP3   OH235429   4.628   4.244   9.317  0.0415 -0.1969  0.1262
 3745TIP3    H135430   4.697   4.185   9.346  0.5281 -0.8230 -2.1191
 3745TIP3    H235431   4.554   4.187   9.297 -1.0350  0.4328  2.1233
 3746TIP3   OH235432   5.388   3.206   7.706  0.1456 -0.0430 -0.3421
 3746TIP3    H135433   5.379   3.207   7.611  0.0731  0.3739 -0.3303
 3746TIP3    H235434   5.436   3.125   7.724 -0.2278 -0.3447 -0.6965
 3747TIP3   OH235435   1.366   1.357   8.995 -0.1545  0.0994  0.2284
 3747TIP3    H135436   1.427   1.375   8.924  1.2289 -1.0428  1.0687
 3747TIP3    H235437   1.308   1.290   8.961 -0.1191  0.2542 -0.1397
 3748TIP3   OH235438   3.660   1.151   7.995 -0.1512 -0.7025  0.1308
 3748TIP3    H135439   3.609   1.226   7.963  1.0653  0.3975  0.6595
 3748TIP3    H235440   3.665   1.164   8.089 -1.4593 -2.4724  0.4827
 3749TIP3   OH235441   5.952   2.696   6.886 -0.1582 -0.8437  0.7683
 3749TIP3    H135442   5.999   2.647   6.818 -0.4694 -1.5451  1.0484
 3749TIP3    H235443   6.022   2.736   6.939  0.1345 -1.7046  1.0515
 3750TIP3   OH235444   5.048   1.729   8.067 -0.2002  0.5332  0.1717
 3750TIP3    H135445   5.097   1.650   8.094  1.5660  1.5300  0.0521
 3750TIP3    H235446   4.987   1.697   8.000 -0.8815 -1.0433  1.4784
 3751TIP3   OH235447   6.775   1.649   8.260 -0.2036  0.4377 -0.2677
 3751TIP3    H135448   6.733   1.727   8.298 -2.8284 -1.7812  1.8070
 3751TIP3    H235449   6.764   1.659   8.166 -0.6426  2.4535 -0.0464
 3752TIP3   OH235450   5.129   1.157   9.083 -0.3655  0.3915  0.2026
 3752TIP3    H135451   5.185   1.230   9.109  1.3479 -0.6341 -0.4080
 3752TIP3    H235452   5.087   1.187   9.002 -0.0976  0.9012  0.2477
 3753TIP3   OH235453   5.244   2.946   8.303  0.2528  0.0142  0.2775
 3753TIP3    H135454   5.292   2.897   8.369  1.2685  0.0334 -0.4207
 3753TIP3    H235455   5.170   2.984   8.350  1.3404  0.6347  1.5699
 3754TIP3   OH235456   4.187   2.912   8.587  0.0940 -0.0637 -0.4047
 3754TIP3    H135457   4.180   2.881   8.677  1.4902 -0.7268 -0.4986
 3754TIP3    H235458   4.166   2.836   8.533  0.6800 -0.0702 -0.6317
 3755TIP3   OH235459   5.363   5.636   9.235  0.0673  0.8968 -0.4380
 3755TIP3    H135460   5.271   5.612   9.239  0.8728 -2.6052  0.5226
 3755TIP3    H235461   5.392   5.636   9.327  2.2865 -4.8518 -0.6939
 3756TIP3   OH235462   3.636   6.234   9.525  0.6647 -0.1183 -0.2455
 3756TIP3    H135463   3.668   6.202   9.441  0.0373 -0.2559 -0.4383
 3756TIP3    H235464   3.545   6.204   9.530 -0.0064  1.6975 -0.4860
 3757TIP3   OH235465   5.483   6.472   8.971  0.1387 -0.0194  0.1837
 3757TIP3    H135466   5.487   6.568   8.963 -0.9518 -0.0095 -0.4428
 3757TIP3    H235467   5.419   6.457   9.040  0.1021 -0.2922  0.0899
 3758TIP3   OH235468   7.449   7.089   7.960  0.3378 -0.1120 -0.6502
 3758TIP3    H135469   7.452   7.162   7.898  1.0082 -0.1727 -0.7013
 3758TIP3    H235470   7.425   7.013   7.907  1.1425 -0.2082 -0.8870
 3759TIP3   OH235471   3.566   2.629   8.943 -0.0822 -0.4365 -0.3850
 3759TIP3    H135472   3.626   2.681   8.998 -1.4169  0.9736 -0.2045
 3759TIP3    H235473   3.546   2.686   8.869 -0.6472 -1.1809 -0.8189
 3760TIP3   OH235474   6.122   6.666   8.908 -0.0899 -0.6941 -0.1903
 3760TIP3    H135475   6.200   6.638   8.861  2.0044  0.8847  2.1107
 3760TIP3    H235476   6.068   6.587   8.913  1.5619 -1.9790 -1.4021
 3761TIP3   OH235477   3.103   2.080   8.837 -0.5580  0.1608  0.0344
 3761TIP3    H135478   3.031   2.050   8.783 -1.1035  0.7479  0.4255
 3761TIP3    H235479   3.171   2.014   8.825  0.5594  1.6930 -3.7451
 3762TIP3   OH235480   5.035   7.289   7.452 -0.1814  0.1211  0.1503
 3762TIP3    H135481   4.951   7.308   7.411  0.6569  0.4180 -1.5333
 3762TIP3    H235482   5.093   7.268   7.378  1.6805  1.6930  1.0854
 3763TIP3   OH235483   6.182   1.176   8.158 -0.4160 -0.2039  0.1095
 3763TIP3    H135484   6.156   1.086   8.138  0.8145 -0.5533 -0.0268
 3763TIP3    H235485   6.220   1.209   8.076  0.2621  0.0054  0.4952
 3764TIP3   OH235486   0.347   1.984   7.855 -0.2493 -0.0920 -0.0800
 3764TIP3    H135487   0.329   2.054   7.792  0.8038  1.0031  0.7879
 3764TIP3    H235488   0.273   1.924   7.845  0.0585 -0.1401 -2.5748
 3765TIP3   OH235489   6.478   3.464   9.005 -0.0014  0.8503  0.2530
 3765TIP3    H135490   6.425   3.497   8.932 -1.1989 -0.0527  0.6742
 3765TIP3    H235491   6.455   3.521   9.079  0.4785  1.1602  0.1665
 3766TIP3   OH235492   4.766   3.338   8.371 -0.6103 -0.4316  0.4542
 3766TIP3    H135493   4.762   3.423   8.414  1.7617  0.5334 -1.0687
 3766TIP3    H235494   4.857   3.310   8.380 -0.8850 -1.8776 -0.8006
 3767TIP3   OH235495   1.311   0.884   7.694 -0.2166 -0.1559  0.3152
 3767TIP3    H135496   1.238   0.884   7.756  0.2833  1.9813  0.9695
 3767TIP3    H235497   1.333   0.791   7.684 -1.2973 -0.6603  2.1423
 3768TIP3   OH235498   1.910   4.752   7.309 -0.4180  0.3937 -0.3179
 3768TIP3    H135499   1.963   4.675   7.290 -0.8307  0.1990 -0.6793
 3768TIP3    H235500   1.820   4.720   7.312 -0.3643  0.2925  2.5223
 3769TIP3   OH235501   6.055   6.362   9.258  0.3302 -0.0371 -0.2005
 3769TIP3    H135502   6.097   6.296   9.313  0.9979  0.0579 -0.5908
 3769TIP3    H235503   6.062   6.328   9.169 -0.7687 -0.2015 -0.2366
 3770TIP3   OH235504   5.763   2.803   7.899 -0.0655 -0.0891 -0.7225
 3770TIP3    H135505   5.741   2.811   7.992 -0.7317  0.8941 -0.9347
 3770TIP3    H235506   5.820   2.879   7.882 -0.4676  0.1011 -1.2439
 3771TIP3   OH235507   1.629   1.556   7.141 -0.0362 -0.1500  0.0294
 3771TIP3    H135508   1.622   1.528   7.050 -0.5529 -1.7298  0.5342
 3771TIP3    H235509   1.538   1.564   7.171  0.1280  0.4898  0.3786
 3772TIP3   OH235510   2.006   4.445   9.355 -0.5385 -0.0388 -0.3600
 3772TIP3    H135511   1.999   4.389   9.277  1.4420 -0.7183 -0.1136
 3772TIP3    H235512   1.943   4.515   9.340  0.9715  0.8501 -3.4407
 3773TIP3   OH235513   3.366   2.920   8.145 -0.5335  0.1187  0.1966
 3773TIP3    H135514   3.338   3.010   8.124 -1.0179 -0.4717 -2.0150
 3773TIP3    H235515   3.461   2.926   8.150 -0.4202  0.4936 -1.6574
 3774TIP3   OH235516   4.847   4.573   8.528  0.0561  0.1215  0.5504
 3774TIP3    H135517   4.863   4.601   8.438  0.7924 -0.7592  0.3959
 3774TIP3    H235518   4.890   4.488   8.535  0.1158  0.2376  1.7763
 3775TIP3   OH235519   2.310   6.839   7.432  0.0298  0.3353  0.0264
 3775TIP3    H135520   2.367   6.827   7.508 -0.3083  0.6091  0.3293
 3775TIP3    H235521   2.234   6.886   7.466  0.0183  0.7497 -0.5403
 3776TIP3   OH235522   4.288   7.138   7.484  0.5144  0.0625 -0.6980
 3776TIP3    H135523   4.248   7.225   7.478 -0.1004  0.0181  1.5347
 3776TIP3    H235524   4.382   7.155   7.486  0.3779  0.8282  0.8983
 3777TIP3   OH235525   6.478   5.974   7.836  0.1131  0.6914 -0.6889
 3777TIP3    H135526   6.559   5.942   7.877 -0.4160 -1.0809 -0.9708
 3777TIP3    H235527   6.438   6.029   7.903  1.2079  1.0327 -0.2934
 3778TIP3   OH235528   4.207   2.976   7.400  0.3051 -0.0447 -0.0862
 3778TIP3    H135529   4.302   2.968   7.398  0.2641 -0.5151 -0.1674
 3778TIP3    H235530   4.189   3.024   7.481  0.6201  0.2001 -0.1611
 3779TIP3   OH235531   2.169   4.874   9.206 -0.5885 -0.2952 -0.1787
 3779TIP3    H135532   2.078   4.844   9.215 -0.0406 -1.5072  1.9853
 3779TIP3    H235533   2.222   4.798   9.226  0.9728  0.2681 -1.8836
 3780TIP3   OH235534   2.585   7.257   9.305  0.4994  0.0883  0.2133
 3780TIP3    H135535   2.575   7.304   9.388  0.2093 -0.7983  0.6992
 3780TIP3    H235536   2.545   7.172   9.321 -0.0841  0.1108 -1.0319
 3781TIP3   OH235537   1.863   5.337   8.673  0.2609  0.0645 -0.9953
 3781TIP3    H135538   1.820   5.380   8.599  0.7248 -0.5518 -1.6235
 3781TIP3    H235539   1.866   5.245   8.649 -1.6437 -0.5484  0.7715
 3782TIP3   OH235540   5.163   7.091   9.533  0.2030 -0.2737  0.6292
 3782TIP3    H135541   5.144   7.026   9.601 -2.9848 -0.0731  0.1172
 3782TIP3    H235542   5.148   7.043   9.451 -1.1360  0.7878  0.2246
 3783TIP3   OH235543   5.043   0.540   8.718  0.4618  0.2835  0.9613
 3783TIP3    H135544   5.014   0.629   8.740 -1.3087 -0.1915  0.6981
 3783TIP3    H235545   5.139   0.543   8.727  0.5262  2.4309  0.1881
 3784TIP3   OH235546   7.417   5.815   6.716 -0.0217  0.2282 -0.0041
 3784TIP3    H135547   7.433   5.737   6.768 -2.4345  0.0307  0.5329
 3784TIP3    H235548   7.501   5.833   6.674  0.8818 -1.9993  0.7116
 3785TIP3   OH235549   7.012   4.551   6.775 -0.0599 -0.2926 -0.0977
 3785TIP3    H135550   6.952   4.510   6.712 -0.9652  1.3475 -0.3853
 3785TIP3    H235551   7.042   4.480   6.830 -1.9835 -1.2561 -0.2109
 3786TIP3   OH235552   6.671   6.810   9.267  0.2293  0.8775  0.1238
 3786TIP3    H135553   6.654   6.725   9.225 -0.8444  1.2434 -0.2170
 3786TIP3    H235554   6.708   6.788   9.352  2.0572  0.1106 -0.8305
 3787TIP3   OH235555   2.538   2.103   7.999 -0.2457 -0.4297 -0.2316
 3787TIP3    H135556   2.454   2.135   7.967 -0.2577 -0.4980 -0.2677
 3787TIP3    H235557   2.594   2.098   7.922 -0.0423  0.1314 -0.1277
 3788TIP3   OH235558   4.517   0.394   7.583 -0.5459 -0.1564 -0.2051
 3788TIP3    H135559   4.507   0.303   7.613 -0.8220 -0.4978 -1.2952
 3788TIP3    H235560   4.601   0.395   7.537 -0.7995  0.0172 -0.6599
 3789TIP3   OH235561   4.005   6.355   9.037  0.2856  0.0514 -0.3198
 3789TIP3    H135562   3.990   6.260   9.034 -1.3583  0.2489  0.4279
 3789TIP3    H235563   3.918   6.393   9.030  0.9095  1.5158 -0.4184
 3790TIP3   OH235564   0.497   5.892   9.054 -0.3290 -0.0858  0.1436
 3790TIP3    H135565   0.554   5.863   8.983  1.3703 -1.2915  1.9062
 3790TIP3    H235566   0.516   5.986   9.063 -0.7637  0.1450 -1.1058
 3791TIP3   OH235567   6.493   6.489   8.558  0.0786  0.3960 -0.2288
 3791TIP3    H135568   6.415   6.531   8.595  0.0487 -1.1847  1.6340
 3791TIP3    H235569   6.560   6.499   8.625  0.5152 -1.1241 -0.4063
 3792TIP3   OH235570   0.172   3.024   8.758  0.1267 -0.1513 -0.7192
 3792TIP3    H135571   0.094   3.017   8.704  0.3632  0.0531 -1.0952
 3792TIP3    H235572   0.145   2.993   8.844 -0.3569 -0.1168 -0.8562
 3793TIP3   OH235573   4.852   4.633   7.139 -0.2619 -0.0422 -0.0379
 3793TIP3    H135574   4.930   4.582   7.118 -0.7442 -0.2874 -1.3881
 3793TIP3    H235575   4.800   4.576   7.195 -0.2657 -0.5983 -0.5890
 3794TIP3   OH235576   5.214   2.120   8.332  0.0019  0.2783  0.2943
 3794TIP3    H135577   5.221   2.175   8.410 -0.3479 -1.4282  1.5958
 3794TIP3    H235578   5.208   2.031   8.367  1.4601 -0.6820 -1.7551
 3795TIP3   OH235579   6.226   0.470   7.092  0.7645  0.7426 -0.4780
 3795TIP3    H135580   6.312   0.428   7.098  0.7708  0.9601  1.9143
 3795TIP3    H235581   6.246   0.562   7.073  1.0912  0.8358  0.2824
 3796TIP3   OH235582   1.432   6.590   7.786  0.1634 -0.5066 -0.6955
 3796TIP3    H135583   1.354   6.594   7.841  1.2912  2.2682  0.8970
 3796TIP3    H235584   1.502   6.563   7.845  0.5943 -2.5415 -2.0111
 3797TIP3   OH235585   2.810   7.249   7.315 -0.0621 -0.8229 -0.0203
 3797TIP3    H135586   2.745   7.318   7.299  1.0102  0.0821 -0.6469
 3797TIP3    H235587   2.894   7.295   7.313  0.6889 -2.1605 -0.5078
 3798TIP3   OH235588   6.648   7.128   7.220 -0.0784 -0.2910  0.0217
 3798TIP3    H135589   6.587   7.070   7.174 -0.3300  0.4526 -0.6063
 3798TIP3    H235590   6.595   7.205   7.242  0.1467 -0.4586  1.2026
 3799TIP3   OH235591   3.535   5.414   8.756 -0.0770  0.2581  0.8218
 3799TIP3    H135592   3.524   5.320   8.771  1.8362 -0.1246  0.1918
 3799TIP3    H235593   3.466   5.437   8.694 -1.2117 -0.4857  1.7754
 3800TIP3   OH235594   6.457   2.245   8.276  0.0147  0.2947 -0.1315
 3800TIP3    H135595   6.501   2.163   8.301  2.3913  1.5388  0.1356
 3800TIP3    H235596   6.434   2.233   8.184 -0.7188 -1.0634  0.2000
 3801TIP3   OH235597   5.456   4.427   9.083  0.1800 -0.2376  0.1275
 3801TIP3    H135598   5.451   4.339   9.045 -2.0591 -0.1845  0.1823
 3801TIP3    H235599   5.445   4.486   9.008  1.3591  0.0396  0.1398
 3802TIP3   OH235600   2.970   1.357   7.467 -0.3500 -0.3414  0.1089
 3802TIP3    H135601   2.903   1.290   7.455 -0.7046  0.0287  0.0031
 3802TIP3    H235602   2.946   1.401   7.549 -0.3001 -0.1397  0.0178
 3803TIP3   OH235603   4.618   6.805   7.282  0.0318 -0.3399  0.2386
 3803TIP3    H135604   4.671   6.838   7.355 -0.9197 -0.9207  1.2094
 3803TIP3    H235605   4.681   6.760   7.226  0.6177 -0.8245  1.2585
 3804TIP3   OH235606   1.039   6.281   8.821 -0.1164 -0.2817  0.2481
 3804TIP3    H135607   1.127   6.293   8.857 -0.5628  0.2959  1.1663
 3804TIP3    H235608   1.033   6.347   8.752  0.8062 -1.5126 -1.0724
 3805TIP3   OH235609   2.262   3.546   9.105 -0.3839  0.1973 -0.1555
 3805TIP3    H135610   2.349   3.561   9.141 -0.1299 -0.8382 -0.2979
 3805TIP3    H235611   2.202   3.590   9.165  0.3502  2.7724 -1.2100
 3806TIP3   OH235612   1.332   0.220   8.003  0.4137  0.0800  0.2823
 3806TIP3    H135613   1.379   0.137   8.006 -0.6008 -0.5513 -0.5517
 3806TIP3    H235614   1.393   0.280   7.960  0.3911 -0.8054 -1.0645
 3807TIP3   OH235615   5.656   6.883   9.080  0.3034  0.7846 -0.1375
 3807TIP3    H135616   5.700   6.943   9.140  2.0889  0.5469 -1.1356
 3807TIP3    H235617   5.716   6.875   9.005  0.2485 -2.3483  0.0036
 3808TIP3   OH235618   5.021   0.797   8.954  0.2743 -0.7521 -0.1432
 3808TIP3    H135619   4.942   0.841   8.983 -0.0823 -0.2273 -1.7980
 3808TIP3    H235620   5.089   0.825   9.016 -0.3068  0.7723 -0.1633
 3809TIP3   OH235621   1.232   4.000   8.049  0.2060  0.5919  0.4428
 3809TIP3    H135622   1.229   4.025   7.957  2.1926 -2.4839 -0.6136
 3809TIP3    H235623   1.298   4.057   8.087  2.3578 -0.7088 -1.1180
 3810TIP3   OH235624   2.988   0.286   8.908 -0.3587  1.0217 -0.0528
 3810TIP3    H135625   2.957   0.260   8.821  0.2015  0.6028 -0.1273
 3810TIP3    H235626   2.920   0.254   8.968  0.2859 -0.5938 -0.1487
 3811TIP3   OH235627   1.080   2.416   8.614 -0.4059 -0.2262 -0.1744
 3811TIP3    H135628   1.011   2.447   8.672 -1.1099 -0.0723 -1.0713
 3811TIP3    H235629   1.140   2.491   8.605 -0.6019 -0.0619 -0.1072
 3812TIP3   OH235630   7.189   3.127   6.848  0.2147 -0.2688  0.1658
 3812TIP3    H135631   7.227   3.050   6.889 -0.4631 -0.3518  0.6542
 3812TIP3    H235632   7.264   3.184   6.829  0.6220 -0.6210  0.6980
 3813TIP3   OH235633   3.780   1.310   8.453 -0.1293 -0.0916 -0.1958
 3813TIP3    H135634   3.695   1.326   8.496 -0.7610  0.0320 -1.4559
 3813TIP3    H235635   3.804   1.394   8.416 -0.3117 -0.5313 -1.3379
 3814TIP3   OH235636   7.421   5.938   8.816 -0.1682 -0.1426  0.0239
 3814TIP3    H135637   7.490   5.874   8.833 -1.2299 -1.2513  0.3450
 3814TIP3    H235638   7.384   5.911   8.732 -0.9781 -0.2908  0.4196
 3815TIP3   OH235639   2.275   0.409   9.280  0.2492 -0.7882  0.1068
 3815TIP3    H135640   2.186   0.377   9.266  0.0438 -0.3045  0.2879
 3815TIP3    H235641   2.269   0.463   9.358  0.4403  0.2608 -0.5808
 3816TIP3   OH235642   2.025   4.525   8.491 -0.4578 -0.1970  0.0834
 3816TIP3    H135643   2.053   4.612   8.459 -0.7643 -0.2127 -0.2330
 3816TIP3    H235644   2.074   4.513   8.572 -0.0983  0.0967 -0.0846
 3817TIP3   OH235645   3.302   0.625   8.560  0.3699  0.1322  0.5189
 3817TIP3    H135646   3.374   0.591   8.507 -0.3001  1.5194 -1.4068
 3817TIP3    H235647   3.223   0.586   8.522 -0.0224 -0.0584  1.5084
 3818TIP3   OH235648   2.253   5.639   8.403 -0.2748 -0.4108  0.0080
 3818TIP3    H135649   2.261   5.687   8.486  0.7958 -1.7866  0.7467
 3818TIP3    H235650   2.183   5.576   8.418 -0.4294 -0.3199 -0.3180
 3819TIP3   OH235651   6.465   2.976   9.589  0.5432 -0.0045 -0.0947
 3819TIP3    H135652   6.454   3.046   9.524 -1.0642 -1.1945 -1.2112
 3819TIP3    H235653   6.375   2.947   9.607  1.1851 -2.5336 -0.5800
 3820TIP3   OH235654   1.972   0.467   7.774 -0.2356  1.2716  0.3403
 3820TIP3    H135655   2.049   0.454   7.830  0.8737 -0.2690 -1.4106
 3820TIP3    H235656   1.902   0.490   7.834  1.4021  1.9229  2.0949
 3821TIP3   OH235657   7.494   5.938   9.446  0.2581  0.4476  0.0287
 3821TIP3    H135658   7.499   5.964   9.538  0.7536 -1.5385  0.6167
 3821TIP3    H235659   7.571   5.978   9.405 -0.2312  1.7543  0.3342
 3822TIP3   OH235660   2.354   1.199   8.043 -0.2829 -0.0422  0.4367
 3822TIP3    H135661   2.383   1.279   7.999  2.4942 -1.2546 -0.1400
 3822TIP3    H235662   2.334   1.139   7.972 -0.0985 -0.5984  0.8518
 3823TIP3   OH235663   5.599   1.893   8.807 -0.1916 -0.2525 -0.2335
 3823TIP3    H135664   5.660   1.841   8.755  2.4640  0.8530  1.5161
 3823TIP3    H235665   5.540   1.828   8.846 -1.2319 -1.2278 -3.2025
 3824TIP3   OH235666   1.278   2.219   8.612 -0.2219 -0.1748 -0.3675
 3824TIP3    H135667   1.206   2.281   8.617 -0.7531 -0.7750 -0.4808
 3824TIP3    H235668   1.252   2.156   8.545  0.2815 -0.5521 -0.2214
 3825TIP3   OH235669   0.504   3.329   7.307  0.0090  0.1262 -0.7528
 3825TIP3    H135670   0.498   3.412   7.355  1.8218 -0.2947  0.3233
 3825TIP3    H235671   0.507   3.355   7.215 -0.9943  1.1356 -0.5187
 3826TIP3   OH235672   3.263   1.601   6.981  0.8133  0.2814 -0.4077
 3826TIP3    H135673   3.324   1.571   7.048  1.9013  1.3362 -0.8922
 3826TIP3    H235674   3.312   1.598   6.900 -0.2750 -0.3073 -1.0671
 3827TIP3   OH235675   4.668   5.892   8.631  0.3019 -1.0993  0.6826
 3827TIP3    H135676   4.611   5.955   8.675  0.6934 -0.7219  0.6600
 3827TIP3    H235677   4.637   5.891   8.541  0.3849 -0.8232  0.6480
 3828TIP3   OH235678   1.843   4.823   8.739 -0.2478 -0.2806 -0.1635
 3828TIP3    H135679   1.808   4.735   8.725  1.4516 -0.8011 -1.5555
 3828TIP3    H235680   1.887   4.818   8.824 -0.0097 -0.8264 -0.3184
 3829TIP3   OH235681   5.272   3.953   8.372  0.5497  0.5286  0.0049
 3829TIP3    H135682   5.220   3.898   8.431  0.1136  1.2619  0.3227
 3829TIP3    H235683   5.217   3.965   8.295  1.5967 -1.4247 -1.1293
 3830TIP3   OH235684   3.496   3.090   8.360  0.1543  0.3037  0.3049
 3830TIP3    H135685   3.463   3.127   8.278 -0.0864 -1.2074 -0.3165
 3830TIP3    H235686   3.539   3.009   8.334 -0.6308 -0.6242  1.7611
 3831TIP3   OH235687   0.129   4.439   9.195 -0.1725 -0.0712 -0.1433
 3831TIP3    H135688   0.173   4.403   9.119 -0.2056  1.3831 -0.8920
 3831TIP3    H235689   0.038   4.411   9.186 -0.6483  1.7946 -1.8225
 3832TIP3   OH235690   6.410   0.069   9.542 -0.4686 -0.1373 -0.4644
 3832TIP3    H135691   6.395  -0.005   9.484  0.8396  0.1325 -1.1674
 3832TIP3    H235692   6.442   0.030   9.623  0.0842 -0.3526 -0.7848
 3833TIP3   OH235693   4.164   5.581   8.833 -0.1824 -0.3578 -0.4259
 3833TIP3    H135694   4.105   5.548   8.765 -0.5138  0.4851 -0.5592
 3833TIP3    H235695   4.243   5.526   8.824  0.9262  1.4464 -3.3641
 3834TIP3   OH235696   0.688   4.202   9.727 -0.5535  0.1656 -0.2804
 3834TIP3    H135697   0.718   4.292   9.712  2.0532 -0.3854  1.1033
 3834TIP3    H235698   0.594   4.205   9.707 -0.1135  2.6075 -2.5993
 3835TIP3   OH235699   2.964   4.838   9.047  0.1733 -0.1021 -0.3915
 3835TIP3    H135700   3.028   4.767   9.052  0.6318  0.2667 -0.8414
 3835TIP3    H235701   2.952   4.852   8.953  0.3274  0.6160 -0.3126
 3836TIP3   OH235702   6.757   3.915   9.033  0.4238  0.1127  0.2231
 3836TIP3    H135703   6.802   3.989   8.993  0.5827 -0.0962  0.0088
 3836TIP3    H235704   6.827   3.851   9.051  0.3682  0.2383  0.9184
 3837TIP3   OH235705   2.266   4.225   9.279 -0.3545  0.0392  0.0308
 3837TIP3    H135706   2.253   4.297   9.341 -0.3705 -1.0490  1.3274
 3837TIP3    H235707   2.216   4.152   9.316 -0.9541 -0.4423 -1.6442
 3838TIP3   OH235708   6.011   3.317   7.661  0.0194  0.0897  0.5175
 3838TIP3    H135709   6.047   3.404   7.644  1.2970 -0.5017  0.0602
 3838TIP3    H235710   6.036   3.298   7.751 -0.1064  0.1352  0.5611
 3839TIP3   OH235711   4.070   5.530   8.122  0.8664 -0.0967 -0.2214
 3839TIP3    H135712   4.044   5.482   8.044 -0.3033 -0.0542  0.1234
 3839TIP3    H235713   4.006   5.505   8.189  1.4512  0.3682  0.5384
 3840TIP3   OH235714   0.672   1.485   8.398 -0.4355  0.1429  0.1075
 3840TIP3    H135715   0.725   1.517   8.325  0.6891  0.2452  0.9517
 3840TIP3    H235716   0.585   1.472   8.360  0.1672  0.0125 -1.2939
 3841TIP3   OH235717   6.914   2.121   7.329 -0.3468 -0.6497  0.1757
 3841TIP3    H135718   6.992   2.078   7.364 -0.5050 -1.8183 -0.8158
 3841TIP3    H235719   6.938   2.146   7.240 -0.8177 -0.2218  0.1637
 3842TIP3   OH235720   0.704   1.886   9.030  0.6694 -0.0607  0.1718
 3842TIP3    H135721   0.795   1.916   9.028  0.1996  1.3945 -1.2967
 3842TIP3    H235722   0.655   1.953   8.982 -0.8755 -1.8097 -0.8192
 3843TIP3   OH235723   7.247   3.541   7.907  0.2176  0.2500  0.0161
 3843TIP3    H135724   7.320   3.595   7.876 -0.3482  0.8782 -0.2464
 3843TIP3    H235725   7.242   3.559   8.001  0.7807 -0.2631  0.1504
 3844TIP3   OH235726   0.724   5.359   9.190  0.0254  0.2043 -0.3531
 3844TIP3    H135727   0.752   5.425   9.127 -1.9966  0.8238 -0.6603
 3844TIP3    H235728   0.721   5.406   9.273  1.2204 -0.2331 -0.0385
 3845TIP3   OH235729   6.369   2.718   9.180  0.3301  0.5680 -0.0176
 3845TIP3    H135730   6.306   2.661   9.224 -0.6281  0.3062 -1.6502
 3845TIP3    H235731   6.450   2.667   9.178 -0.6001 -0.9676 -1.7672
 3846TIP3   OH235732   4.449   3.546   8.441  0.1790  0.0070 -0.1367
 3846TIP3    H135733   4.477   3.517   8.354  1.4947 -0.1283  0.3019
 3846TIP3    H235734   4.524   3.596   8.474  0.1783 -0.9319  1.3844
 3847TIP3   OH235735   1.235   2.090   8.340  0.7987 -0.0325  0.0351
 3847TIP3    H135736   1.215   2.176   8.303 -2.3435  0.3483  2.2785
 3847TIP3    H235737   1.260   2.038   8.264  1.1465  2.3782 -1.6388
 3848TIP3   OH235738   2.761   2.282   7.552  0.5990 -0.7290 -0.4725
 3848TIP3    H135739   2.820   2.288   7.628 -0.9058 -2.0083  0.8869
 3848TIP3    H235740   2.778   2.195   7.516  0.2602 -0.7096 -0.6838
 3849TIP3   OH235741   5.824   5.147   9.020 -0.4323  0.6940  0.1601
 3849TIP3    H135742   5.873   5.133   9.100  0.2723 -0.7490 -0.4887
 3849TIP3    H235743   5.750   5.086   9.025 -1.2994  1.7350  0.4156
 3850TIP3   OH235744   4.416   6.585   8.674  0.0535 -0.2025  0.3144
 3850TIP3    H135745   4.441   6.545   8.758 -1.4555 -0.1448  0.8281
 3850TIP3    H235746   4.473   6.661   8.666  0.0341 -0.0458  1.4359
 3851TIP3   OH235747   2.254   2.521   9.431  0.1113  1.2222  0.5617
 3851TIP3    H135748   2.252   2.480   9.518 -0.6955 -0.1978 -0.0807
 3851TIP3    H235749   2.257   2.447   9.370 -4.4810  1.8068 -0.8005
 3852TIP3   OH235750   6.012   6.422   7.865  0.0167 -0.0087  0.5690
 3852TIP3    H135751   5.971   6.398   7.948  0.4614  1.9292  1.4269
 3852TIP3    H235752   6.065   6.346   7.841 -0.9304 -0.9966  1.5041
 3853TIP3   OH235753   4.296   4.207   7.121 -0.3295  0.1017  0.0559
 3853TIP3    H135754   4.348   4.281   7.089 -0.2709  0.8244  1.7619
 3853TIP3    H235755   4.217   4.246   7.158  0.1988 -0.5530  1.9815
 3854TIP3   OH235756   6.732   3.288   9.170  0.4970  0.1532 -0.1962
 3854TIP3    H135757   6.730   3.192   9.180 -2.1205  0.1558 -0.0421
 3854TIP3    H235758   6.777   3.302   9.087  0.2617 -1.2729 -0.5912
 3855TIP3   OH235759   1.294   2.730   9.071 -0.0746  0.1548  0.1411
 3855TIP3    H135760   1.275   2.766   9.158  1.0423  2.1885 -0.4027
 3855TIP3    H235761   1.214   2.748   9.021  0.1311  1.1054  0.1304
 3856TIP3   OH235762   1.019   1.600   9.082 -0.1582  0.4448 -0.4174
 3856TIP3    H135763   0.997   1.526   9.026 -0.1950  0.4806 -0.4500
 3856TIP3    H235764   1.115   1.604   9.081 -0.1615  0.4856 -0.5292
 3857TIP3   OH235765   1.296   4.842   8.912 -0.0217 -0.1987  0.4564
 3857TIP3    H135766   1.257   4.834   8.999 -0.1396 -0.2301  0.4011
 3857TIP3    H235767   1.224   4.868   8.855 -0.3926 -2.0383  0.0029
 3858TIP3   OH235768   1.600   2.124   7.642 -0.0857  0.0986  0.2422
 3858TIP3    H135769   1.624   2.216   7.628  0.2099 -0.0602 -0.3366
 3858TIP3    H235770   1.582   2.118   7.735 -0.4316  0.8234  0.2336
 3859TIP3   OH235771   6.945   6.132   9.343  0.9985  0.3124 -0.5007
 3859TIP3    H135772   6.992   6.213   9.323 -0.7657  1.1189 -1.6129
 3859TIP3    H235773   6.942   6.130   9.439  0.2301  2.0964 -0.4540
 3860TIP3   OH235774   3.661   6.279   8.223 -0.0216  0.1873 -0.3560
 3860TIP3    H135775   3.756   6.294   8.221 -0.1041  0.6358 -1.6234
 3860TIP3    H235776   3.644   6.228   8.144 -0.8118 -0.1446  0.0183
 3861TIP3   OH235777   5.124   2.287   8.983 -0.2939  0.1043  0.1225
 3861TIP3    H135778   5.196   2.349   8.994 -0.2312  0.3686 -1.4816
 3861TIP3    H235779   5.053   2.338   8.946 -0.3232 -0.7093 -0.9981
 3862TIP3   OH235780   2.888   4.895   8.798 -0.3321 -0.2426 -0.2624
 3862TIP3    H135781   2.969   4.917   8.751 -1.9668 -0.4425 -3.4007
 3862TIP3    H235782   2.855   4.980   8.828  0.2393  0.0136 -0.3268
 3863TIP3   OH235783   4.623   7.194   9.201  0.5075  0.7790  0.1689
 3863TIP3    H135784   4.655   7.254   9.268  1.1104  0.6155  0.0395
 3863TIP3    H235785   4.703   7.163   9.156  0.2852 -0.5975  0.6540
 3864TIP3   OH235786   4.036   3.128   8.446 -0.1538 -0.3844 -0.1241
 3864TIP3    H135787   4.003   3.042   8.420 -3.1076  0.5649  0.1300
 3864TIP3    H235788   4.082   3.112   8.529 -1.9511 -1.5247  0.7082
 3865TIP3   OH235789   0.190   3.815   8.951 -0.1479  0.1520 -0.3149
 3865TIP3    H135790   0.212   3.902   8.920 -0.3628  0.4529  0.3567
 3865TIP3    H235791   0.162   3.767   8.873  1.3326  0.2351 -0.9309
 3866TIP3   OH235792   5.850   1.030   6.587 -0.0543  0.2717 -0.3740
 3866TIP3    H135793   5.914   0.981   6.535  0.3682  1.6265 -1.1773
 3866TIP3    H235794   5.799   1.080   6.523  0.9782  2.5723  0.4791
 3867TIP3   OH235795   4.164   5.255   8.720  0.3687  0.7259 -0.2898
 3867TIP3    H135796   4.251   5.256   8.759  0.2004 -0.5053  0.1447
 3867TIP3    H235797   4.105   5.242   8.795 -0.1331  0.7702 -0.6762
 3868TIP3   OH235798   5.463   2.754   7.352 -0.1698  0.0879  0.0883
 3868TIP3    H135799   5.484   2.691   7.421 -0.1294 -0.8480 -0.7448
 3868TIP3    H235800   5.548   2.783   7.319 -0.1879  0.1965  0.1391
 3869TIP3   OH235801   4.388   5.222   7.001 -0.6352 -0.0284 -0.3211
 3869TIP3    H135802   4.322   5.174   7.050 -0.1402  0.1616  0.5495
 3869TIP3    H235803   4.379   5.190   6.911 -1.2994 -0.6583 -0.0378
 3870TIP3   OH235804   6.168   4.265   7.342 -0.6092 -0.7984  0.1651
 3870TIP3    H135805   6.205   4.305   7.264 -3.0245 -0.5220 -0.9233
 3870TIP3    H235806   6.152   4.174   7.318  0.0352 -1.1065  0.8689
 3871TIP3   OH235807   6.557   7.286   8.694  0.5068 -0.7701 -0.2605
 3871TIP3    H135808   6.579   7.226   8.623 -3.2721 -2.6304 -0.1173
 3871TIP3    H235809   6.518   7.362   8.651  2.5442  0.3047 -0.2986
 3872TIP3   OH235810   4.465   0.218   6.675 -0.4413 -0.3281  0.2371
 3872TIP3    H135811   4.511   0.249   6.597 -1.2262 -0.4848 -0.2994
 3872TIP3    H235812   4.525   0.156   6.715  0.5912  0.8594  0.5846
 3873TIP3   OH235813   0.800   3.447   8.087 -0.9243 -0.1843 -0.4069
 3873TIP3    H135814   0.829   3.364   8.124 -0.7756  0.3042  0.6240
 3873TIP3    H235815   0.851   3.513   8.134 -2.5317  0.6004  0.3175
 3874TIP3   OH235816   6.757   6.518   9.543  0.2286 -0.1097  0.3057
 3874TIP3    H135817   6.748   6.455   9.614 -1.3043 -1.3748 -0.9147
 3874TIP3    H235818   6.672   6.516   9.498  1.8299 -1.2051 -3.0012
 3875TIP3   OH235819   6.043   4.200   8.597  0.3014 -0.2986  0.0521
 3875TIP3    H135820   5.986   4.157   8.660  2.0781 -1.0663  1.2188
 3875TIP3    H235821   6.033   4.294   8.617 -1.2177 -0.3261 -0.4179
 3876TIP3   OH235822   2.556   0.993   7.687  0.9670 -0.4789 -0.1137
 3876TIP3    H135823   2.593   0.969   7.602  2.3984  2.2351 -0.3798
 3876TIP3    H235824   2.605   0.939   7.749  3.7549  1.1190 -0.6978
 3877TIP3   OH235825   4.288   7.328   7.836  0.1413 -0.3527  0.0319
 3877TIP3    H135826   4.232   7.274   7.780 -0.5577 -1.2295  1.5156
 3877TIP3    H235827   4.236   7.341   7.915  1.8433 -0.7621  1.2482
 3878TIP3   OH235828   0.679   0.761   7.276  0.0087 -0.0141 -0.1496
 3878TIP3    H135829   0.709   0.833   7.221 -0.4111  0.0426 -0.3076
 3878TIP3    H235830   0.733   0.687   7.249 -0.3161 -0.0355 -0.7747
 3879TIP3   OH235831   3.669   0.721   7.875  0.0559 -0.0206  0.2957
 3879TIP3    H135832   3.620   0.804   7.883  2.4576  1.3536  1.7917
 3879TIP3    H235833   3.610   0.655   7.911 -0.7105  1.5677  2.0900
 3880TIP3   OH235834   1.408   4.164   7.056  0.0351 -0.0008  0.1536
 3880TIP3    H135835   1.340   4.208   7.005  0.6500 -2.1662 -2.7325
 3880TIP3    H235836   1.385   4.072   7.053  2.7195 -0.7361 -0.3584
 3881TIP3   OH235837   7.534   7.042   6.793 -0.0431 -0.1413  0.3754
 3881TIP3    H135838   7.473   6.990   6.740  1.0245 -1.5197  0.4147
 3881TIP3    H235839   7.497   7.040   6.881 -0.4291 -0.1622  0.2147
 3882TIP3   OH235840   3.054   5.188   8.182 -0.3692 -0.0651  0.0480
 3882TIP3    H135841   3.037   5.099   8.213  0.2726 -0.1005  0.3279
 3882TIP3    H235842   2.993   5.243   8.231 -0.1322 -0.2523  0.5632
 3883TIP3   OH235843   7.198   6.961   9.425 -0.2934  0.3897  0.0548
 3883TIP3    H135844   7.288   6.941   9.448 -0.5454  0.7427  1.4765
 3883TIP3    H235845   7.193   7.057   9.427 -0.2979  0.4524 -1.7286
 3884TIP3   OH235846   3.650   4.107   7.168  0.1804  0.2326 -0.1788
 3884TIP3    H135847   3.744   4.125   7.163  0.4865 -1.4803 -2.6051
 3884TIP3    H235848   3.645   4.015   7.195 -0.9835  1.0709  2.8619
 3885TIP3   OH235849   0.578   1.828   8.651  0.3448 -0.3130  0.0785
 3885TIP3    H135850   0.496   1.780   8.640  0.1558  0.1193 -0.4684
 3885TIP3    H235851   0.565   1.909   8.602  1.0423 -0.1715  0.1156
 3886TIP3   OH235852   6.113   3.401   9.190 -0.0430  0.1151 -0.8215
 3886TIP3    H135853   6.193   3.353   9.210  1.0203  2.4417  0.9934
 3886TIP3    H235854   6.048   3.333   9.173  1.4008 -1.9598  1.2952
 3887TIP3   OH235855   7.487   2.007   9.488 -0.0323  0.7872 -0.2322
 3887TIP3    H135856   7.534   1.933   9.449  0.2748  2.1989 -2.8410
 3887TIP3    H235857   7.399   1.973   9.506  0.3590 -0.4477 -0.5509
 3888TIP3   OH235858   4.461   2.817   7.009  0.2484  0.5985 -0.1508
 3888TIP3    H135859   4.541   2.841   7.055  1.8991  0.7720 -2.8787
 3888TIP3    H235860   4.458   2.721   7.013 -0.3586  0.6576  1.3604
 3889TIP3   OH235861   2.336   5.897   7.702 -0.3944 -0.3655  0.5007
 3889TIP3    H135862   2.298   5.918   7.787 -0.9718  0.0184  0.1605
 3889TIP3    H235863   2.291   5.818   7.674 -0.0383 -0.6228  0.6567
 3890TIP3   OH235864   7.480   0.154   9.409 -0.3175 -0.4703 -0.1688
 3890TIP3    H135865   7.538   0.182   9.338 -2.0738 -0.2480 -1.5684
 3890TIP3    H235866   7.521   0.073   9.442  1.1987  0.1034 -0.5370
 3891TIP3   OH235867   0.695   5.062   8.278  0.4439 -0.1697  0.5397
 3891TIP3    H135868   0.738   4.978   8.264 -1.0687 -0.7674 -0.8604
 3891TIP3    H235869   0.749   5.125   8.231  1.1150 -0.4746  0.8813
 3892TIP3   OH235870   7.338   2.005   8.819 -0.0888 -0.0922  0.4279
 3892TIP3    H135871   7.330   2.040   8.908 -0.1245  4.7189 -1.1635
 3892TIP3    H235872   7.248   1.998   8.788 -0.0195  1.1665 -0.1161
 3893TIP3   OH235873   2.600   0.037   7.812 -0.3567 -0.0019 -0.9022
 3893TIP3    H135874   2.524  -0.007   7.774 -1.5601  2.5589 -1.7032
 3893TIP3    H235875   2.660   0.048   7.739  0.7693 -1.8236 -0.3158
 3894TIP3   OH235876   0.176   0.771   9.316  0.4642  0.0677 -0.2521
 3894TIP3    H135877   0.109   0.730   9.371  0.6543 -0.5408 -0.4590
 3894TIP3    H235878   0.129   0.800   9.238  0.7019 -2.0799 -1.2833
 3895TIP3   OH235879   4.736   1.692   7.954 -0.0421  0.1202  0.8518
 3895TIP3    H135880   4.647   1.709   7.986 -0.2963 -1.1684  0.9140
 3895TIP3    H235881   4.757   1.605   7.989  0.0509 -0.9226 -1.5948
 3896TIP3   OH235882   3.623   2.830   6.842  0.2004  0.2157 -0.3986
 3896TIP3    H135883   3.529   2.832   6.824  0.3171 -0.6931 -1.2241
 3896TIP3    H235884   3.655   2.755   6.791  1.5756  1.2776 -1.1701
 3897TIP3   OH235885   1.991   1.698   9.398  0.0651 -0.2168  0.2548
 3897TIP3    H135886   2.015   1.776   9.447  0.0274  0.2672 -0.4810
 3897TIP3    H235887   2.074   1.657   9.376  0.2145  0.8053 -1.2410
 3898TIP3   OH235888   3.978   5.195   8.928 -0.4581 -0.6843  0.6269
 3898TIP3    H135889   4.008   5.158   9.011  1.9292  0.3249  0.3232
 3898TIP3    H235890   3.926   5.271   8.953  1.6230  0.6291  1.3226
 3899TIP3   OH235891   7.060   3.759   7.257  0.2636 -0.1411 -0.2514
 3899TIP3    H135892   6.966   3.749   7.243  0.4654 -0.8489 -1.2441
 3899TIP3    H235893   7.087   3.825   7.193  0.4733 -0.0729 -0.0927
 3900TIP3   OH235894   3.098   6.535   9.327  0.1575  0.0069 -0.4087
 3900TIP3    H135895   3.093   6.571   9.239 -1.4653 -0.5379 -0.5767
 3900TIP3    H235896   3.141   6.603   9.379  2.0155 -0.0391 -1.7758
 3901TIP3   OH235897   6.522   5.412   8.931  0.6596 -0.5377  0.0460
 3901TIP3    H135898   6.578   5.450   8.998 -0.3198  0.4461  0.3508
 3901TIP3    H235899   6.567   5.430   8.849  0.2580  1.3141  0.1808
 3902TIP3   OH235900   2.852   2.457   9.544 -0.1197  0.2679 -0.0085
 3902TIP3    H135901   2.810   2.429   9.463  1.8624 -0.2134 -0.9492
 3902TIP3    H235902   2.869   2.550   9.532 -0.1827  0.2816  0.0115
 3903TIP3   OH235903   3.554   0.623   9.039 -0.6477  0.2445  0.0119
 3903TIP3    H135904   3.604   0.543   9.021 -0.1373  0.4665  0.4376
 3903TIP3    H235905   3.464   0.592   9.053 -0.7521 -0.1075 -1.2378
 3904TIP3   OH235906   4.539   6.641   9.433  1.0708 -0.1330  0.2655
 3904TIP3    H135907   4.570   6.693   9.507 -0.2725 -0.4759  1.1001
 3904TIP3    H235908   4.540   6.551   9.465 -3.1366 -0.0069  1.3485
 3905TIP3   OH235909   4.340   6.309   7.885  0.2489 -0.0062 -0.1110
 3905TIP3    H135910   4.397   6.357   7.825  0.7473  0.8201  1.0070
 3905TIP3    H235911   4.271   6.371   7.908 -0.5652 -0.6767 -0.6595
 3906TIP3   OH235912   1.059   4.085   8.442 -0.4968  0.0199  0.1593
 3906TIP3    H135913   1.120   4.158   8.434  0.2294 -0.3344  1.9541
 3906TIP3    H235914   1.020   4.076   8.355 -0.1932  2.1632 -0.2400
 3907TIP3   OH235915   1.570   4.912   8.722 -0.4092 -0.8436 -0.2270
 3907TIP3    H135916   1.568   4.925   8.816 -0.7195 -1.2867 -0.1702
 3907TIP3    H235917   1.659   4.882   8.703  0.2152  0.9150 -0.3155
 3908TIP3   OH235918   1.910   4.317   9.127  0.4109  0.1034  0.4967
 3908TIP3    H135919   1.931   4.340   9.036  0.7065  2.4940  1.0841
 3908TIP3    H235920   1.816   4.303   9.126  0.5215 -0.6683 -0.3181
 3909TIP3   OH235921   3.340   3.367   9.471  0.1566 -0.0237 -0.0675
 3909TIP3    H135922   3.374   3.366   9.560 -0.4655  1.8301  0.2244
 3909TIP3    H235923   3.259   3.315   9.476  0.1769 -0.0134  0.4237
 3910TIP3   OH235924   6.094   2.773   7.953 -0.3096 -0.0939  0.5464
 3910TIP3    H135925   6.096   2.776   8.049 -0.7814 -0.7645  0.5852
 3910TIP3    H235926   6.065   2.861   7.927 -2.5938 -0.6051  1.1360
 3911TIP3   OH235927   7.091   2.591   8.500 -0.1377 -0.0554  0.1695
 3911TIP3    H135928   7.038   2.658   8.457 -0.9298 -2.2484 -2.5890
 3911TIP3    H235929   7.038   2.561   8.573  0.3999  2.4723  1.6957
 3912TIP3   OH235930   5.135   2.402   7.190 -0.3157  0.8368 -0.1279
 3912TIP3    H135931   5.133   2.434   7.281 -1.2998  1.9557 -0.5186
 3912TIP3    H235932   5.210   2.446   7.150  1.2850 -1.0752  0.5912
 3913TIP3   OH235933   6.537   5.260   8.331 -0.1492 -0.2879  0.5472
 3913TIP3    H135934   6.553   5.173   8.367  1.3994  0.4304  1.6834
 3913TIP3    H235935   6.547   5.320   8.405 -0.6916  0.9116 -0.3083
 3914TIP3   OH235936   0.501   0.771   9.060 -0.0197  0.2577 -0.1753
 3914TIP3    H135937   0.409   0.763   9.033  0.5064 -2.2068 -1.5099
 3914TIP3    H235938   0.496   0.800   9.151 -2.1507 -0.0564 -0.1261
 3915TIP3   OH235939   2.945   2.333   7.984  0.1981 -0.5063  0.4172
 3915TIP3    H135940   3.007   2.378   7.927  1.9163 -1.5970  1.3358
 3915TIP3    H235941   2.907   2.402   8.038  2.5066 -0.0351  1.5561
 3916TIP3   OH235942   1.247   4.677   9.483 -0.0556 -0.6869  1.2040
 3916TIP3    H135943   1.191   4.613   9.527  0.5763 -2.3269 -0.2390
 3916TIP3    H235944   1.329   4.630   9.467  0.4197  0.4766  0.0514
 3917TIP3   OH235945   5.264   1.441   7.933  0.3054  0.2379 -0.6402
 3917TIP3    H135946   5.304   1.400   7.856  0.5002 -0.6192 -0.0968
 3917TIP3    H235947   5.338   1.483   7.978 -0.1631  2.9822 -2.2267
 3918TIP3   OH235948   0.933   2.816   8.154 -0.3807  0.0528 -0.4050
 3918TIP3    H135949   0.866   2.750   8.169  1.3767 -1.6716  0.2882
 3918TIP3    H235950   0.949   2.813   8.059  0.5990 -1.5143 -0.2164
 3919TIP3   OH235951   1.919   5.085   8.671  0.2099 -0.0418  0.3464
 3919TIP3    H135952   1.889   5.009   8.720 -3.9740  1.1394  0.0416
 3919TIP3    H235953   1.938   5.052   8.583  0.8799 -1.0616  0.8619
 3920TIP3   OH235954   1.896   2.315   7.908  0.3435  0.6929 -0.0549
 3920TIP3    H135955   1.909   2.260   7.986  1.4447 -1.0393 -1.3830
 3920TIP3    H235956   1.826   2.271   7.860 -0.2148  1.6643 -0.1431
 3921TIP3   OH235957   5.545   5.523   8.747  0.0820  0.2900  0.2410
 3921TIP3    H135958   5.621   5.500   8.694  1.5476  2.4902  1.2552
 3921TIP3    H235959   5.492   5.444   8.749  0.7511 -0.3874 -3.1074
 3922TIP3   OH235960   3.124   6.627   8.584 -0.2276  0.0147  0.2127
 3922TIP3    H135961   3.182   6.691   8.544  0.6242 -1.0081 -0.2309
 3922TIP3    H235962   3.039   6.643   8.544 -0.2592  1.4779  0.8091
 3923TIP3   OH235963   0.336   6.031   8.220 -0.1852 -0.2896  0.3747
 3923TIP3    H135964   0.393   5.987   8.157 -1.4309 -0.2072 -0.8673
 3923TIP3    H235965   0.317   5.966   8.287 -2.3102 -1.8794 -1.6215
 3924TIP3   OH235966   1.411   4.426   9.018  0.3936 -0.5102 -0.6241
 3924TIP3    H135967   1.380   4.432   8.927 -0.0002 -0.7910 -0.5103
 3924TIP3    H235968   1.332   4.433   9.071  0.7764  1.3239 -0.2321
 3925TIP3   OH235969   3.292   6.514   7.400 -0.4577 -0.2856  0.1278
 3925TIP3    H135970   3.212   6.546   7.361 -0.6936 -2.2107 -1.1158
 3925TIP3    H235971   3.353   6.588   7.396 -1.2470  0.3055 -1.6381
 3926TIP3   OH235972   6.749   5.754   7.698 -0.9916  0.1100  0.4899
 3926TIP3    H135973   6.727   5.763   7.791 -0.7321 -0.9742  0.6707
 3926TIP3    H235974   6.811   5.681   7.695 -1.3902 -0.2012 -0.5928
 3927TIP3   OH235975   4.359   6.385   7.270  0.0493  0.0845 -0.3969
 3927TIP3    H135976   4.386   6.342   7.189  1.2457  1.2328 -0.6296
 3927TIP3    H235977   4.264   6.373   7.273 -0.0579  0.3273 -2.1606
 3928TIP3   OH235978   0.862   4.798   7.225 -0.6084 -0.3320 -0.3697
 3928TIP3    H135979   0.797   4.750   7.174 -2.1938  2.0896 -0.8000
 3928TIP3    H235980   0.930   4.820   7.161 -1.3877  0.5781 -0.9210
 3929TIP3   OH235981   2.885   4.945   8.496 -0.0408  0.2782  0.0081
 3929TIP3    H135982   2.904   5.014   8.560 -1.7456  0.4029  0.4286
 3929TIP3    H235983   2.819   4.984   8.439  0.4516 -0.3268 -0.9899
 3930TIP3   OH235984   1.463   1.963   9.607  0.0974 -0.1160  0.7158
 3930TIP3    H135985   1.380   2.010   9.615 -0.1195  0.0242 -1.6638
 3930TIP3    H235986   1.529   2.031   9.598  0.1071 -0.2338 -0.1607
 3931TIP3   OH235987   3.992   1.347   8.066  0.2858 -0.1039  0.4938
 3931TIP3    H135988   4.043   1.301   7.999 -0.3456  0.3942 -0.3570
 3931TIP3    H235989   3.972   1.281   8.131  1.0354 -0.5712  0.2591
 3932TIP3   OH235990   1.566   0.228   7.578 -0.0894  0.9263 -0.4916
 3932TIP3    H135991   1.573   0.189   7.665 -0.5432  0.2689 -0.7392
 3932TIP3    H235992   1.648   0.275   7.566 -0.1580  1.2936  0.4223
 3933TIP3   OH235993   7.232   4.153   8.591  0.0504 -0.1217 -0.4135
 3933TIP3    H135994   7.314   4.195   8.565  0.9125 -2.0487 -0.9791
 3933TIP3    H235995   7.210   4.194   8.675  1.9373 -0.0192  0.0716
 3934TIP3   OH235996   7.068   4.278   8.811 -0.2536 -0.0713 -0.1339
 3934TIP3    H135997   7.091   4.320   8.894 -0.7557 -3.2301  1.7489
 3934TIP3    H235998   6.973   4.287   8.804 -0.8960 -3.4717  2.0200
 3935TIP3   OH235999   2.589   7.275   8.350 -0.2895 -0.7813  0.3041
 3935TIP3    H136000   2.666   7.220   8.335 -0.7769 -1.5520  0.5446
 3935TIP3    H236001   2.555   7.246   8.435 -1.3684 -1.0978 -0.2091
 3936TIP3   OH236002   7.405   7.055   8.907  0.5526  0.0963  0.0325
 3936TIP3    H136003   7.457   7.071   8.986 -1.6078  2.1836  1.1404
 3936TIP3    H236004   7.356   6.975   8.927  0.9284 -0.0671  0.3056
 3937TIP3   OH236005   1.004   0.546   8.660  0.3563  0.5709  1.2111
 3937TIP3    H136006   1.036   0.556   8.570  0.3202  1.5838  1.2945
 3937TIP3    H236007   1.057   0.475   8.696  0.4906  0.2692  0.4457
 3938TIP3   OH236008   4.475   1.715   9.163  0.0099 -0.5472 -0.1662
 3938TIP3    H136009   4.495   1.696   9.254  0.8480 -1.5351 -0.5313
 3938TIP3    H236010   4.558   1.747   9.127  0.3162 -2.2966 -1.1103
 3939TIP3   OH236011   1.955   7.082   9.373 -0.6648  0.3501  0.1328
 3939TIP3    H136012   1.894   7.014   9.342 -1.4082  0.8020  0.5746
 3939TIP3    H236013   2.041   7.051   9.345 -1.0887 -0.3333 -0.4586
 3940TIP3   OH236014   4.695   5.662   8.125  0.0077 -0.3560 -0.5233
 3940TIP3    H136015   4.752   5.611   8.183 -0.3694 -0.5741 -0.3402
 3940TIP3    H236016   4.610   5.618   8.130 -0.8510  1.3311  1.0996
 3941TIP3   OH236017   3.509   0.944   9.249  0.4243 -0.3838  0.3127
 3941TIP3    H136018   3.488   1.001   9.323  0.3763 -0.3744  0.2913
 3941TIP3    H236019   3.427   0.900   9.228 -0.8897  3.0411 -2.7595
 3942TIP3   OH236020   3.348   6.320   9.477  0.2707 -0.4335  0.1262
 3942TIP3    H136021   3.389   6.342   9.393 -0.8069  0.2906 -0.2288
 3942TIP3    H236022   3.336   6.405   9.520 -0.4280 -0.6825  0.4230
 3943TIP3   OH236023   7.137   2.288   8.858  0.0669 -0.6183  0.0823
 3943TIP3    H136024   7.217   2.335   8.882 -1.0805  1.5779 -0.0872
 3943TIP3    H236025   7.073   2.316   8.923 -0.9243 -1.2467 -0.5975
 3944TIP3   OH236026   0.316   1.951   6.752 -0.4771 -0.0812 -0.0119
 3944TIP3    H136027   0.261   1.906   6.688 -2.1462 -0.6287  1.7276
 3944TIP3    H236028   0.389   1.891   6.768 -0.7849 -0.5528 -0.3604
 3945TIP3   OH236029   2.956   1.961   9.369  0.1713 -0.4383 -0.4624
 3945TIP3    H136030   2.983   2.004   9.450 -1.4037  1.1268 -0.7183
 3945TIP3    H236031   3.037   1.954   9.318  0.7149  1.1124  0.1115
 3946TIP3   OH236032   1.111   6.834   8.346 -0.2994  0.1575 -0.2202
 3946TIP3    H136033   1.165   6.800   8.275 -1.4864  0.6099 -1.3924
 3946TIP3    H236034   1.107   6.928   8.330 -0.8160  0.2243  0.2674
 3947TIP3   OH236035   7.067   3.005   7.917 -0.5680  0.3020 -0.0228
 3947TIP3    H136036   7.141   2.944   7.911 -0.6315  0.3552 -1.8104
 3947TIP3    H236037   7.108   3.089   7.939 -0.1398  0.2401 -0.5718
 3948TIP3   OH236038   7.009   0.795   9.542 -0.1539 -0.4582  0.5371
 3948TIP3    H136039   7.082   0.746   9.579  0.5453  0.7620  0.8066
 3948TIP3    H236040   7.001   0.761   9.453  1.5469  0.1985  0.0835
 3949TIP3   OH236041   5.910   3.052   8.627  0.0899  0.9179  0.8273
 3949TIP3    H136042   5.835   3.058   8.568  0.3771  0.7974  0.4443
 3949TIP3    H236043   5.878   3.087   8.710 -0.5597  0.3230  0.8345
 3950TIP3   OH236044   7.276   5.216   8.490  0.1447  0.1337  0.2558
 3950TIP3    H136045   7.231   5.134   8.469 -0.4671  0.1730  1.3296
 3950TIP3    H236046   7.292   5.258   8.405 -1.3398 -0.1488 -0.1917
 3951TIP3   OH236047   6.475   0.583   8.807  0.2694  0.0650 -0.2144
 3951TIP3    H136048   6.421   0.662   8.795 -2.6473 -1.8174 -0.3983
 3951TIP3    H236049   6.505   0.562   8.718 -0.7226 -0.1544 -0.5172
 3952TIP3   OH236050   5.549   6.370   8.070 -0.6293  0.2663  0.1832
 3952TIP3    H136051   5.559   6.455   8.028 -1.6796 -0.1463 -0.9478
 3952TIP3    H236052   5.458   6.345   8.054 -0.4312 -0.9414  0.7653
 3953TIP3   OH236053   5.764   7.293   7.506  0.2178 -0.1171 -0.3206
 3953TIP3    H136054   5.783   7.369   7.561  0.0069  1.0002 -1.7236
 3953TIP3    H236055   5.807   7.313   7.423 -0.8495 -0.9933 -1.1095
 3954TIP3   OH236056   2.725   0.345   7.155 -0.0629  0.3387  0.2093
 3954TIP3    H136057   2.758   0.394   7.230  1.9884  1.8799 -1.5377
 3954TIP3    H236058   2.701   0.412   7.091 -1.3573 -0.9156 -0.6811
 3955TIP3   OH236059   3.292   6.754   8.416 -0.2440 -0.1475  0.1150
 3955TIP3    H136060   3.262   6.710   8.337 -0.2440  1.8363 -1.0805
 3955TIP3    H236061   3.345   6.827   8.383 -1.0437  1.3128  1.8878
 3956TIP3   OH236062   0.104   2.986   8.278  0.2013  0.5894  0.4361
 3956TIP3    H136063   0.010   2.988   8.294  0.2422  0.3715  0.7124
 3956TIP3    H236064   0.136   3.069   8.315  0.0467  0.9015 -0.1286
 3957TIP3   OH236065   2.627   5.431   9.121  0.4966 -0.4451 -0.4390
 3957TIP3    H136066   2.607   5.411   9.029  2.0568  1.1942 -1.2046
 3957TIP3    H236067   2.542   5.434   9.164 -0.3662 -0.1567 -2.0904
 3958TIP3   OH236068   6.011   3.036   7.820 -0.9400 -0.6757  0.4542
 3958TIP3    H136069   5.988   3.045   7.728 -0.5680 -1.3730  0.2818
 3958TIP3    H236070   6.003   3.124   7.856  0.1234 -0.1460 -0.5287
 3959TIP3   OH236071   5.140   2.001   8.934  0.4438 -0.1825  0.2487
 3959TIP3    H136072   5.159   2.042   8.850 -1.8328  0.0374 -0.2368
 3959TIP3    H236073   5.067   1.942   8.915  2.6864 -3.5732  1.1735
 3960TIP3   OH236074   2.504   3.488   7.875 -0.4274  0.4204 -0.1368
 3960TIP3    H136075   2.432   3.484   7.938  1.6078  0.8572  2.4104
 3960TIP3    H236076   2.525   3.396   7.856 -0.7640  0.2764  0.1908
 3961TIP3   OH236077   2.781   1.567   8.699  0.5325 -0.0145 -0.1605
 3961TIP3    H136078   2.698   1.612   8.718 -0.5750 -1.2084 -1.8683
 3961TIP3    H236079   2.803   1.523   8.781 -0.5798  0.2523  0.3097
 3962TIP3   OH236080   3.540   1.929   8.175 -0.5903 -0.1561 -0.0050
 3962TIP3    H136081   3.468   1.871   8.199 -1.1941 -0.5965 -2.5371
 3962TIP3    H236082   3.505   2.017   8.189 -1.2803 -0.3762 -0.2885
 3963TIP3   OH236083   5.651   4.943   9.069  0.0420 -0.2750 -0.0197
 3963TIP3    H136084   5.692   4.872   9.021 -0.8510 -0.7458 -0.1097
 3963TIP3    H236085   5.564   4.909   9.093 -0.7867  1.1150 -0.9030
 3964TIP3   OH236086   4.961   1.109   9.768  0.2069  0.1295 -0.0678
 3964TIP3    H136087   4.902   1.059   9.712  0.4383 -1.1857  0.7981
 3964TIP3    H236088   5.005   1.042   9.821  0.7064  1.2489  0.9794
 3965TIP3   OH236089   0.131   5.435   9.282 -0.5872 -0.0126  0.3636
 3965TIP3    H136090   0.079   5.512   9.305 -2.2551 -1.0753  0.3092
 3965TIP3    H236091   0.221   5.461   9.300 -0.6365  3.1741 -2.8158
 3966TIP3   OH236092   7.124   0.803   8.375  0.2577  0.7031  0.4256
 3966TIP3    H136093   7.166   0.752   8.444  0.1893  0.4178  0.2553
 3966TIP3    H236094   7.074   0.870   8.422 -0.3792  0.0618  0.6790
 3967TIP3   OH236095   3.186   4.852   8.740  0.7051 -0.2010  0.0083
 3967TIP3    H136096   3.242   4.815   8.808 -0.0079 -1.1384  0.0943
 3967TIP3    H236097   3.170   4.779   8.680  1.9401  0.7861 -1.5998
 3968TIP3   OH236098   2.783   6.354   7.923  0.0715 -0.7608 -0.3233
 3968TIP3    H136099   2.710   6.297   7.944  1.3925 -1.8446  1.7419
 3968TIP3    H236100   2.839   6.302   7.866  0.1535 -0.6754 -0.3216
 3969TIP3   OH236101   3.128   3.595   7.784 -0.2366  0.6469 -0.3531
 3969TIP3    H136102   3.094   3.670   7.834 -1.8477 -0.0399 -0.3632
 3969TIP3    H236103   3.063   3.580   7.715 -0.8440 -1.7483  0.6239
 3970TIP3   OH236104   0.190   2.431   9.508  0.0405 -0.3000 -0.5299
 3970TIP3    H136105   0.234   2.392   9.584 -1.7077  0.8680  1.2059
 3970TIP3    H236106   0.097   2.417   9.525 -0.3856 -1.7808 -3.5389
 3971TIP3   OH236107   3.972   7.229   7.297 -0.3676 -0.2182  0.0966
 3971TIP3    H136108   3.953   7.214   7.390  0.0826  0.9640  0.4088
 3971TIP3    H236109   4.060   7.269   7.297  0.3369 -1.7001 -0.9748
 3972TIP3   OH236110   2.070   0.007   8.094 -0.3265  0.0437 -0.2839
 3972TIP3    H136111   2.133   0.079   8.097  0.6083 -0.7443 -0.4704
 3972TIP3    H236112   2.109  -0.061   8.150 -1.0910 -0.3996 -0.2817
 3973TIP3   OH236113   5.186   7.359   6.691 -0.3361  0.2850  0.2832
 3973TIP3    H136114   5.110   7.301   6.696 -0.8161  0.9361  1.0242
 3973TIP3    H236115   5.261   7.301   6.685 -0.9241 -0.3655 -0.9555
 3974TIP3   OH236116   3.598   4.105   7.695 -0.0416 -0.7411  0.6065
 3974TIP3    H136117   3.615   4.011   7.689  0.0919 -0.6956  0.2911
 3974TIP3    H236118   3.594   4.135   7.605 -0.4967 -0.5152  0.6974
 3975TIP3   OH236119   4.259   0.869   8.150  0.4517 -0.2554  0.7944
 3975TIP3    H136120   4.246   0.935   8.218 -0.0776  0.2546  0.2116
 3975TIP3    H236121   4.256   0.785   8.196  1.5409  0.1346  1.5994
 3976TIP3   OH236122   4.885   6.169   6.471  0.2615 -0.3467 -0.0078
 3976TIP3    H136123   4.834   6.184   6.551 -0.4359 -2.3762 -0.0063
 3976TIP3    H236124   4.917   6.256   6.446  0.9836  0.2871  2.7696
 3977TIP3   OH236125   7.348   1.089   7.912 -0.0568  0.4393  0.3327
 3977TIP3    H136126   7.417   1.028   7.937 -0.2005 -0.3634 -1.1469
 3977TIP3    H236127   7.275   1.033   7.885 -0.7365  1.2789  0.3755
 3978TIP3   OH236128   7.283   6.805   8.979 -0.1016  0.1706 -0.1939
 3978TIP3    H136129   7.225   6.781   8.908 -0.4421 -1.6436  0.6504
 3978TIP3    H236130   7.230   6.798   9.058  0.7165  0.4772  0.4061
 3979TIP3   OH236131   2.402   1.467   7.966  0.1239 -0.3423 -0.3004
 3979TIP3    H136132   2.367   1.510   8.044 -0.1342 -1.6605  0.3337
 3979TIP3    H236133   2.452   1.535   7.921 -0.4688  0.6690  0.5491
 3980TIP3   OH236134   1.918   7.040   7.887  0.5461  0.1129 -0.2019
 3980TIP3    H136135   2.013   7.051   7.893  0.6008 -0.7042  0.6960
 3980TIP3    H236136   1.906   6.947   7.870 -0.1182 -0.1776  1.5907
 3981TIP3   OH236137   4.255   5.241   8.380 -0.1532 -0.6812 -0.1780
 3981TIP3    H136138   4.213   5.187   8.447 -0.8656 -0.1200 -0.1618
 3981TIP3    H236139   4.212   5.326   8.388  1.3350  0.0830  0.1888
 3982TIP3   OH236140   0.471   0.577   7.903  0.2436  0.2900  0.5123
 3982TIP3    H136141   0.387   0.614   7.875 -0.8170 -0.7477  2.1615
 3982TIP3    H236142   0.506   0.641   7.965  1.1866  1.1891 -0.8926
 3983TIP3   OH236143   4.569   0.574   9.410  0.1373  0.2861  0.2214
 3983TIP3    H136144   4.537   0.503   9.466  1.0022  0.1940  0.6115
 3983TIP3    H236145   4.519   0.564   9.329  0.0811 -0.6300  0.3540
 3984TIP3   OH236146   3.600   3.396   9.308 -0.6411  0.3456 -0.1417
 3984TIP3    H136147   3.530   3.461   9.313 -1.5135 -0.5394 -0.3757
 3984TIP3    H236148   3.554   3.312   9.311  0.5686 -0.3075  2.1038
 3985TIP3   OH236149   4.891   0.371   8.558  1.0632 -0.5893 -0.3216
 3985TIP3    H136150   4.942   0.438   8.603  0.5803  0.0023 -0.6469
 3985TIP3    H236151   4.869   0.410   8.473 -0.5227 -0.5433  0.0778
 3986TIP3   OH236152   0.879   5.659   8.641  0.0735  0.5868  0.5045
 3986TIP3    H136153   0.889   5.567   8.664 -1.4382  0.2209 -0.2159
 3986TIP3    H236154   0.962   5.700   8.669 -0.2246 -0.4639  3.2035
 3987TIP3   OH236155   5.347   2.334   9.358 -0.4227 -0.2392 -0.0360
 3987TIP3    H136156   5.255   2.318   9.381 -0.7518  1.7547  0.3013
 3987TIP3    H236157   5.383   2.248   9.340 -1.6479 -1.3958  2.5070
 3988TIP3   OH236158   3.738   4.002   8.523  0.1882  0.2649 -0.0119
 3988TIP3    H136159   3.822   3.994   8.479  1.5886 -0.1575  2.5223
 3988TIP3    H236160   3.760   4.033   8.611 -2.3541  0.5371  0.6181
 3989TIP3   OH236161   3.682   4.462   8.306  0.1702 -0.3975 -0.4101
 3989TIP3    H136162   3.657   4.386   8.254  1.8576 -0.4097 -1.2697
 3989TIP3    H236163   3.709   4.426   8.391  0.0917 -0.6598 -0.4959
 3990TIP3   OH236164   2.251   7.093   9.297  0.4038 -0.3200  0.1542
 3990TIP3    H136165   2.229   7.184   9.277  0.0033 -0.4319  0.0579
 3990TIP3    H236166   2.333   7.097   9.345  0.9996  0.0212 -0.8486
 3991TIP3   OH236167   5.389   4.569   8.652 -0.2456  0.0948 -0.6186
 3991TIP3    H136168   5.333   4.548   8.578 -0.4841  0.1545 -0.4564
 3991TIP3    H236169   5.385   4.665   8.659 -1.7192 -0.0288  0.6263
 3992TIP3   OH236170   3.476   2.685   8.007 -0.2902  0.0560  0.4178
 3992TIP3    H136171   3.418   2.702   8.082  0.5350 -1.4359  1.4463
 3992TIP3    H236172   3.532   2.763   8.002 -0.8499  0.5025  0.8636
 3993TIP3   OH236173   6.435   7.140   8.027 -0.5878 -0.0370  0.1381
 3993TIP3    H136174   6.432   7.067   8.088 -1.9136 -0.0430  0.0855
 3993TIP3    H236175   6.510   7.192   8.056 -0.3861 -0.7535  0.9399
 3994TIP3   OH236176   5.997   3.752   7.447  0.6070 -0.1673 -0.4538
 3994TIP3    H136177   6.040   3.770   7.363 -0.4764 -0.6355 -1.1227
 3994TIP3    H236178   5.939   3.827   7.461  0.5661 -0.2327 -0.2712
 3995TIP3   OH236179   1.641   0.806   8.428  0.2753 -0.0111 -0.1078
 3995TIP3    H136180   1.635   0.827   8.521 -0.8644  0.5700 -0.3030
 3995TIP3    H236181   1.558   0.763   8.407  0.3157  0.3074 -0.9629
 3996TIP3   OH236182   5.245   4.998   7.782 -0.1587  0.3880  0.2829
 3996TIP3    H136183   5.273   5.011   7.873 -0.3881 -2.0205  0.7713
 3996TIP3    H236184   5.173   4.935   7.787 -0.1253  0.1305 -1.5757
 3997TIP3   OH236185   2.771   5.911   8.261 -0.4882 -0.5623 -0.3077
 3997TIP3    H136186   2.814   5.906   8.175 -0.6351  0.5098 -0.4602
 3997TIP3    H236187   2.682   5.878   8.245 -0.6967  0.1563 -0.7136
 3998TIP3   OH236188   5.811   3.881   8.972 -0.0959  0.1467 -0.2345
 3998TIP3    H136189   5.720   3.854   8.980 -0.3431  0.6794 -1.1289
 3998TIP3    H236190   5.837   3.905   9.061 -0.3398 -1.4591  0.3082
 3999TIP3   OH236191   1.890   6.937   9.028  0.9464  0.2595 -0.0353
 3999TIP3    H136192   1.935   6.879   9.089  2.0055 -0.9863 -1.9127
 3999TIP3    H236193   1.801   6.944   9.063  1.8966  0.8573  2.4493
 4000TIP3   OH236194   0.932   0.676   9.371  0.7750 -0.1315 -0.1706
 4000TIP3    H136195   1.023   0.662   9.398  0.8056  0.2099 -0.0894
 4000TIP3    H236196   0.886   0.597   9.400  0.7532  0.3315  1.1647
 4001TIP3   OH236197   5.459   7.152   9.164  0.6071 -0.4207  0.2427
 4001TIP3    H136198   5.503   7.189   9.087 -0.5211  0.0460 -0.2058
 4001TIP3    H236199   5.413   7.075   9.130  0.7075 -0.6444  0.6125
 4002TIP3   OH236200   4.054   5.067   7.902  0.2902  0.2896  0.0221
 4002TIP3    H136201   4.076   5.098   7.813  0.2210 -1.8197 -0.7692
 4002TIP3    H236202   4.129   5.096   7.955  1.4586 -0.3889 -1.1876
 4003TIP3   OH236203   1.017   2.554   9.131 -0.4407 -0.0455  0.1168
 4003TIP3    H136204   1.022   2.620   9.200 -2.2622 -0.2411  0.4894
 4003TIP3    H236205   1.089   2.494   9.149  0.1312  0.8410  0.8388
 4004TIP3   OH236206   3.656   3.833   7.202 -0.2646 -0.4970  0.2059
 4004TIP3    H136207   3.657   3.791   7.116  1.2720  1.7981 -0.9859
 4004TIP3    H236208   3.707   3.774   7.258  0.9065 -0.7906 -1.1179
 4005TIP3   OH236209   1.299   5.064   8.706  0.2385 -0.0861 -0.2876
 4005TIP3    H136210   1.362   5.018   8.651  1.6928 -1.6776  2.5439
 4005TIP3    H236211   1.310   5.027   8.793 -2.3288  1.9305  1.0455
 4006TIP3   OH236212   5.137   2.050   7.637  0.1617  0.2280  0.9295
 4006TIP3    H136213   5.168   1.960   7.652  0.9237  0.5230  1.1946
 4006TIP3    H236214   5.047   2.050   7.670 -0.6907 -1.0447 -1.2241
 4007TIP3   OH236215   6.737   3.201   8.424 -0.3782 -0.2586 -0.6518
 4007TIP3    H136216   6.652   3.164   8.446 -0.8803  0.5207 -1.2182
 4007TIP3    H236217   6.723   3.296   8.425  0.1429 -0.1352 -2.0043
 4008TIP3   OH236218   4.631   6.807   8.443 -0.3950 -0.7757  0.2093
 4008TIP3    H136219   4.671   6.729   8.404  0.1795 -0.4266  0.0801
 4008TIP3    H236220   4.557   6.827   8.385  1.0687  0.3567 -1.3866
 4009TIP3   OH236221   0.601   2.181   6.721  0.2187  0.0758 -0.5904
 4009TIP3    H136222   0.667   2.113   6.736 -0.9510 -0.9933 -0.1846
 4009TIP3    H236223   0.603   2.234   6.801  0.4370 -0.0644 -0.5012
 4010TIP3   OH236224   1.063   2.623   6.434  0.0528 -0.0143  0.2407
 4010TIP3    H136225   1.067   2.718   6.443 -1.6473  0.0221  1.1128
 4010TIP3    H236226   0.970   2.602   6.439  0.4675 -1.8479  1.3578
 4011TIP3   OH236227   2.753   1.727   7.478  0.1091 -0.6225  0.3411
 4011TIP3    H136228   2.676   1.770   7.515  0.8699  1.1142 -0.0242
 4011TIP3    H236229   2.774   1.778   7.400  1.0025 -1.7276 -0.1636
 4012TIP3   OH236230   6.303   6.832   8.047 -0.1744  0.6349  0.9821
 4012TIP3    H136231   6.359   6.864   8.118  1.7290  1.2598 -0.7148
 4012TIP3    H236232   6.362   6.782   7.991 -1.2851  1.3553 -0.9126
 4013TIP3   OH236233   2.607   6.408   7.650  0.1215 -0.6283 -0.3709
 4013TIP3    H136234   2.644   6.444   7.569 -0.7637  0.0518 -0.4863
 4013TIP3    H236235   2.677   6.354   7.686  0.2924 -1.5250 -1.9612
 4014TIP3   OH236236   4.618   7.264   6.472  0.2650 -0.0183 -0.1341
 4014TIP3    H136237   4.657   7.214   6.543 -1.2277 -0.0912  0.6591
 4014TIP3    H236238   4.686   7.327   6.448  0.3872  0.8576  2.2180
 4015TIP3   OH236239   1.243   2.685   6.699 -0.6825 -0.1658 -0.1348
 4015TIP3    H136240   1.219   2.636   6.778 -0.0164  0.4055  0.4387
 4015TIP3    H236241   1.323   2.732   6.724  0.2242 -0.9010 -1.5052
 4016TIP3   OH236242   1.557   3.370   9.605 -0.1731 -0.1562 -0.3134
 4016TIP3    H136243   1.506   3.428   9.548  0.8289  0.9053 -0.1657
 4016TIP3    H236244   1.516   3.381   9.691  0.3908  0.8428 -0.1560
 4017TIP3   OH236245   0.438   6.867   8.454  0.5458 -0.2645  0.0669
 4017TIP3    H136246   0.465   6.832   8.369  0.5212  0.2401 -0.1554
 4017TIP3    H236247   0.511   6.846   8.512  0.0127 -1.7585  0.2442
 4018TIP3   OH236248   5.090   2.700   7.491  0.3005  0.1386 -0.6665
 4018TIP3    H136249   5.031   2.705   7.416 -0.7620 -1.5347 -0.0004
 4018TIP3    H236250   5.160   2.762   7.471 -1.0600  1.3148 -2.0308
 4019TIP3   OH236251   2.047   0.681   6.533  0.0589  0.1349  0.3712
 4019TIP3    H136252   2.097   0.625   6.592  0.6383  1.6567  1.3732
 4019TIP3    H236253   1.981   0.722   6.589  0.8512  1.8800  0.0988
 4020TIP3   OH236254   6.600   6.940   9.042 -0.4668  0.5739 -0.1847
 4020TIP3    H136255   6.637   6.891   9.115 -1.2098  0.0931 -0.1180
 4020TIP3    H236256   6.528   6.990   9.079 -0.7513  0.4479 -0.5537
 4021TIP3   OH236257   6.328   5.964   7.482  0.0103  0.7356  0.0506
 4021TIP3    H136258   6.254   5.934   7.430  0.2256  0.8773 -0.3413
 4021TIP3    H236259   6.377   5.885   7.504 -0.7171  0.5403  1.0392
 4022TIP3   OH236260   1.167   3.721   7.665 -0.0584 -0.2097 -0.5138
 4022TIP3    H136261   1.080   3.681   7.667  0.0819 -0.5427 -0.8607
 4022TIP3    H236262   1.225   3.650   7.635  0.6206 -0.5386  1.4433
 4023TIP3   OH236263   6.538   1.589   8.435  0.0958  0.7599  0.2558
 4023TIP3    H136264   6.591   1.567   8.358 -0.1880  3.0551 -0.6876
 4023TIP3    H236265   6.475   1.517   8.442  2.3691 -1.3493  0.5872
 4024TIP3   OH236266   2.265   0.714   7.480 -0.1549  0.0058 -0.0504
 4024TIP3    H136267   2.270   0.635   7.534  2.5388  0.9437  1.2929
 4024TIP3    H236268   2.204   0.771   7.526 -2.7172 -1.4193 -1.4208
 4025TIP3   OH236269   2.179   1.732   6.310  0.2153  0.1632 -0.1968
 4025TIP3    H136270   2.106   1.788   6.282 -0.5084 -0.6016  0.1404
 4025TIP3    H236271   2.176   1.657   6.251  1.3649  0.5961 -0.8313
 4026TIP3   OH236272   2.274   2.392   9.025  0.2433  0.0657 -0.2777
 4026TIP3    H136273   2.320   2.468   8.989  0.9176 -1.2412 -2.3220
 4026TIP3    H236274   2.182   2.419   9.028  0.7578  1.8220  1.4627
 4027TIP3   OH236275   1.323   0.226   8.988 -0.0310 -0.3977 -0.5384
 4027TIP3    H136276   1.388   0.270   8.933  1.0484 -1.4495 -0.1529
 4027TIP3    H236277   1.341   0.258   9.077 -0.2908 -0.4010 -0.4847
 4028TIP3   OH236278   5.803   7.077   7.687  0.0273  0.1610  0.2775
 4028TIP3    H136279   5.847   7.138   7.746 -1.0441  0.8310  0.4131
 4028TIP3    H236280   5.775   7.131   7.613 -0.7100 -0.2046  0.2827
 4029TIP3   OH236281   6.551   5.772   7.518  0.1564 -0.8824 -0.0657
 4029TIP3    H136282   6.603   5.796   7.442 -0.9511  1.6998 -0.0911
 4029TIP3    H236283   6.616   5.750   7.585  1.3707  2.0353 -0.1460
 4030TIP3   OH236284   7.279   7.086   8.583  0.0634 -0.3423 -0.4395
 4030TIP3    H136285   7.269   7.084   8.678  0.9811  0.4847 -0.2976
 4030TIP3    H236286   7.287   6.994   8.557  3.3004 -0.5409  0.7478
 4031TIP3   OH236287   0.794   2.589   7.787  0.3583 -0.1969  0.0790
 4031TIP3    H136288   0.847   2.666   7.808 -1.4217  0.8571  0.9980
 4031TIP3    H236289   0.807   2.577   7.693  1.8019  0.3196  0.1844
 4032TIP3   OH236290   4.212   5.193   8.100  0.1206  0.0189 -0.4974
 4032TIP3    H136291   4.294   5.231   8.066  0.6329 -0.9941 -0.4310
 4032TIP3    H236292   4.240   5.139   8.174 -0.5437 -0.7277 -0.7790
 4033TIP3   OH236293   2.640   2.333   8.722  0.4277 -0.1299  0.1074
 4033TIP3    H136294   2.637   2.294   8.635  0.4852  1.4251 -0.6245
 4033TIP3    H236295   2.708   2.284   8.768  2.4224  0.8542 -1.6608
 4034TIP3   OH236296   6.035   0.773   8.975  0.4035  0.0697 -0.1191
 4034TIP3    H136297   5.996   0.717   9.043 -1.3734 -0.1540 -1.2478
 4034TIP3    H236298   6.080   0.712   8.917  2.7560  0.3497  1.3072
 4035TIP3   OH236299   1.099   5.768   8.765 -0.5878  0.5368  0.0590
 4035TIP3    H136300   1.181   5.720   8.772  0.1627  1.1819 -2.9651
 4035TIP3    H236301   1.055   5.753   8.849  2.6009  0.2245  1.8392
 4036TIP3   OH236302   4.543   3.909   7.362  0.2548  0.0480 -0.0352
 4036TIP3    H136303   4.604   3.974   7.325 -0.1670  0.2148 -0.4472
 4036TIP3    H236304   4.522   3.943   7.449  0.9977 -0.1749  0.2404
 4037TIP3   OH236305   0.134   2.693   7.117  0.7174  0.2076 -0.7208
 4037TIP3    H136306   0.148   2.698   7.022 -2.3739  1.9796 -1.2131
 4037TIP3    H236307   0.119   2.783   7.144 -0.9726 -0.5032  0.9570
 4038TIP3   OH236308   0.540   2.813   8.773 -0.1866 -0.2753 -0.5615
 4038TIP3    H136309   0.629   2.848   8.774  0.4373 -1.8017 -0.5762
 4038TIP3    H236310   0.543   2.737   8.831 -2.2179  1.3062  1.8588
 4039TIP3   OH236311   0.180   6.817   8.523  0.1165  0.0700 -0.4301
 4039TIP3    H136312   0.272   6.832   8.501  0.2758 -0.0296  0.1398
 4039TIP3    H236313   0.160   6.732   8.486  0.6290 -0.4863  0.5333
 4040TIP3   OH236314   5.228   7.429   8.057 -0.0655 -0.5360  0.3302
 4040TIP3    H136315   5.168   7.483   8.107 -0.1211 -0.3385  0.0509
 4040TIP3    H236316   5.213   7.453   7.966 -0.3023 -1.2351  0.1783
 4041TIP3   OH236317   2.701   4.533   8.056  0.2006  0.2817 -0.1064
 4041TIP3    H136318   2.625   4.583   8.025  0.0192  0.3040  0.3756
 4041TIP3    H236319   2.668   4.481   8.129  0.1095 -1.4498 -1.3195
 4042TIP3   OH236320   5.284   1.332   9.222 -1.0208 -0.2934 -0.9859
 4042TIP3    H136321   5.251   1.332   9.312 -3.7752  0.7287 -1.9046
 4042TIP3    H236322   5.279   1.424   9.195 -0.3463 -0.6028 -2.2432
 4043TIP3   OH236323   1.584   7.223   7.128  0.4888 -0.9119 -0.1456
 4043TIP3    H136324   1.675   7.211   7.102 -0.2127 -0.3199 -3.3181
 4043TIP3    H236325   1.558   7.139   7.165  1.9685 -1.5145 -0.4017
 4044TIP3   OH236326   5.665   3.858   8.594  1.1230 -0.3469  0.1382
 4044TIP3    H136327   5.629   3.939   8.632  1.0641 -0.6301  0.6889
 4044TIP3    H236328   5.674   3.799   8.668  0.8190 -0.9760 -0.3224
 4045TIP3   OH236329   5.794   2.913   7.611 -0.1567  0.4777  0.0773
 4045TIP3    H136330   5.779   2.841   7.551 -2.3148  1.2556 -0.4300
 4045TIP3    H236331   5.865   2.963   7.572  0.4644 -0.6295 -0.2516
 4046TIP3   OH236332   6.320   1.570   7.823  0.0938  0.3401 -0.4683
 4046TIP3    H136333   6.381   1.643   7.814 -1.2265  1.4017 -1.2819
 4046TIP3    H236334   6.308   1.537   7.734  1.7936 -1.8922  0.0379
 4047TIP3   OH236335   5.203   5.123   8.337 -0.3954 -0.0295  0.3345
 4047TIP3    H136336   5.170   5.196   8.285  1.2466  1.2261  0.9846
 4047TIP3    H236337   5.281   5.157   8.381 -0.1670 -1.8671  1.4782
 4048TIP3   OH236338   7.466   6.730   6.951 -0.4874  0.4359 -0.4132
 4048TIP3    H136339   7.406   6.750   6.879  0.4302  0.7614 -1.1138
 4048TIP3    H236340   7.495   6.640   6.934  2.3919  1.5930 -2.5132
 4049TIP3   OH236341   4.119   2.156   7.507 -0.6484 -0.1780 -0.0596
 4049TIP3    H136342   4.139   2.074   7.461 -1.4045 -0.6012  0.3517
 4049TIP3    H236343   4.066   2.205   7.444 -2.7495 -1.2783  0.7592
 4050TIP3   OH236344   1.017   5.869   9.315  0.1141 -0.3037 -0.1684
 4050TIP3    H136345   0.931   5.898   9.343  0.9067  0.2562  1.8603
 4050TIP3    H236346   1.037   5.794   9.371  1.7931  0.9081  0.9645
 4051TIP3   OH236347   2.469   2.617   7.587  0.0962  0.0174  0.2631
 4051TIP3    H136348   2.547   2.611   7.532 -1.3508  1.0653 -2.0720
 4051TIP3    H236349   2.443   2.526   7.602  1.1421 -0.3137  0.1347
 4052TIP3   OH236350   6.590   4.091   9.149  0.6150 -0.2099 -0.9161
 4052TIP3    H136351   6.639   4.018   9.112 -0.0525 -2.2760  1.9567
 4052TIP3    H236352   6.500   4.077   9.120  0.0772 -1.8727  1.3253
 4053TIP3   OH236353   4.783   6.827   7.554  0.0947  0.3739  0.0956
 4053TIP3    H136354   4.823   6.853   7.637  1.7860 -0.0098 -0.5669
 4053TIP3    H236355   4.852   6.780   7.508 -1.7836 -2.2395 -0.2253
 4054TIP3   OH236356   0.187   6.315   9.355 -0.2918  0.2227  0.0234
 4054TIP3    H136357   0.223   6.327   9.443  1.1882  1.0712 -0.6605
 4054TIP3    H236358   0.117   6.380   9.349 -1.0581 -0.4863  0.8797
 4055TIP3   OH236359   0.814   5.893   7.965 -0.1619 -0.0198 -0.5145
 4055TIP3    H136360   0.846   5.910   7.876 -0.4577 -0.6108 -0.7408
 4055TIP3    H236361   0.843   5.804   7.984 -2.4073 -0.9512 -1.0851
 4056TIP3   OH236362   5.406   5.277   8.431 -0.4215 -0.0948 -0.1790
 4056TIP3    H136363   5.418   5.279   8.526 -0.0046 -0.2577 -0.2220
 4056TIP3    H236364   5.379   5.365   8.407 -1.6364 -0.3514  0.2250
 4057TIP3   OH236365   3.448   1.337   8.170  0.4697 -0.2571 -0.4732
 4057TIP3    H136366   3.457   1.427   8.201 -3.5956  0.3897 -0.6221
 4057TIP3    H236367   3.444   1.346   8.074 -0.1401 -0.5068 -0.4793
 4058TIP3   OH236368   4.760   1.221   8.797 -0.2702 -0.8505  0.2777
 4058TIP3    H136369   4.811   1.267   8.862  0.8013 -2.1378  0.4010
 4058TIP3    H236370   4.825   1.181   8.739 -1.1271 -2.1791  0.1838
 4059TIP3   OH236371   0.350   0.544   9.313 -0.1656 -0.2599  0.3634
 4059TIP3    H136372   0.271   0.597   9.311  0.3547  0.5240 -1.6492
 4059TIP3    H236373   0.375   0.534   9.222  1.9123 -0.6951  0.9151
 4060TIP3   OH236374   0.109   2.276   8.614  0.1987 -0.4864 -0.1673
 4060TIP3    H136375   0.084   2.360   8.651 -0.3185 -1.1045  0.9524
 4060TIP3    H236376   0.026   2.230   8.600  0.5029 -1.0502 -0.1647
 4061TIP3   OH236377   3.525   1.286   9.541  0.3128 -0.4210  0.6515
 4061TIP3    H136378   3.597   1.224   9.557  0.6527  0.1292  1.2681
 4061TIP3    H236379   3.560   1.371   9.568 -0.5319 -0.1304  0.8384
 4062TIP3   OH236380   1.045   4.413   8.276 -0.3744  0.2467 -0.1128
 4062TIP3    H136381   0.998   4.425   8.193  0.2148  0.8885 -0.3596
 4062TIP3    H236382   1.068   4.501   8.303 -0.5363  0.0369  0.7277
 4063TIP3   OH236383   1.123   6.525   8.239 -0.2377  0.4394 -0.4470
 4063TIP3    H136384   1.060   6.570   8.295  0.2108  0.8483 -0.2704
 4063TIP3    H236385   1.098   6.432   8.245 -0.6724  0.5702 -0.1893
 4064TIP3   OH236386   2.890   5.396   9.087  0.2125  0.5219 -0.1829
 4064TIP3    H136387   2.803   5.391   9.125  0.1009  1.0922 -0.3555
 4064TIP3    H236388   2.921   5.484   9.108  1.0820  0.0558  0.5844
 4065TIP3   OH236389   4.598   1.008   8.472  0.4340  0.3554 -0.3557
 4065TIP3    H136390   4.593   0.969   8.559 -0.6795 -0.1383 -0.6186
 4065TIP3    H236391   4.621   0.935   8.414 -1.0746  0.1674 -0.7695
 4066TIP3   OH236392   4.441   3.164   8.052  0.1070  0.3121  0.3544
 4066TIP3    H136393   4.494   3.091   8.020 -1.1676  0.1224 -1.5566
 4066TIP3    H236394   4.466   3.175   8.143  1.8562 -1.1276  0.1004
 4067TIP3   OH236395   4.377   4.557   7.875  0.0624  0.2311  0.1005
 4067TIP3    H136396   4.418   4.473   7.896  4.0109  1.5388 -1.4052
 4067TIP3    H236397   4.327   4.540   7.795 -2.6809 -1.4346  2.0049
 4068TIP3   OH236398   0.681   7.151   9.377  0.0637 -0.4519 -0.1065
 4068TIP3    H136399   0.603   7.096   9.378  0.3696 -0.9197 -0.9706
 4068TIP3    H236400   0.749   7.097   9.337  0.3909  0.5158 -0.9159
 4069TIP3   OH236401   6.312   1.189   7.602 -0.1339  0.1854  0.0076
 4069TIP3    H136402   6.232   1.137   7.592 -0.8611  1.2715 -0.0548
 4069TIP3    H236403   6.311   1.217   7.693  0.0717  0.3815 -0.0507
 4070TIP3   OH236404   2.027   7.019   8.799 -0.2243  0.0533 -0.5340
 4070TIP3    H136405   1.949   7.000   8.850 -0.6952 -0.2187 -1.3494
 4070TIP3    H236406   2.022   7.113   8.781  2.1663  1.2178  3.5990
 4071TIP3   OH236407   1.739   1.242   9.459  0.0328  0.6692  0.0734
 4071TIP3    H136408   1.704   1.291   9.533 -1.0727 -0.6074  0.4418
 4071TIP3    H236409   1.751   1.308   9.390 -2.7937  1.3058  0.0356
 4072TIP3   OH236410   7.301   4.001   7.628  0.5024  0.0693 -0.5179
 4072TIP3    H136411   7.341   3.937   7.570  1.3961  0.3267 -0.1960
 4072TIP3    H236412   7.207   3.997   7.607  0.6141 -0.9420 -0.8863
 4073TIP3   OH236413   0.845   5.718   6.952  0.0075 -0.1853  0.7109
 4073TIP3    H136414   0.839   5.722   6.856 -0.8993 -1.5393  0.6820
 4073TIP3    H236415   0.939   5.721   6.970  0.1999  4.5605  0.0929
 4074TIP3   OH236416   5.641   2.737   8.132  0.3039 -0.1108  0.0200
 4074TIP3    H136417   5.617   2.746   8.224  1.5552 -2.3576  0.6468
 4074TIP3    H236418   5.557   2.739   8.085 -0.4719 -0.2078  1.3425
 4075TIP3   OH236419   4.405   6.490   8.951  0.2065  0.7535  0.0669
 4075TIP3    H136420   4.318   6.498   8.991  1.1192  0.3344  2.2669
 4075TIP3    H236421   4.455   6.562   8.990  0.7169  1.3401 -1.6078
 4076TIP3   OH236422   4.670   4.489   7.309  0.2538 -0.1970  0.1222
 4076TIP3    H136423   4.626   4.470   7.226  0.6054  1.8476 -0.5956
 4076TIP3    H236424   4.599   4.518   7.367 -0.0016 -1.6867  0.6072
 4077TIP3   OH236425   2.637   6.047   9.456 -0.7366 -0.1636 -0.3960
 4077TIP3    H136426   2.691   6.095   9.518  0.3285 -0.5360 -1.0124
 4077TIP3    H236427   2.676   5.960   9.451 -0.1775  0.1469 -2.3072
 4078TIP3   OH236428   1.732   5.860   9.156  0.0082  0.1443 -0.1537
 4078TIP3    H136429   1.804   5.890   9.100 -0.5535  0.7204 -0.5751
 4078TIP3    H236430   1.772   5.851   9.242  0.3640  1.4557 -0.1591
 4079TIP3   OH236431   3.059   3.136   8.053  0.5048  0.3451  0.0017
 4079TIP3    H136432   2.993   3.135   8.123 -0.6817  0.0506 -1.0951
 4079TIP3    H236433   3.063   3.228   8.026  0.5191  0.3575  0.0452
 4080TIP3   OH236434   4.390   0.510   7.306  0.2194 -0.1748 -0.1248
 4080TIP3    H136435   4.405   0.446   7.376 -0.8221  1.0519  1.2785
 4080TIP3    H236436   4.457   0.577   7.320  0.4218 -0.2443 -0.7229
 4081TIP3   OH236437   4.278   1.467   8.367 -0.8250  0.4842  0.0432
 4081TIP3    H136438   4.331   1.413   8.426  0.8387 -1.3495 -2.8888
 4081TIP3    H236439   4.206   1.409   8.340  1.1015 -0.6395 -3.3101
 4082TIP3   OH236440   0.897   5.942   8.994  0.2134  0.0377 -0.7553
 4082TIP3    H136441   0.988   5.917   9.009  0.3142 -0.1821 -1.6617
 4082TIP3    H236442   0.900   5.998   8.916 -0.1139  2.2090  0.6901
 4083TIP3   OH236443   7.131   2.267   8.569  0.0918  0.0959  0.0445
 4083TIP3    H136444   7.050   2.316   8.560  0.1463  0.0246 -0.8531
 4083TIP3    H236445   7.117   2.212   8.646 -1.1491 -0.7680 -0.7824
 4084TIP3   OH236446   3.079   1.003   7.873  0.2474  0.9201 -0.3835
 4084TIP3    H136447   2.985   1.019   7.874  0.1044  0.1125 -0.2092
 4084TIP3    H236448   3.111   1.049   7.795 -0.0420  2.4730  0.3724
 4085TIP3   OH236449   3.017   6.151   7.375 -0.0683 -0.7986  0.4293
 4085TIP3    H136450   2.962   6.227   7.358 -1.4951 -1.8990 -0.0828
 4085TIP3    H236451   3.021   6.105   7.291 -0.8868 -2.3195  1.1751
 4086TIP3   OH236452   5.954   3.139   9.123  0.5059 -0.6498 -0.3773
 4086TIP3    H136453   5.971   3.048   9.147 -0.3970 -0.9279 -0.7668
 4086TIP3    H236454   6.013   3.156   9.049  1.3732 -0.6053  0.3053
 4087TIP3   OH236455   2.794   0.533   8.975  0.1459 -0.3003 -0.1423
 4087TIP3    H136456   2.769   0.485   8.897  0.0313  1.1038 -1.0079
 4087TIP3    H236457   2.717   0.585   8.997  0.6098  0.2825  0.1373
 4088TIP3   OH236458   6.693   3.024   9.220  0.0167  0.9488  0.4527
 4088TIP3    H136459   6.753   3.002   9.292 -0.7987 -0.9843  0.6199
 4088TIP3    H236460   6.646   2.942   9.203 -0.9135  1.7850 -1.2526
 4089TIP3   OH236461   4.930   2.115   8.511  0.0860  0.0963  0.3549
 4089TIP3    H136462   4.861   2.055   8.539 -0.5970  0.2977 -0.7948
 4089TIP3    H236463   4.951   2.086   8.422  2.1609 -0.5386  1.0160
 4090TIP3   OH236464   6.753   0.936   9.472 -0.2364  0.2630 -0.0228
 4090TIP3    H136465   6.800   0.963   9.393 -0.2995  0.3426 -0.0332
 4090TIP3    H236466   6.816   0.881   9.520 -0.5592 -0.6611 -0.6346
 4091TIP3   OH236467   5.099   0.644   8.295  0.5866  0.5364  0.0952
 4091TIP3    H136468   5.027   0.611   8.348 -0.4261  1.4215 -0.6897
 4091TIP3    H236469   5.135   0.566   8.252  1.5489 -0.2348  2.1425
 4092TIP3   OH236470   0.813   2.302   8.152 -0.3264 -0.3476  0.2319
 4092TIP3    H136471   0.868   2.226   8.168 -0.6280 -0.5691  0.2315
 4092TIP3    H236472   0.777   2.288   8.064 -1.1434 -0.6949  0.6027
 4093TIP3   OH236473   4.098   4.561   7.626 -0.0870  0.0512  0.0423
 4093TIP3    H136474   4.083   4.655   7.622  0.1011  0.1594  1.4653
 4093TIP3    H236475   4.013   4.522   7.609 -0.9016  0.5538  2.6265
 4094TIP3   OH236476   5.330   6.422   7.260  0.2643  0.3845 -0.1161
 4094TIP3    H136477   5.414   6.414   7.215 -0.0807  0.9255 -0.8871
 4094TIP3    H236478   5.268   6.374   7.204 -0.1259  0.8724 -0.1129
 4095TIP3   OH236479   0.662   4.641   8.106  0.6034  0.2521  0.1741
 4095TIP3    H136480   0.631   4.563   8.060  2.3638 -0.0162 -0.6439
 4095TIP3    H236481   0.602   4.711   8.079  0.2766 -0.3798 -0.7638
 4096TIP3   OH236482   4.589   3.341   9.147 -0.2789  0.0464 -0.5963
 4096TIP3    H136483   4.583   3.302   9.060 -0.2418  2.8578 -1.9682
 4096TIP3    H236484   4.668   3.302   9.185  1.5500  0.9814 -3.1242
 4097TIP3   OH236485   2.778   4.123   8.156 -0.0246  0.5318 -0.7073
 4097TIP3    H136486   2.726   4.191   8.200  2.0422  1.4487  0.4771
 4097TIP3    H236487   2.717   4.081   8.096 -1.8677  2.1844 -0.0951
 4098TIP3   OH236488   1.813   0.071   7.995  0.4564  0.5593 -0.1202
 4098TIP3    H136489   1.784  -0.018   7.975 -3.2186  0.9654  2.4256
 4098TIP3    H236490   1.895   0.059   8.042 -1.0447 -1.8332  2.2135
 4099TIP3   OH236491   1.589   6.975   9.385  0.1606 -0.2119  0.2071
 4099TIP3    H136492   1.607   6.891   9.426 -0.8691 -0.5915 -0.0899
 4099TIP3    H236493   1.496   6.972   9.362  0.1638  0.9010 -0.0470
 4100TIP3   OH236494   0.683   2.925   7.776 -0.3312  0.0447 -0.3922
 4100TIP3    H136495   0.755   2.874   7.814 -0.4895 -1.2712 -1.7525
 4100TIP3    H236496   0.726   2.987   7.718 -0.2525 -0.2722 -0.6761
 4101TIP3   OH236497   5.669   0.609   9.577  0.2393 -0.1177  0.1911
 4101TIP3    H136498   5.715   0.595   9.660  1.2152  2.2659  0.1378
 4101TIP3    H236499   5.735   0.651   9.521 -1.5117  2.0423 -0.3979
 4102TIP3   OH236500   6.289   4.317   7.599  0.0602  0.3741 -0.4240
 4102TIP3    H136501   6.256   4.304   7.510  0.4062 -3.3082 -0.1728
 4102TIP3    H236502   6.371   4.268   7.601  0.5561  1.1813  1.7081
 4103TIP3   OH236503   2.575   6.942   8.363 -0.1545  0.4688  0.5005
 4103TIP3    H136504   2.566   6.932   8.458 -0.6800  0.3900  0.4438
 4103TIP3    H236505   2.664   6.976   8.351  0.3569 -0.6454  0.9398
 4104TIP3   OH236506   5.075   1.428   8.362  0.1895  0.1350  0.0744
 4104TIP3    H136507   5.168   1.452   8.356 -0.3096  1.8573 -3.0226
 4104TIP3    H236508   5.029   1.511   8.359 -1.5193 -0.7136  1.2870
 4105TIP3   OH236509   1.693   2.965   8.735 -0.0576 -0.0056 -0.2227
 4105TIP3    H136510   1.776   3.010   8.722 -0.3617  0.8663  0.6582
 4105TIP3    H236511   1.658   3.004   8.815 -0.5027 -1.5916  0.3832
 4106TIP3   OH236512   2.253   6.142   7.623  0.1981  0.2285  0.3624
 4106TIP3    H136513   2.282   6.052   7.641 -1.7410 -0.6669 -0.6802
 4106TIP3    H236514   2.210   6.170   7.704  1.4770  0.5536  0.9615
 4107TIP3   OH236515   2.625   3.197   7.428 -0.2921  0.2421  0.1939
 4107TIP3    H136516   2.532   3.220   7.427  0.1752  2.6396  2.1130
 4107TIP3    H236517   2.661   3.240   7.350 -0.6874 -0.3113 -0.3043
 4108TIP3   OH236518   6.164   2.406   7.902 -0.1357 -0.3683 -0.1296
 4108TIP3    H136519   6.170   2.331   7.844  0.9683 -0.7411  0.4440
 4108TIP3    H236520   6.098   2.381   7.967 -0.6577 -0.3386 -0.6365
 4109TIP3   OH236521   0.188   2.971   7.871 -0.4816  0.1901  0.2462
 4109TIP3    H136522   0.160   3.060   7.852  0.7728  0.1221 -2.3658
 4109TIP3    H236523   0.272   2.980   7.915  0.1405  0.3421 -0.9268
 4110TIP3   OH236524   2.245   3.401   6.990 -0.0638 -0.5240 -0.6150
 4110TIP3    H136525   2.313   3.374   7.053  0.1264 -0.6229 -0.8604
 4110TIP3    H236526   2.291   3.458   6.928 -0.7378  1.5266  0.6694
 4111TIP3   OH236527   3.116   7.140   9.139  0.2710 -0.0588 -0.0165
 4111TIP3    H136528   3.164   7.060   9.117  1.2522  0.4511  0.2120
 4111TIP3    H236529   3.089   7.175   9.054 -0.0478 -0.5495 -0.1257
 4112TIP3   OH236530   3.224   4.195   7.731 -0.1437  0.3881 -0.2128
 4112TIP3    H136531   3.223   4.276   7.679 -0.1383 -1.2735 -3.0087
 4112TIP3    H236532   3.312   4.190   7.766  0.2247  1.0223 -1.0159
 4113TIP3   OH236533   5.129   4.138   7.712  0.0742 -0.5000 -0.3125
 4113TIP3    H136534   5.081   4.100   7.638 -1.1072 -0.4279  0.3919
 4113TIP3    H236535   5.061   4.177   7.767  0.9672 -0.2637  0.6503
 4114TIP3   OH236536   2.121   4.359   7.023  0.2154  0.0665  0.1655
 4114TIP3    H136537   2.054   4.428   7.030 -0.9879 -0.8546 -1.5127
 4114TIP3    H236538   2.184   4.393   6.960 -1.4722 -1.1049 -2.2921
 4115TIP3   OH236539   5.678   2.784   8.779  0.5280  0.0368 -0.1237
 4115TIP3    H136540   5.642   2.705   8.820 -0.5150  0.9872  0.8578
 4115TIP3    H236541   5.612   2.852   8.795  1.3270  1.0848 -1.0879
 4116TIP3   OH236542   4.919   4.620   9.094  0.2524  0.0551 -1.0744
 4116TIP3    H136543   4.881   4.565   9.162 -1.0465  0.6539 -1.2994
 4116TIP3    H236544   4.899   4.709   9.120 -0.3673  0.2941 -2.2823
 4117TIP3   OH236545   5.506   1.302   8.659 -0.3646 -0.1838  0.4473
 4117TIP3    H136546   5.557   1.368   8.611  0.0883 -1.1466 -0.4236
 4117TIP3    H236547   5.420   1.304   8.617  0.1115 -1.2151 -0.6245
 4118TIP3   OH236548   1.511   0.308   8.776  0.9945  0.0336  0.7987
 4118TIP3    H136549   1.510   0.229   8.723 -0.2336 -0.5813  1.7011
 4118TIP3    H236550   1.602   0.339   8.770  1.5217 -1.4724  0.4992
 4119TIP3   OH236551   5.485   5.790   9.482 -0.4826  0.0708  0.4030
 4119TIP3    H136552   5.405   5.781   9.534 -0.0722  1.9950  1.4936
 4119TIP3    H236553   5.526   5.704   9.486 -1.8410 -0.5840  0.9602
 4120TIP3   OH236554   1.771   6.816   7.833  0.0412  0.2674 -0.5753
 4120TIP3    H136555   1.802   6.759   7.903 -1.3480 -0.8447 -0.8157
 4120TIP3    H236556   1.708   6.874   7.875 -0.9337 -0.5230 -0.8904
 4121TIP3   OH236557   6.913   6.191   7.626  0.2839  0.1104  0.1005
 4121TIP3    H136558   6.894   6.261   7.562  2.6891  0.1765 -0.6372
 4121TIP3    H236559   6.839   6.131   7.617 -1.3508  2.0090  0.0135
 4122TIP3   OH236560   6.483   5.614   8.693 -0.2358 -0.5466 -0.2932
 4122TIP3    H136561   6.501   5.706   8.713 -0.5320 -0.4119 -0.6443
 4122TIP3    H236562   6.388   5.608   8.689 -0.2036 -0.6423 -1.3008
 4123TIP3   OH236563   3.438   6.921   8.259  0.6170  0.3014  0.0860
 4123TIP3    H136564   3.478   6.881   8.182 -0.6855  1.2836 -1.1527
 4123TIP3    H236565   3.441   7.015   8.242 -1.0815  0.4624  0.5072
 4124TIP3   OH236566   0.058   5.178   9.341  0.5816  0.2112  0.2643
 4124TIP3    H136567   0.070   5.162   9.248  1.8040 -1.2713  0.6283
 4124TIP3    H236568   0.091   5.267   9.355  2.0296 -0.1795 -0.4662
 4125TIP3   OH236569   4.373   0.002   9.018  0.1918  0.4315  0.0163
 4125TIP3    H136570   4.377  -0.045   8.935  0.5402  0.0639  0.2430
 4125TIP3    H236571   4.459  -0.009   9.057 -0.3833 -0.6087  1.0814
 4126TIP3   OH236572   0.794   1.487   9.784 -0.2813 -0.6638 -0.0978
 4126TIP3    H136573   0.812   1.429   9.709 -1.7738 -1.1542 -0.1168
 4126TIP3    H236574   0.872   1.480   9.839 -0.1516 -2.2318 -0.4216
 4127TIP3   OH236575   3.669   0.140   7.560 -0.0073 -0.2814  0.5857
 4127TIP3    H136576   3.653   0.181   7.475  2.0375  0.0757  0.3199
 4127TIP3    H236577   3.583   0.115   7.592 -0.9217  0.6607 -1.0567
 4128TIP3   OH236578   4.496   1.366   7.712 -0.1300  0.0086 -0.6817
 4128TIP3    H136579   4.413   1.320   7.722 -1.1371  2.0703  1.1799
 4128TIP3    H236580   4.552   1.331   7.782 -0.0872 -0.0229 -0.7312
 4129TIP3   OH236581   6.119   0.217   7.086  0.8917 -0.1088 -0.1716
 4129TIP3    H136582   6.127   0.242   6.994 -0.5050  1.0855 -0.0172
 4129TIP3    H236583   6.156   0.290   7.134 -1.4073  0.8828  0.2434
 4130TIP3   OH236584   4.400   6.113   9.152 -0.5140 -0.1306  0.2693
 4130TIP3    H136585   4.348   6.194   9.150  0.0666  0.2825  1.3762
 4130TIP3    H236586   4.396   6.085   9.243  1.9121  0.3829  0.5988
 4131TIP3   OH236587   0.497   4.347   8.719 -0.5459  0.1091 -0.2215
 4131TIP3    H136588   0.483   4.436   8.689  1.0507 -0.4363 -2.9975
 4131TIP3    H236589   0.445   4.293   8.660  1.8127 -0.9607 -1.4975
 4132TIP3   OH236590   0.069   6.815   9.296 -0.6024  0.2702  0.1067
 4132TIP3    H136591   0.121   6.862   9.231  1.9975 -2.0191  0.3747
 4132TIP3    H236592   0.011   6.758   9.245 -1.6329  1.5097 -0.1680
 4133TIP3   OH236593   3.787   6.298   6.815 -0.4786  0.0443 -0.0905
 4133TIP3    H136594   3.846   6.354   6.763 -0.8475  2.5298  1.9634
 4133TIP3    H236595   3.702   6.342   6.808 -1.2710 -1.4295  0.0042
 4134TIP3   OH236596   7.435   1.597   6.694  0.6829  0.6546 -0.0026
 4134TIP3    H136597   7.395   1.523   6.649  0.7077 -0.9321  2.3847
 4134TIP3    H236598   7.517   1.611   6.648  1.3419 -1.7722  0.2622
 4135TIP3   OH236599   1.221   4.840   7.349 -0.8204 -0.1288  0.3510
 4135TIP3    H136600   1.205   4.760   7.298 -0.5985 -0.9576  1.5414
 4135TIP3    H236601   1.208   4.911   7.286 -1.0010 -1.0944 -0.7461
 4136TIP3   OH236602   0.337   1.906   8.328  0.4885  0.2304 -0.1228
 4136TIP3    H136603   0.421   1.891   8.285 -0.1678  0.2830 -1.4796
 4136TIP3    H236604   0.306   1.989   8.293  0.7060  1.1846  1.7996
 4137TIP3   OH236605   3.496   5.915   8.299 -0.5311 -0.0394 -0.0444
 4137TIP3    H136606   3.416   5.893   8.347 -1.3680 -0.5389 -1.6004
 4137TIP3    H236607   3.490   6.009   8.284 -0.6768 -0.0271  0.0805
 4138TIP3   OH236608   4.204   6.156   8.752 -0.4945  0.2143  0.0449
 4138TIP3    H136609   4.236   6.246   8.753 -1.5651  0.6425 -1.4413
 4138TIP3    H236610   4.208   6.128   8.844 -0.1221  1.7492  0.5164
 4139TIP3   OH236611   5.720   3.624   8.835  0.2510 -0.2438 -0.1108
 4139TIP3    H136612   5.782   3.569   8.788  0.2709 -0.6466  0.3882
 4139TIP3    H236613   5.751   3.624   8.925 -0.4971 -0.4818  0.1502
 4140TIP3   OH236614   6.404   6.854   8.541  0.4017  0.0046  0.1002
 4140TIP3    H136615   6.451   6.816   8.615 -0.8641 -0.9340  0.4410
 4140TIP3    H236616   6.407   6.948   8.558  3.1524  0.1312 -0.5081
 4141TIP3   OH236617   0.583   6.346   8.682  0.2551 -0.3357  0.4396
 4141TIP3    H136618   0.582   6.406   8.757  3.0147 -0.5525  0.7605
 4141TIP3    H236619   0.545   6.397   8.610  1.7116  1.5210  0.9099
 4142TIP3   OH236620   4.161   2.071   9.488 -0.1514  0.6141 -0.0417
 4142TIP3    H136621   4.136   2.028   9.406  0.0045 -1.9839  1.1777
 4142TIP3    H236622   4.251   2.099   9.473  0.6566 -1.7863 -0.1250
 4143TIP3   OH236623   1.011   0.893   8.926 -0.0649  0.5948  0.0497
 4143TIP3    H136624   0.932   0.929   8.887  0.1132  0.5804 -0.3285
 4143TIP3    H236625   0.979   0.834   8.994 -0.3686  0.9204  0.1926
 4144TIP3   OH236626   5.851   7.312   9.179 -0.1850 -0.0942 -0.2786
 4144TIP3    H136627   5.776   7.319   9.237  0.3538 -1.2796  0.6008
 4144TIP3    H236628   5.871   7.219   9.176  0.5458  0.0724 -1.4131
 4145TIP3   OH236629   0.937   0.120   7.103 -0.0851  0.2820 -0.5240
 4145TIP3    H136630   0.890   0.179   7.044  0.6804  1.5908  0.1291
 4145TIP3    H236631   0.876   0.107   7.176  0.0612  0.9647 -0.2705
 4146TIP3   OH236632   5.521   2.520   7.504 -0.1735 -0.1625  0.4923
 4146TIP3    H136633   5.569   2.561   7.576  0.4965  0.2566 -0.1729
 4146TIP3    H236634   5.584   2.460   7.464 -1.3031 -2.2919  1.7825
 4147TIP3   OH236635   3.171   3.453   9.176 -0.5084  0.5065  0.4035
 4147TIP3    H136636   3.108   3.451   9.104  1.7368 -0.7262 -1.7103
 4147TIP3    H236637   3.143   3.383   9.235 -1.4523  0.4043 -0.1551
 4148TIP3   OH236638   3.494   6.945   8.560  0.0761 -0.0481 -0.5295
 4148TIP3    H136639   3.480   6.936   8.465  0.3979 -0.8017 -0.5184
 4148TIP3    H236640   3.425   6.891   8.599  0.2450 -0.1374 -0.3531
 4149TIP3   OH236641   3.892   6.229   8.088  0.2014 -0.0745  0.2994
 4149TIP3    H136642   3.883   6.309   8.036  0.0236 -1.1926 -1.4799
 4149TIP3    H236643   3.968   6.184   8.050 -0.9399 -1.7200 -0.1458
 4150TIP3   OH236644   6.667   3.465   8.391  0.3301 -0.2706  0.2804
 4150TIP3    H136645   6.592   3.467   8.450  0.0696 -2.0457  0.0547
 4150TIP3    H236646   6.635   3.502   8.309  0.0152  0.0031  0.5276
 4151TIP3   OH236647   5.565   4.501   7.594  0.3346  0.1254 -0.0579
 4151TIP3    H136648   5.546   4.591   7.569 -0.3533 -0.0857 -0.3207
 4151TIP3    H236649   5.613   4.465   7.519 -0.3997 -0.0618 -0.4436
 4152TIP3   OH236650   2.552   3.245   8.821  0.5790  0.0961 -0.4557
 4152TIP3    H136651   2.467   3.211   8.851  0.1296  1.2514 -0.3588
 4152TIP3    H236652   2.611   3.170   8.826  0.0227 -0.2806  1.3100
 4153TIP3   OH236653   1.998   2.049   9.345  0.2271 -0.0496 -0.1035
 4153TIP3    H136654   2.001   1.976   9.283  0.0323 -0.9974  0.9493
 4153TIP3    H236655   1.965   2.123   9.295 -0.5814 -0.9660 -0.9596
 4154TIP3   OH236656   7.081   3.093   7.578 -0.0399  1.1329 -0.1501
 4154TIP3    H136657   7.116   3.179   7.554 -0.0096  0.7369 -1.6355
 4154TIP3    H236658   7.130   3.031   7.524 -0.9041  0.2975 -0.0080
 4155TIP3   OH236659   2.697   0.282   9.239 -0.4555 -0.4658 -0.2358
 4155TIP3    H136660   2.730   0.222   9.172  0.0867 -0.7698  0.2873
 4155TIP3    H236661   2.665   0.225   9.308 -0.7797 -0.1525 -0.1291
 4156TIP3   OH236662   6.619   7.122   8.458  0.4093 -0.3449 -0.2667
 4156TIP3    H136663   6.614   7.085   8.370  2.4272 -1.7861  0.1716
 4156TIP3    H236664   6.648   7.212   8.445  0.7121 -0.5567 -1.0751
 4157TIP3   OH236665   3.144   2.886   8.606  0.4186  0.4929 -0.1624
 4157TIP3    H136666   3.073   2.823   8.594 -0.7999  1.5383  1.2036
 4157TIP3    H236667   3.158   2.923   8.519 -0.5305  0.0546 -0.5163
 4158TIP3   OH236668   0.748   0.435   9.234 -0.3185  0.2319 -0.1405
 4158TIP3    H136669   0.659   0.428   9.268 -0.2466  1.0533  0.2348
 4158TIP3    H236670   0.738   0.480   9.150 -0.1530  1.4361  0.4638
 4159TIP3   OH236671   3.267   2.089   9.355  0.1148  0.3884  0.1658
 4159TIP3    H136672   3.254   2.015   9.414  0.2633  0.8119  0.7390
 4159TIP3    H236673   3.311   2.052   9.279 -1.6689 -0.5105 -0.4888
 4160TIP3   OH236674   7.381   3.971   8.045 -0.1798  0.4831  0.0720
 4160TIP3    H136675   7.321   3.915   7.997 -0.1203  0.8721 -0.4695
 4160TIP3    H236676   7.348   3.971   8.135 -1.3463  1.1699 -0.3399
 4161TIP3   OH236677   6.415   4.183   8.731  0.5239 -0.4675  0.2797
 4161TIP3    H136678   6.507   4.198   8.754  0.2046  1.0272  0.6747
 4161TIP3    H236679   6.367   4.247   8.782 -0.7227 -0.9851 -0.2101
 4162TIP3   OH236680   7.065   6.367   9.293 -0.0001 -0.2282 -0.7026
 4162TIP3    H136681   7.110   6.374   9.208  3.8748  0.9624  1.2114
 4162TIP3    H236682   7.086   6.449   9.338 -1.0475 -1.2468  1.8411
 4163TIP3   OH236683   2.132   2.873   8.986  0.0031 -0.5649 -0.4926
 4163TIP3    H136684   2.120   2.845   8.895 -0.2134  0.2805 -0.7417
 4163TIP3    H236685   2.222   2.906   8.989 -1.0754  2.9782 -1.4726
 4164TIP3   OH236686   6.554   0.765   7.477  0.1057  0.0793  0.0061
 4164TIP3    H136687   6.507   0.708   7.538  1.5156  0.2171  1.2816
 4164TIP3    H236688   6.511   0.751   7.393  0.1653 -2.5874  0.3454
 4165TIP3   OH236689   6.739   1.298   8.725  0.2573  0.4278  0.5320
 4165TIP3    H136690   6.762   1.269   8.637  2.8261 -0.3567  1.3552
 4165TIP3    H236691   6.727   1.216   8.775 -2.7045  0.8245  0.6669
 4166TIP3   OH236692   4.535   0.326   8.232  0.2447 -0.0443 -0.1532
 4166TIP3    H136693   4.547   0.320   8.138 -1.0054 -0.3007 -0.3220
 4166TIP3    H236694   4.599   0.391   8.261 -1.3200  2.3379 -1.6171
 4167TIP3   OH236695   4.594   1.060   9.296  0.1249 -0.3200  0.4441
 4167TIP3    H136696   4.541   1.048   9.217 -1.3182  0.5922  1.2109
 4167TIP3    H236697   4.637   0.976   9.309  0.3257 -0.5184 -1.2534
 4168TIP3   OH236698   0.948   6.473   7.291  0.6987  0.3549  0.1101
 4168TIP3    H136699   1.018   6.408   7.288 -0.5844 -1.0723 -0.0856
 4168TIP3    H236700   0.994   6.557   7.286  2.4459 -0.4828  1.0275
 4169TIP3   OH236701   1.563   6.751   7.624 -0.0429  0.3217 -0.1913
 4169TIP3    H136702   1.630   6.682   7.625 -1.1282 -0.7624 -0.1910
 4169TIP3    H236703   1.485   6.709   7.660 -1.0768  1.1905 -1.3453
 4170TIP3   OH236704   0.844   6.509   6.921  0.2521 -0.1148  1.1299
 4170TIP3    H136705   0.860   6.431   6.868  1.0358  0.4150  0.5565
 4170TIP3    H236706   0.931   6.548   6.932 -0.0824  0.4847  1.7111
 4171TIP3   OH236707   0.066   0.274   9.210  0.4258  0.1520  0.6849
 4171TIP3    H136708   0.053   0.221   9.131  1.8859  0.2901  0.3272
 4171TIP3    H236709   0.032   0.360   9.187 -0.2027 -0.1010  0.6196
 4172TIP3   OH236710   3.991   6.209   9.460  0.0519 -0.0383 -0.0142
 4172TIP3    H136711   3.952   6.286   9.420  0.4867  2.6133  4.1054
 4172TIP3    H236712   3.923   6.175   9.518  1.6877  0.8902  2.5845
 4173TIP3   OH236713   3.984   1.674   9.051 -0.1996  0.0741  0.2794
 4173TIP3    H136714   3.917   1.715   8.996  0.3657 -2.2051 -2.3253
 4173TIP3    H236715   4.063   1.725   9.035 -0.3759  0.2915  0.1024
 4174TIP3   OH236716   6.385   7.249   9.576  0.0054 -0.7733 -0.5919
 4174TIP3    H136717   6.443   7.175   9.556  1.0499 -0.3509  0.7231
 4174TIP3    H236718   6.443   7.315   9.613 -0.6205  1.3947 -3.1962
 4175TIP3   OH236719   1.681   4.826   7.529 -0.1400  0.1367  0.1490
 4175TIP3    H136720   1.646   4.828   7.440  0.1093  0.5964  0.0585
 4175TIP3    H236721   1.702   4.917   7.549  2.7392 -0.2979 -0.4897
 4176TIP3   OH236722   2.038   4.054   7.009  0.5697  0.0686  0.4850
 4176TIP3    H136723   1.993   4.028   6.929  0.2120 -0.7429  0.9293
 4176TIP3    H236724   2.121   4.090   6.980  0.6601 -0.6829 -0.2249
 4177TIP3   OH236725   5.147   1.872   8.429 -0.6109  0.3347  0.0521
 4177TIP3    H136726   5.073   1.818   8.404 -0.9777  1.0841 -0.5020
 4177TIP3    H236727   5.216   1.810   8.452 -0.5382 -0.4014 -1.9790
 4178TIP3   OH236728   2.335   2.879   6.749 -0.4612 -0.4429  0.1092
 4178TIP3    H136729   2.251   2.924   6.762 -0.5791 -0.6583  0.1088
 4178TIP3    H236730   2.334   2.853   6.656 -0.4842 -0.6243  0.1599
 4179TIP3   OH236731   1.750   3.790   6.538 -0.2125  0.3051  0.1419
 4179TIP3    H136732   1.705   3.839   6.607  0.4461  0.3048  0.5832
 4179TIP3    H236733   1.782   3.858   6.478 -0.3152  0.3381  0.1237
 4180TIP3   OH236734   2.067   6.215   7.001 -0.2486  0.1182 -0.2279
 4180TIP3    H136735   2.117   6.294   7.024  0.3826  0.2456 -1.8994
 4180TIP3    H236736   1.976   6.237   7.025  0.2319  0.4435  1.4558
 4181TIP3   OH236737   0.629   0.027   8.073 -0.3829  0.1633  0.3848
 4181TIP3    H136738   0.629   0.122   8.067 -2.0592  0.1431 -0.5095
 4181TIP3    H236739   0.589  -0.003   7.991 -1.2257 -1.2452  1.2593
 4182TIP3   OH236740   1.595   6.454   9.626  0.3557  0.2248  0.1316
 4182TIP3    H136741   1.501   6.445   9.609  0.3649  1.6594 -0.8035
 4182TIP3    H236742   1.608   6.547   9.642  1.7748  0.2365 -0.8621
 4183TIP3   OH236743   4.711   2.359   8.310 -0.1740  0.5579 -0.7145
 4183TIP3    H136744   4.695   2.333   8.401 -3.0146 -2.3558 -1.8502
 4183TIP3    H236745   4.804   2.341   8.296  0.5847  2.0309  1.7963
 4184TIP3   OH236746   4.694   0.047   8.276 -0.1714  0.2876  0.8515
 4184TIP3    H136747   4.740   0.011   8.352  0.0547 -0.5072  0.3578
 4184TIP3    H236748   4.602   0.033   8.295 -0.0696 -1.6304  0.2068
 4185TIP3   OH236749   2.482   4.988   9.044 -0.1691  0.0674 -0.0051
 4185TIP3    H136750   2.436   4.981   9.127 -0.2682  0.9722  0.0294
 4185TIP3    H236751   2.565   4.943   9.058  0.6808  1.9049  1.2367
 4186TIP3   OH236752   3.452   7.076   9.553  0.1133 -0.1277 -0.3350
 4186TIP3    H136753   3.368   7.113   9.579  0.2963  1.4770 -1.8276
 4186TIP3    H236754   3.489   7.140   9.493  2.7058 -0.5016  0.7246
 4187TIP3   OH236755   2.497   0.495   7.310  0.2755 -0.5904  0.0492
 4187TIP3    H136756   2.560   0.541   7.365  0.2327 -0.8417  0.3099
 4187TIP3    H236757   2.550   0.439   7.254  0.2866 -0.8240  0.2888
 4188TIP3   OH236758   4.263   1.812   9.054 -0.2648 -0.2385  0.3407
 4188TIP3    H136759   4.338   1.786   9.107  1.3275  3.2444  0.1285
 4188TIP3    H236760   4.281   1.775   8.967  0.3103 -0.8765  0.7220
 4189TIP3   OH236761   3.848   6.149   8.455  0.0258 -0.4551 -0.0702
 4189TIP3    H136762   3.801   6.066   8.450 -0.5365 -0.2107  0.8294
 4189TIP3    H236763   3.782   6.212   8.484  0.7844 -0.0071  0.7539
 4190TIP3   OH236764   5.708   1.400   8.226 -0.1189 -0.2290 -0.6106
 4190TIP3    H136765   5.691   1.458   8.299  0.4944  1.5873 -1.8529
 4190TIP3    H236766   5.784   1.349   8.253 -0.2621 -0.0126  0.2368
 4191TIP3   OH236767   7.094   3.926   8.669  0.0905 -0.2013  0.1709
 4191TIP3    H136768   7.156   3.980   8.620 -0.4243 -0.4822 -0.8364
 4191TIP3    H236769   7.043   3.881   8.601 -0.0431 -1.3193  0.9783
 4192TIP3   OH236770   1.273   1.041   9.466 -0.8662 -0.3085  0.3546
 4192TIP3    H136771   1.363   1.010   9.477 -0.8789 -0.0728  1.1762
 4192TIP3    H236772   1.279   1.109   9.399 -0.1681  0.8066  1.5151
 4193TIP3   OH236773   7.182   0.151   7.154  0.0804 -0.0842 -0.0037
 4193TIP3    H136774   7.253   0.155   7.089  0.3583 -1.4297  0.1848
 4193TIP3    H236775   7.105   0.182   7.107  0.5800  0.3933 -0.5312
 4194TIP3   OH236776   0.344   1.738   8.082 -0.0534 -0.1695  0.0411
 4194TIP3    H136777   0.431   1.766   8.111  0.5031 -1.2261 -0.5740
 4194TIP3    H236778   0.306   1.817   8.043  1.4069 -0.1702 -1.4941
 4195TIP3   OH236779   2.649   0.363   8.830 -0.0467 -0.7914  1.1017
 4195TIP3    H136780   2.587   0.388   8.899  0.3662  0.4153  1.0618
 4195TIP3    H236781   2.614   0.403   8.750  1.8735  1.9159  1.4480
 4196TIP3   OH236782   5.091   6.968   6.991 -0.0983  0.3366 -0.4257
 4196TIP3    H136783   5.018   6.979   6.930  0.0903  0.6002 -0.6050
 4196TIP3    H236784   5.169   6.989   6.940  0.0520  0.6615 -0.0645
 4197TIP3   OH236785   2.796   0.191   8.689 -0.4163 -0.0037  0.0629
 4197TIP3    H136786   2.749   0.242   8.755  1.5311  1.8422  0.1668
 4197TIP3    H236787   2.744   0.199   8.610 -1.3655  0.1267  0.6892
 4198TIP3   OH236788   2.757   7.532   6.975  0.2418  1.0634  0.3806
 4198TIP3    H136789   2.723   7.450   6.940 -2.0832  0.8289  2.8747
 4198TIP3    H236790   2.759   7.592   6.900 -0.0998 -0.6202 -1.0291
 4199TIP3   OH236791   1.939   7.150   9.641  0.0378 -0.0202 -0.0428
 4199TIP3    H136792   1.844   7.144   9.633  0.0872 -1.2172  0.1335
 4199TIP3    H236793   1.972   7.137   9.552  0.0215  1.4159 -0.2901
 4200TIP3   OH236794   3.738   6.700   8.238  0.6935 -0.5276 -0.3511
 4200TIP3    H136795   3.687   6.733   8.164  0.9812 -2.7046 -1.5733
 4200TIP3    H236796   3.771   6.780   8.281 -1.3589  0.8488 -1.1803
 4201TIP3   OH236797   2.608   4.687   7.343 -0.4333 -0.2274 -0.4309
 4201TIP3    H136798   2.522   4.655   7.371  0.1886 -0.6118  1.1049
 4201TIP3    H236799   2.615   4.773   7.383 -0.0909 -0.2088 -0.5325
 4202TIP3   OH236800   3.438   6.900   6.954 -0.4142  0.4507  0.6327
 4202TIP3    H136801   3.375   6.903   7.026 -1.4981 -2.4731 -0.0643
 4202TIP3    H236802   3.385   6.914   6.876  0.1197 -0.2323  0.1462
 4203TIP3   OH236803   7.134   3.265   8.068 -0.1942  0.2402 -0.3314
 4203TIP3    H136804   7.069   3.235   8.130  0.9718  1.3708  1.5504
 4203TIP3    H236805   7.151   3.356   8.093  1.5958  0.1894 -1.1874
 4204TIP3   OH236806   3.417   4.625   9.270 -0.0231  0.0778  0.0402
 4204TIP3    H136807   3.363   4.597   9.343 -1.4840 -1.0382 -1.4070
 4204TIP3    H236808   3.484   4.558   9.262 -0.0575  0.0302  0.1504
 4205TIP3   OH236809   0.238   4.827   8.904  0.2387 -0.7818 -0.3573
 4205TIP3    H136810   0.210   4.791   8.988 -2.4826 -1.8050 -1.5808
 4205TIP3    H236811   0.223   4.921   8.912  0.3758 -0.8208  0.4051
 4206TIP3   OH236812   6.065   6.839   7.146 -0.3059 -0.3420 -0.0898
 4206TIP3    H136813   6.028   6.766   7.197 -0.8891  0.7816  1.1472
 4206TIP3    H236814   6.035   6.917   7.191  1.3693  0.6702 -0.6537
 4207TIP3   OH236815   3.491   7.209   8.176  0.4073 -0.1027 -0.4708
 4207TIP3    H136816   3.570   7.178   8.132  1.1789  0.6406  0.3516
 4207TIP3    H236817   3.521   7.280   8.233 -0.9389  0.5731 -0.5493
 4208TIP3   OH236818   1.385   7.254   9.635 -0.2367 -0.3115 -0.1456
 4208TIP3    H136819   1.298   7.254   9.674  0.5911  0.2705  1.8216
 4208TIP3    H236820   1.394   7.340   9.595 -0.9352 -0.7604 -1.3250
 4209TIP3   OH236821   5.729   2.591   7.032 -0.4173 -0.2076  0.1602
 4209TIP3    H136822   5.694   2.667   7.080  1.0890  0.3046  0.5150
 4209TIP3    H236823   5.795   2.629   6.973 -1.3205 -0.9859 -1.4138
 4210TIP3   OH236824   2.914   4.614   7.779 -0.3385  0.5495  0.7803
 4210TIP3    H136825   2.940   4.640   7.691  0.8097 -1.0090  0.6116
 4210TIP3    H236826   2.992   4.572   7.815 -1.3468 -0.4707  1.8669
 4211TIP3   OH236827   7.415   6.987   7.496 -0.0289  0.4520  0.0806
 4211TIP3    H136828   7.407   7.008   7.403  1.1646 -1.1619 -0.4355
 4211TIP3    H236829   7.434   7.071   7.539 -0.1857  1.1491 -1.1759
 4212TIP3   OH236830   3.000   2.503   7.763 -0.2377 -0.2338  0.0191
 4212TIP3    H136831   2.935   2.514   7.694  0.7342 -2.3623 -1.3493
 4212TIP3    H236832   3.017   2.591   7.795 -3.5025  0.4156  0.2242
 4213TIP3   OH236833   5.188   7.117   8.100  1.1719  0.4492  0.4752
 4213TIP3    H136834   5.117   7.180   8.090  0.7809  0.1059  1.0441
 4213TIP3    H236835   5.229   7.113   8.013 -1.2624 -1.4299 -0.7143
 4214TIP3   OH236836   3.061   2.330   8.690 -0.1889 -0.6289  0.0410
 4214TIP3    H136837   3.138   2.320   8.635 -0.3088 -2.7993  0.1481
 4214TIP3    H236838   3.081   2.278   8.769 -0.5526  1.3098  1.4725
 4215TIP3   OH236839   2.702   1.228   7.597  0.1350  0.6564  0.1583
 4215TIP3    H136840   2.639   1.175   7.645  0.8868  0.0860  0.5471
 4215TIP3    H236841   2.662   1.241   7.511  0.3301 -1.4159 -0.3153
 4216TIP3   OH236842   4.789   2.066   7.213  0.8911 -0.2609  0.5172
 4216TIP3    H136843   4.778   2.015   7.132  2.0639  0.3468 -0.0531
 4216TIP3    H236844   4.857   2.130   7.191  0.5231  0.5546  1.6908
 4217TIP3   OH236845   4.104   7.424   8.033 -0.2460  0.0174  0.1810
 4217TIP3    H136846   4.043   7.421   8.106  1.0768  0.8935  1.3862
 4217TIP3    H236847   4.104   7.516   8.004  0.1017 -0.0799 -0.1497
 4218TIP3   OH236848   3.034   0.697   7.100  0.0691  0.0870  0.4308
 4218TIP3    H136849   3.064   0.740   7.019 -0.4371 -0.1821  0.0943
 4218TIP3    H236850   3.113   0.689   7.153  0.4464  0.1032 -0.1163
 4219TIP3   OH236851   5.992   4.462   8.598  0.7680 -0.4705  0.4018
 4219TIP3    H136852   5.926   4.472   8.529 -0.3488 -3.6824  0.8765
 4219TIP3    H236853   5.962   4.520   8.668  0.4145  0.7529 -0.7168
 4220TIP3   OH236854   1.368   0.752   8.347 -0.0951  0.6566  0.0527
 4220TIP3    H136855   1.364   0.686   8.416 -0.1507  0.1165 -0.4566
 4220TIP3    H236856   1.277   0.769   8.324 -0.1897  2.3933  1.5465
 4221TIP3   OH236857   0.581   0.692   8.297 -0.1598  0.3430 -0.3418
 4221TIP3    H136858   0.670   0.717   8.324  0.5769 -0.5983 -1.7719
 4221TIP3    H236859   0.548   0.638   8.369  0.3163  0.9148  0.3184
 4222TIP3   OH236860   3.492   1.899   6.802  0.2939  0.2852  0.2375
 4222TIP3    H136861   3.465   1.813   6.772  2.3189 -0.2416 -0.2303
 4222TIP3    H236862   3.509   1.948   6.721 -2.3660  1.7179  0.4435
 4223TIP3   OH236863   3.887   4.222   9.743 -0.7847 -0.5955 -0.0655
 4223TIP3    H136864   3.868   4.136   9.781 -1.9209 -0.7451 -0.9463
 4223TIP3    H236865   3.820   4.235   9.677  0.2089  0.3722 -0.9208
 4224TIP3   OH236866   2.051   3.443   6.763 -0.0013 -0.6208 -1.4035
 4224TIP3    H136867   2.130   3.475   6.720  0.4989 -1.8742 -1.4411
 4224TIP3    H236868   1.980   3.465   6.702 -0.1167  2.9296 -0.2177
 4225TIP3   OH236869   1.944   5.710   8.431 -0.4701  0.3082 -0.4433
 4225TIP3    H136870   2.012   5.732   8.495 -0.3455  1.0542 -0.8228
 4225TIP3    H236871   1.992   5.672   8.357 -0.4578  0.7855 -0.6889
 4226TIP3   OH236872   1.727   1.590   6.892 -0.1012  0.9334  0.8165
 4226TIP3    H136873   1.715   1.654   6.822  1.0206 -0.0709 -0.3354
 4226TIP3    H236874   1.816   1.603   6.922  0.5894 -0.8678 -0.2982
 4227TIP3   OH236875   6.443   7.367   7.201 -0.3379 -0.0072 -0.1760
 4227TIP3    H136876   6.386   7.309   7.151  0.7679 -1.1060 -0.2132
 4227TIP3    H236877   6.404   7.454   7.190 -0.9748 -0.4456 -1.6880
 4228TIP3   OH236878   4.059   6.605   9.619  0.0312  0.0281  0.1749
 4228TIP3    H136879   4.084   6.663   9.690  0.6558 -0.2868  0.2198
 4228TIP3    H236880   4.016   6.531   9.663 -0.2875  0.2035  0.1604
 4229TIP3   OH236881   2.437   2.007   9.438 -0.4890 -0.1636  0.3333
 4229TIP3    H136882   2.478   1.920   9.443 -0.3085 -0.0941  0.0991
 4229TIP3    H236883   2.500   2.065   9.479  1.0202  0.4149 -2.5507
 4230TIP3   OH236884   2.163   2.840   7.865 -0.5645 -0.1633 -0.0979
 4230TIP3    H136885   2.157   2.816   7.773 -1.3332 -0.2639 -0.0264
 4230TIP3    H236886   2.257   2.851   7.881 -0.2160 -2.4768 -0.3026
 4231TIP3   OH236887   6.276   0.501   8.525  0.5343  0.3957 -0.4498
 4231TIP3    H136888   6.202   0.557   8.501  0.8923  0.6556 -0.9437
 4231TIP3    H236889   6.354   0.552   8.502  0.8972  0.5322  0.9479
 4232TIP3   OH236890   5.990   0.351   8.127  0.3791  0.5438 -0.4944
 4232TIP3    H136891   6.081   0.341   8.102  0.3902 -1.2529  0.1277
 4232TIP3    H236892   5.992   0.358   8.223 -0.0427  2.1014 -0.5674
 4233TIP3   OH236893   3.868   6.359   7.086 -0.2185  0.2978 -0.4749
 4233TIP3    H136894   3.861   6.455   7.085  0.1871  0.4068  1.7472
 4233TIP3    H236895   3.827   6.331   7.004 -2.1818  2.2621 -0.2683
 4234TIP3   OH236896   6.391   3.947   7.388  0.7049  0.5761  0.3427
 4234TIP3    H136897   6.400   3.863   7.343 -1.6125  0.7281 -0.5513
 4234TIP3    H236898   6.387   4.011   7.317  1.2718  1.3149  0.9722
 4235TIP3   OH236899   5.600   1.559   7.631  0.0228  0.2381  0.3858
 4235TIP3    H136900   5.545   1.609   7.691 -0.2991  1.0308 -0.5473
 4235TIP3    H236901   5.683   1.607   7.630  0.7500 -0.9059  1.7222
 4236TIP3   OH236902   1.569   3.612   8.422 -0.5251 -0.3251 -0.6354
 4236TIP3    H136903   1.514   3.622   8.500  0.6280 -1.5575  0.3771
 4236TIP3    H236904   1.649   3.661   8.443 -1.2906  1.7075 -2.2147
 4237TIP3   OH236905   6.831   2.994   7.301  0.6781 -0.0227  0.9483
 4237TIP3    H136906   6.814   3.070   7.357  1.1496  0.6373  0.2283
 4237TIP3    H236907   6.751   2.942   7.307  1.2160 -0.6861  3.2702
 4238TIP3   OH236908   4.881   0.592   8.018  0.0132 -0.3303  1.0579
 4238TIP3    H136909   4.856   0.592   8.110 -0.9333 -0.5243  0.8049
 4238TIP3    H236910   4.896   0.500   7.997 -0.8859 -0.4091  0.7272
 4239TIP3   OH236911   0.233   5.499   8.324  0.8974 -0.7457  0.4069
 4239TIP3    H136912   0.205   5.564   8.260 -0.4025 -0.1867  1.5082
 4239TIP3    H236913   0.179   5.422   8.305 -0.8797  0.0543  1.9983
 4240TIP3   OH236914   3.041   6.371   8.086  0.1325  0.8887 -0.0632
 4240TIP3    H136915   2.969   6.355   8.025  0.2646  0.3028 -0.0716
 4240TIP3    H236916   3.116   6.389   8.030  0.6371 -1.2339 -0.1442
 4241TIP3   OH236917   6.605   4.538   8.617  0.2529  0.0247  0.1328
 4241TIP3    H136918   6.591   4.556   8.710 -0.5310  0.8940 -0.1354
 4241TIP3    H236919   6.521   4.504   8.586 -0.6088  2.8474 -0.9490
 4242TIP3   OH236920   5.308   7.286   9.340 -0.4753 -0.5878 -0.2250
 4242TIP3    H136921   5.304   7.225   9.415 -2.4161 -0.3507 -0.0837
 4242TIP3    H236922   5.338   7.231   9.267  0.3311 -1.0949  0.4668
 4243TIP3   OH236923   6.218   4.168   6.878 -0.1648  0.2854 -0.3054
 4243TIP3    H136924   6.184   4.079   6.869 -0.2717  0.3870 -1.0155
 4243TIP3    H236925   6.239   4.195   6.788  1.3094  0.4139  0.0368
 4244TIP3   OH236926   2.013   2.176   7.362 -0.2006  0.2406  0.8336
 4244TIP3    H136927   2.022   2.091   7.403  1.1822 -0.6256 -1.0669
 4244TIP3    H236928   1.959   2.227   7.422  1.8108 -0.8251  3.7638
 4245TIP3   OH236929   5.498   0.254   8.089 -0.4075 -0.1367 -0.0005
 4245TIP3    H136930   5.431   0.220   8.029  0.3365  0.2583 -1.0840
 4245TIP3    H236931   5.512   0.183   8.152  0.1386 -1.3206 -1.4096
 4246TIP3   OH236932   6.379   6.158   8.014  0.0447 -0.5185  0.0328
 4246TIP3    H136933   6.299   6.150   8.066  0.4807 -0.2351  0.7657
 4246TIP3    H236934   6.414   6.244   8.037  2.3955 -1.9620  2.4334
 4247TIP3   OH236935   4.626   5.959   8.085  0.2341  0.0531  0.0468
 4247TIP3    H136936   4.710   5.981   8.125 -0.3123 -0.1752  1.3506
 4247TIP3    H236937   4.635   5.867   8.060  0.4944  0.1346 -0.1648
 4248TIP3   OH236938   3.880   4.466   7.536  0.7592 -0.0874  0.0336
 4248TIP3    H136939   3.801   4.516   7.559  0.5785 -0.1058 -0.5398
 4248TIP3    H236940   3.876   4.457   7.441 -0.5325 -3.3425  0.2622
 4249TIP3   OH236941   6.341   3.626   9.197 -0.0451  0.1915 -0.2411
 4249TIP3    H136942   6.261   3.576   9.213  0.2303 -0.8234 -1.7576
 4249TIP3    H236943   6.310   3.712   9.167 -0.5993 -0.3554 -1.2930
 4250TIP3   OH236944   6.813   6.054   8.412 -0.4376  0.2236 -0.5288
 4250TIP3    H136945   6.821   6.115   8.485 -0.7190  0.2047 -0.4820
 4250TIP3    H236946   6.736   6.001   8.433 -0.4934  0.1870 -0.8162
 4251TIP3   OH236947   6.214   5.545   7.443 -0.2063  0.3903  0.1958
 4251TIP3    H136948   6.209   5.531   7.538 -0.5147 -1.9855 -0.1166
 4251TIP3    H236949   6.127   5.522   7.411  0.7723 -1.9732 -0.9705
 4252TIP3   OH236950   2.746   6.025   8.810 -0.0598 -0.0380  0.3070
 4252TIP3    H136951   2.760   6.072   8.892 -1.4437 -0.6754  0.9416
 4252TIP3    H236952   2.721   6.093   8.747 -0.1156  0.3244  0.7164
 4253TIP3   OH236953   0.679   7.247   9.674  0.0256 -0.5023  0.2568
 4253TIP3    H136954   0.602   7.255   9.731 -0.9772  1.3919 -1.2606
 4253TIP3    H236955   0.643   7.221   9.589  1.1801 -0.5630 -0.2302
 4254TIP3   OH236956   3.182   2.665   9.361  0.7022  0.4770 -0.0183
 4254TIP3    H136957   3.268   2.626   9.377  0.3479  0.1630  1.1940
 4254TIP3    H236958   3.186   2.693   9.270  2.0415  0.3517 -0.0220
 4255TIP3   OH236959   0.980   3.081   7.936  0.2900 -0.1014  0.7149
 4255TIP3    H136960   1.028   3.159   7.908 -0.3957  0.1490  0.1981
 4255TIP3    H236961   0.890   3.112   7.952  0.0994 -0.7102  0.8553
 4256TIP3   OH236962   1.633   1.200   8.145  0.2739  0.3998  0.1220
 4256TIP3    H136963   1.706   1.260   8.164  3.4504 -2.2014 -2.5279
 4256TIP3    H236964   1.671   1.113   8.157 -2.5802 -1.1117 -0.9876
 4257TIP3   OH236965   0.959   6.586   8.853  0.1791 -0.3207  0.6513
 4257TIP3    H136966   0.869   6.568   8.826  0.4033 -1.5069  0.6225
 4257TIP3    H236967   0.982   6.668   8.809  0.0257 -1.4121 -1.6076
 4258TIP3   OH236968   2.393   7.214   8.202 -0.0198  0.2977  0.7856
 4258TIP3    H136969   2.467   7.249   8.251  0.0888  0.2330  0.6674
 4258TIP3    H236970   2.409   7.120   8.196 -0.2650  0.2378  1.0202
 4259TIP3   OH236971   2.772   1.933   8.856 -0.5667 -0.4010 -0.3192
 4259TIP3    H136972   2.716   1.887   8.919  1.4539 -0.8914  1.2172
 4259TIP3    H236973   2.780   2.022   8.892  0.1133 -0.5150 -0.1690
 4260TIP3   OH236974   5.989   2.883   6.607  0.1247 -0.5378  0.0040
 4260TIP3    H136975   6.002   2.956   6.546 -0.3155 -1.4223 -1.1859
 4260TIP3    H236976   6.053   2.817   6.579 -0.5042 -1.1926  0.0948
 4261TIP3   OH236977   7.108   1.058   9.478 -0.0674  0.5519 -0.1020
 4261TIP3    H136978   7.065   1.026   9.399  0.3897  1.0890 -0.5828
 4261TIP3    H236979   7.086   0.995   9.546 -1.0374  0.4581 -0.4961
 4262TIP3   OH236980   6.828   7.345   7.522 -0.4122 -0.3114  0.0675
 4262TIP3    H136981   6.829   7.428   7.475 -1.3478  0.0058  0.5859
 4262TIP3    H236982   6.740   7.310   7.509 -1.0000  0.2026  2.2495
 4263TIP3   OH236983   1.142   1.593   7.629  0.2634 -0.2659  0.4002
 4263TIP3    H136984   1.125   1.666   7.688  0.5080 -1.0306  1.4653
 4263TIP3    H236985   1.235   1.574   7.641  0.1139 -1.0079  0.4774
 4264TIP3   OH236986   1.344   0.574   7.489  0.0230  0.3876  0.1851
 4264TIP3    H136987   1.403   0.616   7.426  0.1309  1.6886  1.1228
 4264TIP3    H236988   1.403   0.526   7.548 -0.0935 -1.0477 -0.8193
 4265TIP3   OH236989   3.032   3.841   9.381  0.1983 -0.5818 -0.0193
 4265TIP3    H136990   2.954   3.868   9.430  0.0561 -0.5665 -0.2551
 4265TIP3    H236991   3.000   3.818   9.294  0.4403 -0.6907 -0.0817
 4266TIP3   OH236992   0.029   0.894   9.134  0.0729 -0.0327 -0.4207
 4266TIP3    H136993  -0.059   0.873   9.101 -0.1461  1.2354 -0.7179
 4266TIP3    H236994   0.021   0.984   9.167  0.5263 -0.9071  2.2974
 4267TIP3   OH236995   5.220   1.086   8.366  0.0471 -0.2185  0.2626
 4267TIP3    H136996   5.225   1.137   8.447 -0.1649 -2.1774  1.5779
 4267TIP3    H236997   5.253   1.145   8.298  1.2322  1.1373  1.9283
 4268TIP3   OH236998   1.666   4.957   9.138 -0.1282  0.2575  0.5093
 4268TIP3    H136999   1.662   4.884   9.077 -3.1339 -0.5515  1.5022
 4268TIP3    H237000   1.653   5.035   9.084 -2.5235 -0.4241  0.0113
 4269TIP3   OH237001   2.119   3.989   8.605  0.0709 -0.3019 -0.0552
 4269TIP3    H137002   2.209   3.989   8.574  0.6091 -0.5576  1.4349
 4269TIP3    H237003   2.068   3.956   8.531  1.3450 -1.3421 -0.5107
 4270TIP3   OH237004   0.524   1.975   9.297  0.2791 -0.2848  0.1346
 4270TIP3    H137005   0.454   1.966   9.232 -0.4344  0.8823  0.7152
 4270TIP3    H237006   0.556   1.886   9.309 -0.2098 -0.6554 -1.1195
 4271TIP3   OH237007   1.929   3.746   8.159 -0.3231 -0.0864 -0.1958
 4271TIP3    H137008   1.892   3.661   8.183 -0.2833 -0.2240 -0.6112
 4271TIP3    H237009   1.895   3.763   8.072  1.2645 -0.6240 -0.9640
 4272TIP3   OH237010   0.324   1.116   9.035 -0.0837  0.2636 -0.2603
 4272TIP3    H137011   0.285   1.040   8.992 -0.0604  0.1147 -0.0224
 4272TIP3    H237012   0.337   1.088   9.126 -0.7122  0.7846 -0.0024
 4273TIP3   OH237013   4.327   6.959   9.462  0.1746  0.0936  0.3311
 4273TIP3    H137014   4.317   7.030   9.525 -1.4670 -1.4493  1.9365
 4273TIP3    H237015   4.420   6.934   9.468  1.0971  2.7511 -1.1438
 4274TIP3   OH237016   5.146   3.725   8.490 -0.0310 -0.0615  0.3501
 4274TIP3    H137017   5.142   3.629   8.497  0.8864 -0.0233  1.8642
 4274TIP3    H237018   5.063   3.750   8.451 -0.6515 -1.4121  0.7631
 4275TIP3   OH237019   2.880   2.627   7.537  0.0359 -0.1027  0.1835
 4275TIP3    H137020   2.816   2.584   7.480  0.9522 -1.6858  0.2851
 4275TIP3    H237021   2.965   2.592   7.509  0.5990 -0.2250  1.8887
 4276TIP3   OH237022   6.562   3.911   8.351 -0.8214  0.0798  0.0338
 4276TIP3    H137023   6.486   3.871   8.393 -0.8759 -0.8786 -0.9541
 4276TIP3    H237024   6.539   4.004   8.345 -2.0929 -0.2504 -0.6034
 4277TIP3   OH237025   4.413   3.640   7.095 -0.2027  0.2647 -0.3365
 4277TIP3    H137026   4.384   3.581   7.026 -1.0790 -0.3720  0.5517
 4277TIP3    H237027   4.483   3.692   7.054  0.3098 -1.0901 -1.2662
 4278TIP3   OH237028   6.098   1.315   9.181 -0.1673  0.7984  0.2419
 4278TIP3    H137029   6.035   1.387   9.184  0.2534  1.3176 -1.7484
 4278TIP3    H237030   6.093   1.282   9.091 -0.2872 -1.6454  1.0826
 4279TIP3   OH237031   2.876   5.248   8.373  0.3188  0.0627 -0.1887
 4279TIP3    H137032   2.935   5.213   8.440  0.3967  0.8716  0.1793
 4279TIP3    H237033   2.850   5.334   8.407 -2.1089 -0.7716  0.3133
 4280TIP3   OH237034   5.849   7.180   9.548 -0.1345  0.1274 -0.7039
 4280TIP3    H137035   5.776   7.217   9.499 -0.0008  0.1280 -0.9026
 4280TIP3    H237036   5.812   7.104   9.593 -0.7607  1.2734  0.8277
 4281TIP3   OH237037   7.506   5.678   7.064 -0.0302 -0.1382  0.2616
 4281TIP3    H137038   7.556   5.758   7.048  0.1358  0.0623  1.6158
 4281TIP3    H237039   7.507   5.631   6.981  0.5721  0.8793 -0.3235
 4282TIP3   OH237040   3.489   0.245   8.491 -0.4202  0.1488  0.5983
 4282TIP3    H137041   3.576   0.276   8.466 -0.5568  0.8170  0.9324
 4282TIP3    H237042   3.473   0.285   8.576 -0.3114 -1.4238  1.3922
 4283TIP3   OH237043   3.740   2.399   7.744  0.8453  0.3447  0.0312
 4283TIP3    H137044   3.738   2.480   7.693  0.0041 -0.0660 -0.6279
 4283TIP3    H237045   3.706   2.423   7.830  1.2661  0.8317  0.0631
 4284TIP3   OH237046   0.201   1.022   8.314 -0.0664 -0.0575  0.0368
 4284TIP3    H137047   0.204   0.959   8.386 -0.0308 -1.7910 -1.3952
 4284TIP3    H237048   0.283   1.010   8.267 -0.6393  0.0810 -1.0445
 4285TIP3   OH237049   4.706   6.450   8.889  0.3721  0.5204 -0.4763
 4285TIP3    H137050   4.674   6.536   8.916 -0.6294  0.9222 -2.6779
 4285TIP3    H237051   4.627   6.397   8.877  1.0056 -1.7840  3.6315
 4286TIP3   OH237052   5.410   1.353   7.721 -0.0013  0.4328  0.0339
 4286TIP3    H137053   5.453   1.277   7.680  0.6433  0.5491  0.4848
 4286TIP3    H237054   5.475   1.423   7.714 -0.2074  0.6716  0.5230
 4287TIP3   OH237055   2.380   0.674   7.898  0.3542  0.4624 -0.3127
 4287TIP3    H137056   2.315   0.742   7.886  0.0239  0.2429  0.1933
 4287TIP3    H237057   2.464   0.718   7.886  0.1191  0.7672 -0.8641
 4288TIP3   OH237058   3.329   2.191   8.997 -0.2096 -0.3642  0.2948
 4288TIP3    H137059   3.367   2.240   9.069  0.3616 -1.9990  1.1655
 4288TIP3    H237060   3.235   2.193   9.013 -0.1241 -0.2667  0.7856
 4289TIP3   OH237061   4.936   2.857   8.834  0.0099 -1.0878 -0.1464
 4289TIP3    H137062   5.032   2.851   8.826  0.0507 -2.0595  0.8330
 4289TIP3    H237063   4.918   2.827   8.923 -1.1591 -0.1941 -0.0700
 4290TIP3   OH237064   0.067   3.618   7.368  0.7427  0.3211 -0.1614
 4290TIP3    H137065   0.029   3.574   7.292  2.5422 -1.1233 -0.2981
 4290TIP3    H237066   0.014   3.589   7.442 -0.4140  0.9625 -0.7016
 4291TIP3   OH237067   6.508   6.066   9.896  0.0415 -0.1085 -0.1734
 4291TIP3    H137068   6.462   6.013   9.832 -1.8671  1.5905 -0.2983
 4291TIP3    H237069   6.535   6.004   9.964 -1.8768 -1.2782 -0.4221
 4292TIP3   OH237070   4.674   2.013   8.074 -0.0752  0.4892  0.5186
 4292TIP3    H137071   4.615   1.944   8.044 -0.6181  1.7019 -1.3640
 4292TIP3    H237072   4.717   2.044   7.994  1.5811  1.0337  1.5816
 4293TIP3   OH237073   0.667   3.032   8.511 -0.2338  0.0346 -0.1678
 4293TIP3    H137074   0.604   3.095   8.474 -0.5323 -0.0173  0.2334
 4293TIP3    H237075   0.615   2.981   8.573  0.7210  1.6850  2.1250
 4294TIP3   OH237076   5.902   6.160   7.888 -1.0943  0.7791  0.1452
 4294TIP3    H137077   5.864   6.216   7.821 -1.2496  0.6177  0.0964
 4294TIP3    H237078   5.967   6.108   7.842 -1.5089  0.3551  0.0259
 4295TIP3   OH237079   0.550   5.726   9.461 -0.4517  0.2923 -0.4424
 4295TIP3    H137080   0.580   5.702   9.373 -0.9634 -2.2140 -0.0286
 4295TIP3    H237081   0.459   5.754   9.449 -0.5166 -0.0325 -0.7184
 4296TIP3   OH237082   6.751   5.558   6.987 -0.1982  0.2391 -0.2446
 4296TIP3    H137083   6.688   5.630   6.974 -0.0192  0.8186  1.7504
 4296TIP3    H237084   6.836   5.598   6.973 -0.0307  0.7595  1.9081
 4297TIP3   OH237085   1.365   4.119   7.505 -0.1797 -0.0807 -0.4020
 4297TIP3    H137086   1.301   4.066   7.458 -0.5816  0.4393 -0.4452
 4297TIP3    H237087   1.419   4.055   7.552 -1.0676 -0.5089  0.0651
 4298TIP3   OH237088   6.047   4.276   7.788  0.5114 -0.4295  0.0411
 4298TIP3    H137089   6.123   4.240   7.833 -0.4660  0.3152  2.4567
 4298TIP3    H237090   6.082   4.315   7.708  2.3307 -1.8581  0.0718
 4299TIP3   OH237091   1.901   3.927   9.224  0.1759  0.0998 -0.1331
 4299TIP3    H137092   1.857   3.976   9.155  1.1244  1.7642  0.3852
 4299TIP3    H237093   1.870   3.837   9.214  0.3755  0.2655 -2.7697
 4300TIP3   OH237094   6.684   3.840   8.641  0.0818  0.3996 -0.2166
 4300TIP3    H137095   6.631   3.835   8.561  0.7102  0.3951 -0.6390
 4300TIP3    H237096   6.620   3.844   8.712 -0.4839  0.2947 -0.7135
 4301TIP3   OH237097   5.769   7.147   6.972 -0.2823  0.5571  0.0084
 4301TIP3    H137098   5.759   7.098   7.053  0.2200 -1.6485 -1.2012
 4301TIP3    H237099   5.680   7.154   6.937 -0.4496  1.1847  0.5371
 4302TIP3   OH237100   3.181   3.751   9.604 -0.5912  0.3503  0.1345
 4302TIP3    H137101   3.133   3.750   9.521 -2.7983  1.5518  1.2998
 4302TIP3    H237102   3.151   3.673   9.651 -0.2123  0.2766  0.2591
 4303TIP3   OH237103   6.934   5.401   9.149 -0.3833 -0.6304 -0.3489
 4303TIP3    H137104   7.017   5.386   9.196 -1.2116 -0.7637  1.1534
 4303TIP3    H237105   6.889   5.317   9.155 -0.6237 -0.5617 -1.1740
 4304TIP3   OH237106   1.110   1.031   8.076  0.8805 -0.3303 -0.3314
 4304TIP3    H137107   1.129   0.947   8.118  0.8424  0.1108  0.5993
 4304TIP3    H237108   1.015   1.040   8.081  0.8462 -0.4122 -0.7936
 4305TIP3   OH237109   3.087   6.240   9.438  0.1836 -0.1984 -0.3856
 4305TIP3    H137110   3.179   6.233   9.463  0.1369  0.8834  0.1145
 4305TIP3    H237111   3.081   6.322   9.389 -0.4062 -0.5525 -0.9318
 4306TIP3   OH237112   3.166   3.007   7.788 -0.1833  0.0446 -0.3111
 4306TIP3    H137113   3.127   3.073   7.844 -0.1673 -0.7330  0.6372
 4306TIP3    H237114   3.249   2.986   7.830 -0.0398 -0.3548 -0.7787
 4307TIP3   OH237115   5.732   0.072   8.198 -0.0580 -0.5612  0.0045
 4307TIP3    H137116   5.787   0.020   8.256  1.3012 -0.5644 -1.2249
 4307TIP3    H237117   5.655   0.018   8.183  0.8625 -1.7847 -0.4389
 4308TIP3   OH237118   3.835   0.975   7.832  0.1884  0.3110  0.4420
 4308TIP3    H137119   3.846   1.017   7.747 -0.1648  0.6368  0.5505
 4308TIP3    H237120   3.795   1.043   7.887  2.3098  0.7954  1.4697
 4309TIP3   OH237121   5.625   2.653   7.714 -0.3877 -0.5424  0.0359
 4309TIP3    H137122   5.650   2.682   7.801 -1.4604 -0.5725  0.3741
 4309TIP3    H237123   5.638   2.729   7.658 -0.4910 -0.2705  0.3815
 4310TIP3   OH237124   4.887   3.468   9.126  0.2399 -0.1716 -0.1741
 4310TIP3    H137125   4.896   3.555   9.087 -0.3960 -0.0809 -0.1318
 4310TIP3    H237126   4.899   3.482   9.220 -1.5523  0.1723  0.0471
 4311TIP3   OH237127   2.108   5.795   9.500 -0.0512 -0.3667  0.3014
 4311TIP3    H137128   2.023   5.831   9.525  1.6061  3.2221  1.5078
 4311TIP3    H237129   2.113   5.809   9.405 -0.1597  1.1296  0.4883
 4312TIP3   OH237130   6.422   5.819   9.424 -0.8411 -0.4943  0.3093
 4312TIP3    H137131   6.387   5.737   9.389 -0.4959  0.0045 -1.3060
 4312TIP3    H237132   6.509   5.827   9.384 -0.5968  0.3170  0.9771
 4313TIP3   OH237133   7.040   4.028   7.603 -0.1445  0.1963  0.7019
 4313TIP3    H137134   7.018   4.049   7.693 -1.3151 -0.0049  0.4787
 4313TIP3    H237135   6.956   4.022   7.558  0.1363 -3.2478  0.3808
 4314TIP3   OH237136   6.510   4.093   7.897 -0.1965  0.3887 -0.5561
 4314TIP3    H137137   6.540   4.004   7.916  0.1483  0.6315  0.0360
 4314TIP3    H237138   6.484   4.089   7.805 -0.3337 -0.3642 -0.4956
 4315TIP3   OH237139   4.020   4.178   7.794 -0.2860 -0.6742 -0.7776
 4315TIP3    H137140   3.935   4.209   7.826 -0.1776 -0.7002 -0.4646
 4315TIP3    H237141   4.016   4.083   7.805  0.1187 -0.5987  0.0523
 4316TIP3   OH237142   4.561   3.113   8.314  0.1884 -0.1529  0.3343
 4316TIP3    H137143   4.616   3.117   8.393  1.4766  4.0721 -0.4825
 4316TIP3    H237144   4.479   3.157   8.340 -0.6094 -1.4322  0.0571
 4317TIP3   OH237145   7.357   0.050   8.999  0.1838  0.4072 -0.2851
 4317TIP3    H137146   7.348   0.119   9.065  1.2101  0.6515 -0.3914
 4317TIP3    H237147   7.267   0.030   8.974 -0.4604 -1.5801  3.0960
 4318TIP3   OH237148   3.559   4.393   9.279 -0.4163  0.0211  0.2652
 4318TIP3    H137149   3.573   4.368   9.188 -1.6193  0.6056 -0.0892
 4318TIP3    H237150   3.508   4.320   9.316  0.6777 -0.5552  0.6775
 4319TIP3   OH237151   0.025   6.131   8.666 -0.0815  0.0023 -0.0472
 4319TIP3    H137152  -0.042   6.129   8.734 -0.8283 -0.8442 -0.7791
 4319TIP3    H237153   0.080   6.055   8.683  0.3479  0.3661  0.2066
 4320TIP3   OH237154   1.855   1.769   8.702  0.1932  0.1862  0.7606
 4320TIP3    H137155   1.783   1.812   8.747  0.6805  0.3303  1.4167
 4320TIP3    H237156   1.842   1.789   8.609 -0.4378  0.4554  0.9092
 4321TIP3   OH237157   0.303   5.383   7.147  0.8737 -0.2596 -0.3567
 4321TIP3    H137158   0.254   5.362   7.225 -0.0043 -1.4816 -1.2034
 4321TIP3    H237159   0.325   5.476   7.156  0.2973 -0.2452  1.0460
 4322TIP3   OH237160   6.129   3.702   7.886 -0.0563 -0.1163  0.5285
 4322TIP3    H137161   6.194   3.728   7.952  0.2870  0.1000  0.1120
 4322TIP3    H237162   6.070   3.777   7.879 -0.6104 -0.4711  1.2077
 4323TIP3   OH237163   6.977   2.062   8.902 -0.6998  0.0223  0.1304
 4323TIP3    H137164   7.030   2.140   8.919 -0.6650  0.0703 -0.1803
 4323TIP3    H237165   6.903   2.093   8.850 -0.6670 -0.1546 -0.0271
 4324TIP3   OH237166   2.447   3.691   8.416 -0.0341  0.0888  0.1370
 4324TIP3    H137167   2.357   3.719   8.431 -0.7950 -0.6366 -2.5675
 4324TIP3    H237168   2.458   3.613   8.471 -1.9041 -1.2117 -1.2127
 4325TIP3   OH237169   6.390   2.164   8.035 -0.0772 -0.3790  0.7351
 4325TIP3    H137170   6.316   2.166   7.975  1.2252 -0.0000 -0.9348
 4325TIP3    H237171   6.446   2.093   8.002  0.5819 -0.3008  1.6339
 4326TIP3   OH237172   3.549   4.910   8.910 -0.9930  0.5141  0.4138
 4326TIP3    H137173   3.494   4.833   8.894  0.0751  0.1083 -1.6421
 4326TIP3    H237174   3.549   4.920   9.005 -1.6560 -1.6479  0.6991
 4327TIP3   OH237175   0.898   7.221   8.971 -0.2631  0.1878  0.0877
 4327TIP3    H137176   0.921   7.226   9.063  0.3520 -0.0709 -0.0446
 4327TIP3    H237177   0.975   7.255   8.925  0.1223 -1.2716 -0.3996
 4328TIP3   OH237178   0.445   3.210   8.369  0.2136  0.4358  0.6128
 4328TIP3    H137179   0.354   3.210   8.340  0.5739  0.1393 -0.5853
 4328TIP3    H237180   0.496   3.219   8.289  1.2481  0.4830  1.2526
 4329TIP3   OH237181   4.500   0.139   8.654  0.4354 -0.1481 -0.4602
 4329TIP3    H137182   4.477   0.215   8.601 -1.5115  1.7202  2.7437
 4329TIP3    H237183   4.591   0.155   8.681  0.4825  0.3224 -0.8847
 4330TIP3   OH237184   2.037   1.977   7.897 -0.3011 -0.1705 -0.2091
 4330TIP3    H137185   1.986   1.991   7.817 -4.0593 -1.8016  1.6917
 4330TIP3    H237186   1.994   2.031   7.963  1.6154 -0.2537  1.1862
 4331TIP3   OH237187   3.004   3.301   9.795  0.8517  0.0684  0.5210
 4331TIP3    H137188   3.021   3.239   9.866  0.4194 -1.7721 -0.9085
 4331TIP3    H237189   2.987   3.246   9.718 -0.9511  1.9348 -0.5193
 4332TIP3   OH237190   3.206   5.621   7.258  0.7084  0.4868  0.2080
 4332TIP3    H137191   3.277   5.674   7.295 -0.0703  1.1464  0.8070
 4332TIP3    H237192   3.140   5.685   7.232  0.2278 -0.1327 -0.1181
 4333TIP3   OH237193   6.480   5.820   9.042 -0.3904 -0.0127  0.0100
 4333TIP3    H137194   6.524   5.821   9.127 -0.7354 -1.0571  0.2185
 4333TIP3    H237195   6.393   5.785   9.060 -0.3876 -0.4756 -0.8005
 4334TIP3   OH237196   1.561   3.174   8.230 -0.1265 -0.0280  0.1939
 4334TIP3    H137197   1.562   3.266   8.254  0.3992 -0.6550  2.9624
 4334TIP3    H237198   1.633   3.164   8.167 -1.1275  1.6438 -1.2919
 4335TIP3   OH237199   2.583   3.955   9.592 -0.5794  0.4697  0.0068
 4335TIP3    H137200   2.518   4.020   9.619 -1.1013 -0.3528  0.7577
 4335TIP3    H237201   2.555   3.930   9.504 -1.7462 -0.4286  0.6015
 4336TIP3   OH237202   5.574   5.070   8.288 -0.0705  0.4250  0.0609
 4336TIP3    H137203   5.531   5.136   8.343 -0.1231 -0.8759  1.6443
 4336TIP3    H237204   5.524   5.071   8.206 -0.4221  1.9363  0.2663
 4337TIP3   OH237205   0.840   3.986   7.579 -0.1530 -0.0084 -0.2425
 4337TIP3    H137206   0.792   3.908   7.605  0.6716 -0.5718 -0.3361
 4337TIP3    H237207   0.784   4.059   7.602 -0.0797 -0.5321  1.7620
 4338TIP3   OH237208   4.256   2.729   9.066  0.4838  0.3409  0.1648
 4338TIP3    H137209   4.264   2.650   9.012  0.7232  0.6097 -0.2040
 4338TIP3    H237210   4.327   2.722   9.130 -1.4282 -1.3135  2.2351
 4339TIP3   OH237211   3.316   4.150   7.295 -0.4134 -0.0504 -0.6882
 4339TIP3    H137212   3.305   4.195   7.212  0.3454  2.6484  0.5712
 4339TIP3    H237213   3.233   4.165   7.341  0.1477  0.7874  0.0629
 4340TIP3   OH237214   3.588   6.494   9.378 -0.1609 -0.5547 -0.0999
 4340TIP3    H137215   3.588   6.440   9.457 -1.2319 -0.3788  0.0333
 4340TIP3    H237216   3.667   6.548   9.385  1.1480 -2.3488 -0.4204
 4341TIP3   OH237217   1.442   7.220   7.798 -0.3500  0.6865  0.5770
 4341TIP3    H137218   1.522   7.268   7.776 -0.0986  1.7137  3.4552
 4341TIP3    H237219   1.413   7.184   7.714  1.8606  2.1814 -0.9410
 4342TIP3   OH237220   2.556   0.424   9.441 -0.3676  0.0078  0.2727
 4342TIP3    H137221   2.623   0.384   9.496  0.6636  1.1018 -0.1494
 4342TIP3    H237222   2.597   0.432   9.354 -1.3891 -0.1974 -0.2453
 4343TIP3   OH237223   4.555   3.964   9.268 -0.3037 -0.0871 -0.2086
 4343TIP3    H137224   4.546   3.877   9.308 -2.2401 -0.5626 -1.5152
 4343TIP3    H237225   4.466   3.987   9.242  0.3964  1.6466 -1.2204
 4344TIP3   OH237226   4.842   7.164   7.783  0.1283  0.5103  0.1011
 4344TIP3    H137227   4.816   7.176   7.874 -2.6336 -3.2835  0.0380
 4344TIP3    H237228   4.762   7.179   7.732  0.3334 -2.0375 -1.1469
 4345TIP3   OH237229   5.585   6.606   7.940 -0.1585 -0.0553  0.9563
 4345TIP3    H137230   5.600   6.640   7.851  1.5322 -1.3986  0.6919
 4345TIP3    H237231   5.591   6.683   7.996  2.0750  0.3768  0.2189
 4346TIP3   OH237232   6.795   3.769   7.193  0.0553  0.1114  0.5164
 4346TIP3    H137233   6.789   3.864   7.186 -2.9864 -0.1298 -2.2285
 4346TIP3    H237234   6.718   3.743   7.243 -0.3460 -0.9991 -0.6127
 4347TIP3   OH237235   0.673   1.387   7.267 -0.1944  0.4821 -0.2204
 4347TIP3    H137236   0.648   1.418   7.180 -1.2884 -0.4552 -0.2589
 4347TIP3    H237237   0.684   1.466   7.319 -0.0342  1.0307 -1.0713
 4348TIP3   OH237238   5.730   2.324   7.811 -0.2049 -0.2488  0.1844
 4348TIP3    H137239   5.634   2.320   7.806 -0.2259  1.2076 -1.4027
 4348TIP3    H237240   5.748   2.405   7.859  0.2541 -0.6839  0.7661
 4349TIP3   OH237241   5.274   7.525   7.809 -0.2503 -0.2492 -0.5432
 4349TIP3    H137242   5.268   7.598   7.871 -2.4401 -0.3465 -0.5526
 4349TIP3    H237243   5.226   7.556   7.732 -1.9885 -1.9518 -0.2212
 4350TIP3   OH237244   1.304   1.291   9.275 -0.1559 -0.4020 -0.2089
 4350TIP3    H137245   1.355   1.297   9.194 -1.5399 -1.3348 -1.1962
 4350TIP3    H237246   1.243   1.365   9.271  0.4887  0.1853  0.5310
 4351TIP3   OH237247   0.210   2.196   6.640  0.5191  0.6685 -0.5977
 4351TIP3    H137248   0.278   2.225   6.579  2.6110  2.8214  2.4556
 4351TIP3    H237249   0.253   2.129   6.693 -1.3945 -1.5025 -1.6640
 4352TIP3   OH237250   6.294   5.119   7.508  0.5576 -0.0388 -0.0425
 4352TIP3    H137251   6.272   5.026   7.500  0.0720 -0.0222  0.9222
 4352TIP3    H237252   6.254   5.159   7.431 -1.3368 -0.2929  0.7504
 4353TIP3   OH237253   3.184   0.542   7.863  0.0165 -0.2881  0.2178
 4353TIP3    H137254   3.218   0.616   7.913 -0.3264  0.1654 -0.2097
 4353TIP3    H237255   3.172   0.472   7.928 -0.7041  0.3892  0.8240
 4354TIP3   OH237256   3.300   6.554   8.789  0.0322  0.4221  0.0569
 4354TIP3    H137257   3.227   6.582   8.734 -0.8476  0.0617  0.9999
 4354TIP3    H237258   3.353   6.632   8.800 -0.8548  0.9991  0.3278
 4355TIP3   OH237259   7.157   2.270   7.626  0.5807 -0.0942  0.3631
 4355TIP3    H137260   7.250   2.249   7.620  0.6497  0.2931 -0.0136
 4355TIP3    H237261   7.116   2.189   7.656  0.8033 -0.8481 -1.2659
 4356TIP3   OH237262   1.328   4.260   8.490  0.8209 -0.4178  0.1930
 4356TIP3    H137263   1.341   4.350   8.518 -0.8639 -0.3617  0.9525
 4356TIP3    H237264   1.352   4.260   8.397  2.0794  0.4929  0.4981
 4357TIP3   OH237265   2.994   3.824   9.118 -0.2390 -0.3358 -1.3593
 4357TIP3    H137266   2.965   3.748   9.068 -0.1258 -1.3014 -0.0153
 4357TIP3    H237267   3.073   3.854   9.073  0.9005 -2.2938 -0.7507
 4358TIP3   OH237268   2.741   5.747   8.961  0.4073 -0.3107 -0.4390
 4358TIP3    H137269   2.721   5.840   8.970 -0.4733 -0.2541 -2.5809
 4358TIP3    H237270   2.665   5.710   8.917  0.0359 -2.4009  1.7194
 4359TIP3   OH237271   3.711   5.424   9.292  0.0525 -0.2089 -0.0708
 4359TIP3    H137272   3.644   5.491   9.283  0.4970  0.2727  0.1710
 4359TIP3    H237273   3.719   5.410   9.387  0.8669  0.3250 -0.0517
 4360TIP3   OH237274   3.217   3.130   8.709 -0.1670  0.1912  0.0404
 4360TIP3    H137275   3.214   3.180   8.627  0.4569 -0.0211 -0.1192
 4360TIP3    H237276   3.218   3.038   8.681 -2.5400  0.0059  0.3550
 4361TIP3   OH237277   4.155   7.420   8.424 -0.7181 -0.2002  0.2319
 4361TIP3    H137278   4.146   7.509   8.458 -1.3096 -0.1597 -0.0329
 4361TIP3    H237279   4.248   7.400   8.435 -0.6978  0.2188  0.8644
 4362TIP3   OH237280   2.025   2.540   7.979  0.2259  0.2989 -0.4314
 4362TIP3    H137281   1.971   2.467   7.949  0.4536 -0.2511  0.4595
 4362TIP3    H237282   2.107   2.530   7.930  0.6395 -0.6617  0.4202
 4363TIP3   OH237283   5.950   2.233   7.714  0.0594 -0.0863  0.0085
 4363TIP3    H137284   5.871   2.274   7.750  1.4601  1.5663  1.3436
 4363TIP3    H237285   5.964   2.156   7.768 -0.9042 -0.6787 -0.5649
 4364TIP3   OH237286   5.857   5.614   8.740  0.0055 -0.5975 -0.4450
 4364TIP3    H137287   5.793   5.658   8.796  0.2046 -0.5733 -0.2350
 4364TIP3    H237288   5.844   5.653   8.654  0.5037  0.2211 -0.1627
 4365TIP3   OH237289   4.353   2.097   8.395  0.4238 -0.0178  0.5197
 4365TIP3    H137290   4.435   2.051   8.375  1.1173  0.9781  1.0102
 4365TIP3    H237291   4.362   2.182   8.351 -0.5853 -0.0975  0.1306
 4366TIP3   OH237292   4.775   4.041   9.455  0.6735 -0.5728 -0.2712
 4366TIP3    H137293   4.772   3.949   9.482 -1.9032 -0.5569 -0.2306
 4366TIP3    H237294   4.750   4.089   9.534  0.8665  0.0776 -0.6014
 4367TIP3   OH237295   2.222   5.112   8.672  0.0141  0.1125 -0.0344
 4367TIP3    H137296   2.266   5.197   8.666 -0.3015  0.3960  1.3479
 4367TIP3    H237297   2.129   5.133   8.681  0.0534 -0.2805  1.7187
 4368TIP3   OH237298   0.091   6.883   7.685 -0.0846  0.5017 -0.2306
 4368TIP3    H137299   0.046   6.925   7.612 -1.1604 -0.2744 -0.0306
 4368TIP3    H237300   0.177   6.858   7.649 -0.8865 -0.5861 -1.4868
 4369TIP3   OH237301   1.183   1.849   7.433  0.0811  0.3444 -0.1840
 4369TIP3    H137302   1.127   1.773   7.447  0.0840  0.4238  0.2761
 4369TIP3    H237303   1.132   1.905   7.374  0.3617 -0.3067 -1.0600
 4370TIP3   OH237304   3.204   4.893   6.840 -0.2192  0.3902  0.7927
 4370TIP3    H137305   3.142   4.822   6.826  1.1319 -1.0612  1.8651
 4370TIP3    H237306   3.288   4.859   6.810  0.1660  2.2319 -0.4118
 4371TIP3   OH237307   3.060   2.831   7.373 -0.6080 -0.2817 -0.7464
 4371TIP3    H137308   3.098   2.745   7.358  1.0350  0.0438  1.1129
 4371TIP3    H237309   3.101   2.887   7.307  0.9603 -0.2915  0.1603
 4372TIP3   OH237310   5.024   3.882   8.802 -0.3471  0.0773  0.1540
 4372TIP3    H137311   5.114   3.852   8.793 -0.0058  1.2142 -0.3606
 4372TIP3    H237312   5.030   3.977   8.808 -1.3963  0.0994  1.6776
 4373TIP3   OH237313   4.116   3.408   8.632 -0.5525  0.1135  0.7162
 4373TIP3    H137314   4.128   3.414   8.727  3.6364  1.5362  0.3204
 4373TIP3    H237315   4.169   3.333   8.605 -1.1923  0.0862 -0.5797
 4374TIP3   OH237316   1.790   4.818   8.242 -0.3014 -0.0445  0.1904
 4374TIP3    H137317   1.720   4.854   8.296 -1.5188 -1.1546 -0.5723
 4374TIP3    H237318   1.792   4.725   8.265 -0.3334 -0.3806 -1.1197
 4375TIP3   OH237319   1.662   3.569   8.958 -0.2202  0.2687  0.0379
 4375TIP3    H137320   1.695   3.657   8.977  0.5069 -0.3882  2.0599
 4375TIP3    H237321   1.736   3.511   8.977 -0.7932 -0.8246 -0.9572
 4376TIP3   OH237322   6.528   0.204   9.315  0.7702  0.4696  0.0327
 4376TIP3    H137323   6.520   0.187   9.408  1.9488  1.0395  0.2668
 4376TIP3    H237324   6.497   0.294   9.305 -0.1082  0.1430 -0.2678
 4377TIP3   OH237325   6.533   6.569   7.317 -0.7391 -0.5741  0.0487
 4377TIP3    H137326   6.444   6.605   7.311 -0.3759  0.0886 -2.1660
 4377TIP3    H237327   6.582   6.635   7.365 -1.0987 -0.2491 -0.0243
 4378TIP3   OH237328   0.144   4.458   8.436 -0.0720  0.1814 -0.6880
 4378TIP3    H137329   0.230   4.418   8.424  1.1727  2.3013  0.5499
 4378TIP3    H237330   0.135   4.467   8.531 -0.8793  1.4881 -0.8596
 4379TIP3   OH237331   2.158   0.055   8.800  0.3430  0.3508 -0.5905
 4379TIP3    H137332   2.235   0.110   8.813  0.3816 -0.0541  1.1222
 4379TIP3    H237333   2.140   0.017   8.886 -1.0011 -0.5869 -1.2365
 4380TIP3   OH237334   7.563   3.559   8.592 -0.2367 -0.1577 -0.6517
 4380TIP3    H137335   7.640   3.529   8.640 -0.9415  1.6505  1.8578
 4380TIP3    H237336   7.490   3.511   8.632 -0.5904 -0.8588 -2.0744
 4381TIP3   OH237337   0.716   2.035   7.581 -0.1021 -0.5230  0.2179
 4381TIP3    H137338   0.801   2.077   7.591 -0.3675  0.1581 -0.3363
 4381TIP3    H237339   0.707   2.019   7.487 -0.3651 -1.0668  0.3284
 4382TIP3   OH237340   4.234   4.405   9.391 -0.5192 -0.1304  0.8179
 4382TIP3    H137341   4.291   4.396   9.468  1.0623 -1.7802 -0.4479
 4382TIP3    H237342   4.293   4.394   9.316 -2.0191  1.2755 -0.6755
 4383TIP3   OH237343   5.194   2.865   8.025 -0.3321 -0.2874 -0.1135
 4383TIP3    H137344   5.203   2.897   8.115  0.8033 -1.2069  0.1227
 4383TIP3    H237345   5.201   2.770   8.033 -1.4418 -0.4572 -1.0482
 4384TIP3   OH237346   7.155   1.662   8.823  0.0219 -0.6205  0.7166
 4384TIP3    H137347   7.223   1.647   8.757 -0.1665 -0.7130  0.5435
 4384TIP3    H237348   7.074   1.630   8.782 -0.2115 -0.0597  0.7371
 4385TIP3   OH237349   6.113   3.006   8.422 -0.3829 -0.0457 -0.0757
 4385TIP3    H137350   6.159   3.086   8.448 -0.5479 -0.1282  0.4777
 4385TIP3    H237351   6.035   3.004   8.477 -0.9265 -0.0466 -0.8176
 4386TIP3   OH237352   2.813   1.049   7.918 -0.0392  0.1498  0.2501
 4386TIP3    H137353   2.782   1.010   8.000  0.8249  0.4063  0.7111
 4386TIP3    H237354   2.752   1.120   7.900  1.4373  2.0600  2.2923
 4387TIP3   OH237355   5.069   1.085   8.136 -0.4594  0.4909 -0.1072
 4387TIP3    H137356   5.018   1.040   8.069 -0.8466 -1.1384  1.2353
 4387TIP3    H237357   5.107   1.015   8.189  0.8689  1.7213  0.6299
 4388TIP3   OH237358   6.877   3.164   8.205  0.1550  0.2212  0.6715
 4388TIP3    H137359   6.841   3.086   8.162 -0.1221 -0.3305  1.8576
 4388TIP3    H237360   6.817   3.180   8.278  0.5370  1.2144  0.7801
 4389TIP3   OH237361   7.056   4.324   7.488 -0.4489  0.2821 -0.1685
 4389TIP3    H137362   7.139   4.293   7.451 -1.2797 -0.5488 -1.4018
 4389TIP3    H237363   7.026   4.252   7.544 -0.2484  0.6737  0.4589
 4390TIP3   OH237364   6.921   5.963   8.883 -0.1514  0.2647  0.0313
 4390TIP3    H137365   6.853   6.010   8.835  0.5894  0.8393 -0.4663
 4390TIP3    H237366   7.000   6.016   8.872  0.8281 -1.3329 -0.9551
 4391TIP3   OH237367   0.079   2.566   8.042  0.5300  0.0463  0.0989
 4391TIP3    H137368   0.145   2.631   8.066 -1.2612  2.0099  0.0180
 4391TIP3    H237369   0.036   2.544   8.125  0.3140 -0.0964 -0.0504
 4392TIP3   OH237370   0.077   7.564   9.104 -0.2173  0.0195  0.1812
 4392TIP3    H137371   0.152   7.593   9.051 -0.5431  2.4944  0.9080
 4392TIP3    H237372   0.002   7.570   9.045 -0.3985  1.5848  0.5191
 4393TIP3   OH237373   5.164   0.310   7.687 -0.4427  0.5133  0.9204
 4393TIP3    H137374   5.103   0.248   7.726 -0.5783  0.1262  0.1092
 4393TIP3    H237375   5.117   0.345   7.610 -0.5807  2.0126  1.6435
 4394TIP3   OH237376   2.776   6.651   7.538  0.1824 -0.0486  0.5996
 4394TIP3    H137377   2.842   6.583   7.552 -0.1160 -0.2562  1.0312
 4394TIP3    H237378   2.778   6.668   7.444 -0.3985 -1.3372  0.3377
 4395TIP3   OH237379   6.413   6.681   7.051 -0.5442  0.1256 -0.6695
 4395TIP3    H137380   6.353   6.624   7.002 -2.2868  0.1796  1.2608
 4395TIP3    H237381   6.366   6.701   7.132  1.2737  1.8858  0.0294
 4396TIP3   OH237382   2.977   3.386   8.989  0.0009 -0.1209  0.2593
 4396TIP3    H137383   2.950   3.476   8.971  0.1743  0.0374  0.7763
 4396TIP3    H237384   2.895   3.341   9.010 -0.3038 -0.4659 -1.4664
 4397TIP3   OH237385   6.104   1.853   7.655  0.0082  0.2160 -0.6473
 4397TIP3    H137386   6.131   1.871   7.565  0.8676  0.0405 -0.4370
 4397TIP3    H237387   6.186   1.848   7.704 -0.4829  2.0567  0.4893
 4398TIP3   OH237388   1.050   3.641   8.851 -0.4696 -0.3893 -0.7290
 4398TIP3    H137389   0.967   3.663   8.893 -1.2067 -3.1252 -0.5655
 4398TIP3    H237390   1.107   3.611   8.922  0.4385  0.8074 -0.9322
 4399TIP3   OH237391   1.711   5.505   7.875  0.3420  0.0987 -0.0902
 4399TIP3    H137392   1.720   5.432   7.813 -2.0462 -0.4920  0.1550
 4399TIP3    H237393   1.767   5.481   7.949  2.0288  0.0702 -1.3188
 4400TIP3   OH237394   2.721   7.294   8.685 -0.2967  0.6431  0.4649
 4400TIP3    H137395   2.630   7.307   8.657 -0.4734 -2.1166 -0.6230
 4400TIP3    H237396   2.771   7.358   8.634 -1.5166  1.5425  0.3358
 4401TIP3   OH237397   4.954   6.416   7.134 -0.6084  0.0779  0.5253
 4401TIP3    H137398   5.042   6.389   7.109 -0.8632  0.6348 -1.0709
 4401TIP3    H237399   4.950   6.509   7.111 -1.0888  0.4790  2.1053
 4402TIP3   OH237400   1.256   1.944   8.102  0.0663 -0.4894  0.8616
 4402TIP3    H137401   1.247   1.850   8.084 -0.0393 -0.3951  0.4097
 4402TIP3    H237402   1.325   1.973   8.042  0.3757 -0.3553  1.2824
 4403TIP3   OH237403   6.715   7.151   8.092 -0.3586 -0.4213  0.5047
 4403TIP3    H137404   6.771   7.225   8.067 -0.1101 -0.9946 -0.7460
 4403TIP3    H237405   6.771   7.074   8.080 -0.5102 -0.8017  2.1073
 4404TIP3   OH237406   1.971   2.224   6.892  0.1372 -0.0888  0.1693
 4404TIP3    H137407   1.988   2.180   6.809  1.4041  0.1908  0.2602
 4404TIP3    H237408   1.973   2.317   6.871 -0.1431 -0.0259  0.4096
 4405TIP3   OH237409   7.107   0.019   9.389 -0.0724 -0.0663 -0.5478
 4405TIP3    H137410   7.183   0.011   9.332  0.5982  2.3347 -0.1219
 4405TIP3    H237411   7.036   0.047   9.331 -0.0504 -0.1356 -0.6081
 4406TIP3   OH237412   2.678   2.489   9.014 -0.2291 -0.3477 -0.6102
 4406TIP3    H137413   2.728   2.563   8.981  3.1807 -0.9975  2.4822
 4406TIP3    H237414   2.590   2.524   9.028  0.2895  2.0317 -2.6279
 4407TIP3   OH237415   0.094   7.498   8.195 -0.6762  0.5820 -0.0554
 4407TIP3    H137416   0.065   7.525   8.282 -1.6840 -0.8140  0.0638
 4407TIP3    H237417   0.076   7.404   8.191  0.9186  0.2791 -1.1591
 4408TIP3   OH237418   2.652   4.647   7.641  0.1779 -0.4298  0.0428
 4408TIP3    H137419   2.727   4.625   7.696  0.3802 -0.2757 -0.1713
 4408TIP3    H237420   2.685   4.643   7.552 -0.3324 -1.3639 -0.1096
 4409TIP3   OH237421   6.042   3.198   9.448  0.1159  0.0346  0.0740
 4409TIP3    H137422   6.109   3.249   9.492 -0.4901 -0.4818  1.6815
 4409TIP3    H237423   5.976   3.262   9.421  0.4093  0.3358  0.0707
 4410TIP3   OH237424   7.152   3.566   8.647 -0.0135 -0.2570 -0.2233
 4410TIP3    H137425   7.185   3.613   8.724  0.7745 -1.3490  0.1405
 4410TIP3    H237426   7.096   3.629   8.602  0.4272  0.7749  0.6284
 4411TIP3   OH237427   2.772   4.250   7.366 -0.4523  0.2047 -0.0092
 4411TIP3    H137428   2.719   4.171   7.371  1.8694 -1.5858 -1.3235
 4411TIP3    H237429   2.822   4.240   7.284 -0.6222  3.4306 -0.6422
 4412TIP3   OH237430   7.479   4.673   8.674 -0.4203  0.3803 -0.2714
 4412TIP3    H137431   7.431   4.625   8.607  1.0888  0.7048 -1.6500
 4412TIP3    H237432   7.478   4.764   8.644 -0.8321  0.7625  0.8456
 4413TIP3   OH237433   1.977   6.330   9.678  0.1068  0.1292 -0.4207
 4413TIP3    H137434   2.035   6.297   9.609  1.1510  0.4218  0.3009
 4413TIP3    H237435   1.890   6.297   9.654  0.7639 -1.3647 -0.8448
 4414TIP3   OH237436   4.763   6.381   9.510 -0.0896  0.1398 -0.0357
 4414TIP3    H137437   4.833   6.330   9.470  0.5542  1.1957 -0.2939
 4414TIP3    H237438   4.807   6.459   9.545 -0.8372 -0.1085  1.5577
 4415TIP3   OH237439   4.415   2.036   7.912 -0.1802  0.4271  0.6108
 4415TIP3    H137440   4.326   2.050   7.944 -0.2593 -0.3747  0.7728
 4415TIP3    H237441   4.405   2.019   7.818 -0.0913  1.3289  0.4289
 4416TIP3   OH237442   1.733   6.645   9.303 -0.5913  0.0761 -0.7518
 4416TIP3    H137443   1.802   6.702   9.337 -0.7794  0.6582 -1.3211
 4416TIP3    H237444   1.757   6.558   9.333 -0.6875  0.5471  0.7732
 4417TIP3   OH237445   1.577   4.829   9.357  0.1702 -0.5995 -0.1376
 4417TIP3    H137446   1.586   4.851   9.265 -0.5301  0.0798 -0.0544
 4417TIP3    H237447   1.490   4.861   9.381 -0.4503 -2.4632  0.2826
 4418TIP3   OH237448   6.488   1.100   9.275  0.0079 -0.0095  0.0674
 4418TIP3    H137449   6.526   1.060   9.353  0.4567  0.9272  0.3362
 4418TIP3    H237450   6.399   1.064   9.270 -0.0740  0.0429  1.0838
 4419TIP3   OH237451   1.909   4.084   8.848 -0.6771 -0.6992 -0.0055
 4419TIP3    H137452   1.896   4.052   8.937 -0.0029 -2.7323 -0.5707
 4419TIP3    H237453   1.878   4.174   8.850 -0.6002 -0.6573  2.2994
 4420TIP3   OH237454   6.880   6.904   9.140 -0.4061  0.2679 -0.3988
 4420TIP3    H137455   6.805   6.878   9.194 -0.1136 -0.6915 -0.4487
 4420TIP3    H237456   6.906   6.989   9.175 -0.9525  0.1931  0.2065
 4421TIP3   OH237457   3.771   3.788   8.835  0.3798  0.4928 -0.4272
 4421TIP3    H137458   3.768   3.801   8.930 -0.2207 -1.2089 -0.1788
 4421TIP3    H237459   3.758   3.876   8.798 -2.7346  0.7966  1.0609
 4422TIP3   OH237460   6.202   6.246   7.797  0.1088  0.0870 -0.2208
 4422TIP3    H137461   6.250   6.236   7.715 -0.2231  0.2234 -0.4332
 4422TIP3    H237462   6.267   6.230   7.865  0.3394 -0.2352 -0.5118
 4423TIP3   OH237463   0.747   6.977   7.884  0.1919 -0.3016 -0.0855
 4423TIP3    H137464   0.689   6.929   7.824  0.0486 -0.2155 -0.0184
 4423TIP3    H237465   0.821   6.919   7.899  2.2249  1.1292 -3.4380
 4424TIP3   OH237466   5.662   3.129   7.525 -0.6713 -0.2027 -0.5112
 4424TIP3    H137467   5.609   3.086   7.458  0.5308 -0.2832 -1.4608
 4424TIP3    H237468   5.692   3.058   7.581  1.1330 -0.6641 -1.9495
 4425TIP3   OH237469   6.928   2.597   8.759 -0.1684  0.4518 -0.3309
 4425TIP3    H137470   6.844   2.597   8.805  0.0787 -0.7390  0.1395
 4425TIP3    H237471   6.993   2.613   8.828  0.0420  0.8042 -0.6067
 4426TIP3   OH237472   5.778   2.204   6.942 -0.3088  0.1448 -0.2512
 4426TIP3    H137473   5.852   2.206   6.881 -0.4006  1.3622 -0.3487
 4426TIP3    H237474   5.700   2.198   6.886 -0.2995 -1.4393 -0.1402
 4427TIP3   OH237475   4.952   6.496   9.146 -0.3601 -0.0246 -0.0337
 4427TIP3    H137476   4.892   6.427   9.119  0.3757 -0.4456 -0.6215
 4427TIP3    H237477   4.902   6.547   9.210 -1.5940  0.0452 -1.0018
 4428TIP3   OH237478   3.062   0.402   6.970  0.2672  0.3789  0.1144
 4428TIP3    H137479   2.993   0.460   6.938 -0.0391  0.1986  0.4436
 4428TIP3    H237480   3.120   0.391   6.894 -1.1845 -1.1484 -0.8511
 4429TIP3   OH237481   3.184   2.357   9.380 -0.0974 -0.6224 -0.0631
 4429TIP3    H137482   3.231   2.275   9.366  1.0166  0.2246 -1.5257
 4429TIP3    H237483   3.144   2.376   9.295  0.6142  0.9113 -0.0817
 4430TIP3   OH237484   3.870   5.545   7.607 -0.1222  0.1259  0.2757
 4430TIP3    H137485   3.888   5.551   7.513 -2.5441 -0.4363 -0.2812
 4430TIP3    H237486   3.922   5.615   7.646  0.0412  1.1230 -1.6257
 4431TIP3   OH237487   4.145   3.673   9.058  0.2376  0.4564  0.3079
 4431TIP3    H137488   4.125   3.760   9.092  2.5627  0.9011  0.6777
 4431TIP3    H237489   4.095   3.613   9.114 -1.4495  1.5073  0.0049
 4432TIP3   OH237490   2.480   4.843   8.547 -0.1408  0.0964  0.4004
 4432TIP3    H137491   2.530   4.813   8.472 -0.7671 -0.6739  0.2851
 4432TIP3    H237492   2.483   4.771   8.609  1.1490  1.0631  1.5243
 4433TIP3   OH237493   2.532   5.920   8.078 -0.5437 -0.3303 -0.6186
 4433TIP3    H137494   2.479   5.847   8.109 -0.6608  0.7963  2.1594
 4433TIP3    H237495   2.472   5.995   8.078  0.0429  0.1604 -1.5405
 4434TIP3   OH237496   2.460   2.659   7.268 -0.6792 -0.1765  0.2843
 4434TIP3    H137497   2.426   2.583   7.315  0.4620  0.4198  2.1441
 4434TIP3    H237498   2.389   2.683   7.208 -1.5350 -1.9475  0.5119
 4435TIP3   OH237499   0.715   0.255   9.510  0.7187  0.4145 -0.1047
 4435TIP3    H137500   0.628   0.293   9.526  0.3439  0.3384 -1.8405
 4435TIP3    H237501   0.700   0.188   9.443  2.1044  0.3164 -0.3377
 4436TIP3   OH237502   4.221   4.306   7.656  0.1440  0.1248 -0.2013
 4436TIP3    H137503   4.183   4.389   7.628 -0.0524  0.4365  0.9328
 4436TIP3    H237504   4.149   4.259   7.698  0.6896  0.2200  0.8917
 4437TIP3   OH237505   1.556   4.685   7.924  0.4054  0.4713 -0.4508
 4437TIP3    H137506   1.601   4.769   7.931 -0.1476  0.9125 -1.8421
 4437TIP3    H237507   1.607   4.626   7.980  1.1978  1.5627  0.0148
 4438TIP3   OH237508   4.047   5.079   7.621 -0.0164  0.2256  0.0778
 4438TIP3    H137509   3.968   5.116   7.581  0.5969  0.7105 -0.6974
 4438TIP3    H237510   4.116   5.096   7.558  0.6307 -0.6175  0.5382
 4439TIP3   OH237511   0.087   0.503   6.899 -0.0300  0.6452 -0.6002
 4439TIP3    H137512   0.054   0.586   6.864 -0.1998  0.4461 -0.9123
 4439TIP3    H237513   0.010   0.459   6.934  0.0992  0.7291 -0.2026
 4440TIP3   OH237514   7.074   4.390   9.083 -0.2520 -0.4152 -0.0047
 4440TIP3    H137515   7.150   4.448   9.084  0.4317 -1.1838 -1.7700
 4440TIP3    H237516   7.109   4.306   9.114 -0.5403 -0.5904 -0.1533
 4441TIP3   OH237517   1.248   4.897   8.383 -0.1082 -0.0733  0.0137
 4441TIP3    H137518   1.173   4.945   8.419 -0.9829 -1.6871  0.4247
 4441TIP3    H237519   1.319   4.961   8.383 -1.5452  1.6179 -0.7245
 4442TIP3   OH237520   6.797   6.505   8.479 -0.2679  0.1085  0.2570
 4442TIP3    H137521   6.715   6.461   8.502  0.4121 -1.7227 -0.6143
 4442TIP3    H237522   6.847   6.507   8.561 -1.3436  1.7426  0.9317
 4443TIP3   OH237523   1.023   6.152   7.432  0.6676 -0.0664 -0.5646
 4443TIP3    H137524   1.077   6.190   7.363  1.6653  0.3391  0.4015
 4443TIP3    H237525   1.081   6.147   7.508 -1.0546  1.9268  1.0194
 4444TIP3   OH237526   2.133   7.464   7.814 -0.1284  0.1239  0.0344
 4444TIP3    H137527   2.051   7.454   7.863 -0.1724  0.3005  0.0004
 4444TIP3    H237528   2.202   7.442   7.877 -0.1785  0.4504  0.2111
 4445TIP3   OH237529   1.520   0.457   7.915 -0.0665 -0.7384 -0.0577
 4445TIP3    H137530   1.587   0.390   7.923  0.7495  0.2744  2.5218
 4445TIP3    H237531   1.485   0.467   8.004 -1.4448  0.9374 -0.7289
 4446TIP3   OH237532   1.042   5.096   8.444  0.1072 -0.2233 -0.1766
 4446TIP3    H137533   1.023   5.187   8.420  0.9160  0.3549  1.2538
 4446TIP3    H237534   1.027   5.093   8.539  0.6715 -1.4265 -0.1127
 4447TIP3   OH237535   5.414   0.623   9.470  0.0026 -0.4369 -0.2504
 4447TIP3    H137536   5.508   0.607   9.468  0.4763  1.9964  0.0455
 4447TIP3    H237537   5.399   0.672   9.551 -1.5860 -1.0729 -0.1124
 4448TIP3   OH237538   6.353   4.122   7.174 -0.0156  0.0871  0.1477
 4448TIP3    H137539   6.389   4.211   7.172  0.6425 -0.1879 -0.6814
 4448TIP3    H237540   6.305   4.114   7.092  0.1518 -0.4043  0.0934
 4449TIP3   OH237541   5.137   1.098   6.786 -0.2825  0.6472  0.9003
 4449TIP3    H137542   5.136   1.182   6.832  1.3106  0.0826  2.0597
 4449TIP3    H237543   5.046   1.068   6.788 -1.2105  3.0538 -0.9715
 4450TIP3   OH237544   2.474   0.368   9.052  0.1817 -0.3788 -0.4053
 4450TIP3    H137545   2.408   0.409   9.107 -0.1391 -1.1509 -0.2017
 4450TIP3    H237546   2.550   0.357   9.109  0.3548  0.1432 -0.5284
 4451TIP3   OH237547   6.079   7.539   7.676 -0.2457  0.0329  0.1324
 4451TIP3    H137548   6.057   7.555   7.585  0.2086 -1.3440 -0.2429
 4451TIP3    H237549   5.995   7.518   7.718 -0.5087  1.0529  0.1329
 4452TIP3   OH237550   1.810   1.423   7.894  0.2687 -0.1010 -0.2651
 4452TIP3    H137551   1.771   1.343   7.861 -1.9218  0.0475  1.7107
 4452TIP3    H237552   1.824   1.407   7.987  0.4699  1.5413  0.0263
 4453TIP3   OH237553   2.204   2.092   6.824 -0.5391  0.2300  0.1363
 4453TIP3    H137554   2.203   2.185   6.798 -1.8735  0.7981  2.0238
 4453TIP3    H237555   2.130   2.054   6.778 -0.0376  0.0938 -0.5786
 4454TIP3   OH237556   5.012   1.874   7.112 -0.6652 -0.3674 -0.3184
 4454TIP3    H137557   5.072   1.947   7.125 -2.4462  0.8039  1.9975
 4454TIP3    H237558   4.978   1.887   7.023 -1.4911  2.1124  0.2839
 4455TIP3   OH237559   2.553   4.256   8.585  0.6909  0.0486  0.1960
 4455TIP3    H137560   2.520   4.296   8.665  0.3688 -0.5058  0.3451
 4455TIP3    H237561   2.483   4.269   8.521 -0.1312 -1.7004  0.6880
 4456TIP3   OH237562   7.402   0.073   7.042  0.1481 -0.2464 -0.1645
 4456TIP3    H137563   7.325   0.017   7.027 -1.1872  1.5175 -0.1920
 4456TIP3    H237564   7.473   0.011   7.058 -0.6737 -2.0217 -2.7063
 4457TIP3   OH237565   2.638   7.027   7.375  0.0256  0.2729  0.4160
 4457TIP3    H137566   2.588   7.084   7.434  1.4971  1.6907  0.3852
 4457TIP3    H237567   2.699   7.086   7.332  2.2102 -1.4376  0.9878
 4458TIP3   OH237568   7.567   2.754   9.835  0.4913  0.1378 -0.3140
 4458TIP3    H137569   7.584   2.813   9.762  0.4688  0.1714 -0.2915
 4458TIP3    H237570   7.576   2.807   9.913  0.9353  0.0026 -0.2723
 4459TIP3   OH237571   4.583   3.450   7.565  1.3230  0.3262 -0.1516
 4459TIP3    H137572   4.659   3.472   7.620  1.5684 -2.2673  0.7031
 4459TIP3    H237573   4.549   3.534   7.536  2.6417  1.7198  2.0453
 4460TIP3   OH237574   6.582   2.862   7.237 -0.2986  0.6416  0.0723
 4460TIP3    H137575   6.493   2.867   7.203 -0.3197  0.2785  0.0697
 4460TIP3    H237576   6.571   2.831   7.327 -0.1817  0.6813  0.1002
 4461TIP3   OH237577   6.105   3.778   7.202  0.1307 -0.6880 -0.0543
 4461TIP3    H137578   6.197   3.802   7.215 -0.3345  1.0616  0.3450
 4461TIP3    H237579   6.101   3.747   7.112  1.1542 -1.0535  0.0077
 4462TIP3   OH237580   2.256   0.175   7.815  0.0925  0.7452  0.5965
 4462TIP3    H137581   2.265   0.158   7.909 -0.0351 -2.0174  0.1943
 4462TIP3    H237582   2.218   0.262   7.810 -0.8783  0.5643  3.1596
 4463TIP3   OH237583   3.411   5.231   7.933 -0.1761  0.2175 -0.0746
 4463TIP3    H137584   3.335   5.180   7.906  0.1422 -0.7793  0.8237
 4463TIP3    H237585   3.427   5.203   8.023  1.7773 -0.2841 -0.5292
 4464TIP3   OH237586   6.866   4.506   8.765  0.3986 -0.3333 -0.4449
 4464TIP3    H137587   6.837   4.485   8.854  1.7279  1.4435  0.4798
 4464TIP3    H237588   6.787   4.537   8.721 -0.1735 -0.7266  0.2794
 4465TIP3   OH237589   7.072   7.463   8.015 -0.8887  0.0830  0.1007
 4465TIP3    H137590   7.054   7.415   7.934 -0.3981  1.7620 -1.0729
 4465TIP3    H237591   7.149   7.516   7.994  0.1976 -0.5684  2.1885
 4466TIP3   OH237592   5.196   5.492   8.471 -0.0895  0.6271  0.3126
 4466TIP3    H137593   5.224   5.576   8.435  0.8623 -0.5097 -1.7996
 4466TIP3    H237594   5.122   5.513   8.527 -0.3741  2.7782 -0.7829
 4467TIP3   OH237595   3.545   6.702   6.645 -0.3242 -0.4714 -0.5327
 4467TIP3    H137596   3.473   6.764   6.659  1.7030  1.9548 -0.1986
 4467TIP3    H237597   3.562   6.706   6.551 -0.1834 -0.5151 -0.5094
 4468TIP3   OH237598   1.828   6.400   9.348 -0.1455  0.6454 -0.2400
 4468TIP3    H137599   1.907   6.370   9.304 -0.9292  0.6564 -1.7006
 4468TIP3    H237600   1.855   6.412   9.439  0.5100 -3.5319  0.3513
 4469TIP3   OH237601   4.080   1.626   8.472  0.0602  0.2625  0.2969
 4469TIP3    H137602   4.095   1.720   8.461 -1.4329  0.2266 -3.3695
 4469TIP3    H237603   4.158   1.585   8.435 -0.0989  0.0716  0.1725
 4470TIP3   OH237604   5.434   3.693   7.993  0.2569 -0.5636  0.7327
 4470TIP3    H137605   5.474   3.762   7.940 -0.8352  0.0208  0.6574
 4470TIP3    H237606   5.457   3.612   7.947  1.3205 -0.2486  0.6814
 4471TIP3   OH237607   4.210   1.643   9.551  0.1677 -0.5737 -0.2932
 4471TIP3    H137608   4.134   1.648   9.609  0.9221 -1.6580  0.8238
 4471TIP3    H237609   4.177   1.673   9.466 -0.9622  1.0193  0.6595
 4472TIP3   OH237610   7.054   2.715   6.787  0.5579  0.3227 -0.3633
 4472TIP3    H137611   7.015   2.644   6.737  0.0374 -0.3593  0.9473
 4472TIP3    H237612   6.980   2.759   6.829  0.8479  1.8460 -1.3898
 4473TIP3   OH237613   5.499   5.544   7.322 -0.4428  0.3786  0.1424
 4473TIP3    H137614   5.586   5.504   7.317 -0.2271  0.4391  2.3980
 4473TIP3    H237615   5.502   5.614   7.256  0.5044 -0.8255 -1.1717
 4474TIP3   OH237616   1.743   2.028   9.103  0.0276 -0.4520  0.0745
 4474TIP3    H137617   1.808   2.038   9.034  0.7117 -0.0556  0.7710
 4474TIP3    H237618   1.770   2.089   9.171 -1.0224 -0.3487  0.4142
 4475TIP3   OH237619   0.649   1.977   7.030  0.4231  0.5108 -0.3745
 4475TIP3    H137620   0.578   1.959   6.967  0.9005 -0.2032 -0.7228
 4475TIP3    H237621   0.653   1.899   7.085 -0.2930  1.3149  0.8697
 4476TIP3   OH237622   0.762   4.027   9.509  0.7356 -0.3010 -0.2903
 4476TIP3    H137623   0.853   4.054   9.520  0.2189  1.4460 -0.0741
 4476TIP3    H237624   0.712   4.085   9.566 -0.6716 -0.1681 -1.5872
 4477TIP3   OH237625   5.339   6.518   8.347  0.2462  0.3074 -0.2973
 4477TIP3    H137626   5.371   6.543   8.433  0.5169  0.1863 -0.3625
 4477TIP3    H237627   5.245   6.502   8.360  0.4072 -0.3292  0.1154
 4478TIP3   OH237628   6.299   0.731   9.270 -0.3952  0.5527 -0.4831
 4478TIP3    H137629   6.390   0.746   9.296  0.3883 -1.3840 -1.8480
 4478TIP3    H237630   6.262   0.819   9.262  1.3118  1.3975  0.2039
 4479TIP3   OH237631   1.015   6.288   8.252  0.1540  0.0672  0.4510
 4479TIP3    H137632   0.949   6.257   8.190 -1.3201  0.8579  1.5401
 4479TIP3    H237633   1.020   6.219   8.318  0.5521 -0.0767  0.2682
 4480TIP3   OH237634   6.694   6.034   7.656  0.2004  0.0858 -0.7479
 4480TIP3    H137635   6.715   5.959   7.711  0.5056 -0.5407 -1.6959
 4480TIP3    H237636   6.609   6.065   7.689  0.3495 -0.3074  0.0263
 4481TIP3   OH237637   2.835   5.523   7.790  0.8942 -0.3303 -0.3222
 4481TIP3    H137638   2.895   5.471   7.844  0.0891  0.3333  1.3023
 4481TIP3    H237639   2.885   5.602   7.768  0.9793 -0.2416  0.1688
 4482TIP3   OH237640   6.873   4.018   8.787 -0.0379  0.3812 -0.6386
 4482TIP3    H137641   6.964   4.007   8.757  1.1893 -0.1490  2.8122
 4482TIP3    H237642   6.822   3.961   8.730  2.3040 -1.8420 -0.6796
 4483TIP3   OH237643   3.531   0.100   8.986  0.2824 -0.2581 -0.4840
 4483TIP3    H137644   3.537   0.017   8.938  0.5044 -0.1186 -0.7024
 4483TIP3    H237645   3.465   0.150   8.939  0.5849 -0.0748 -0.7210
 4484TIP3   OH237646   2.876   7.239   8.893  0.1260  0.3443 -0.5374
 4484TIP3    H137647   2.818   7.239   8.817  0.7215  0.5076 -1.0038
 4484TIP3    H237648   2.963   7.258   8.856  0.1301  2.4126  0.4023
 4485TIP3   OH237649   6.394   5.988   7.175 -0.1914  0.3886  0.0040
 4485TIP3    H137650   6.335   5.914   7.188  0.8616 -0.7635 -1.3684
 4485TIP3    H237651   6.419   6.014   7.263 -1.5128 -0.1108  0.5562
 4486TIP3   OH237652   4.890   6.267   8.744  0.5825  0.5471 -0.2441
 4486TIP3    H137653   4.915   6.267   8.837  2.4323 -1.3056 -0.6784
 4486TIP3    H237654   4.799   6.298   8.745  0.1887 -0.4070  2.2962
 4487TIP3   OH237655   4.175   2.503   7.109  0.4979 -0.1823  0.2452
 4487TIP3    H137656   4.088   2.470   7.083  0.8978 -0.4737 -0.7779
 4487TIP3    H237657   4.225   2.424   7.129  0.3719  0.0138  1.3748
 4488TIP3   OH237658   3.767   1.095   9.490  0.4743 -0.0167  0.0656
 4488TIP3    H137659   3.848   1.113   9.442  0.5538 -0.0332  0.1929
 4488TIP3    H237660   3.769   1.001   9.504 -0.0283 -0.1573 -0.7574
 4489TIP3   OH237661   6.733   7.229   7.821 -0.3596 -0.5432 -0.3225
 4489TIP3    H137662   6.698   7.139   7.826  1.5664 -1.3329 -0.3627
 4489TIP3    H237663   6.724   7.253   7.729  0.5774 -1.3284 -0.6326
 4490TIP3   OH237664   2.025   1.417   6.566 -0.0687  0.2339 -0.1097
 4490TIP3    H137665   2.115   1.424   6.533 -0.2697  0.4732 -0.6197
 4490TIP3    H237666   1.996   1.508   6.576 -0.9217  0.1743 -1.8055
 4491TIP3   OH237667   3.974   4.821   7.618 -0.4617 -0.1418  0.2402
 4491TIP3    H137668   3.999   4.913   7.612  0.6022 -0.4357  0.0726
 4491TIP3    H237669   3.889   4.816   7.573 -0.1300  0.5983 -0.4863
 4492TIP3   OH237670   1.481   5.071   7.133 -0.0343 -0.0440 -0.0783
 4492TIP3    H137671   1.387   5.063   7.118  0.0832  1.0096 -1.4766
 4492TIP3    H237672   1.489   5.079   7.228 -1.3525 -0.0914  0.0542
 4493TIP3   OH237673   1.343   1.032   8.589  0.1253 -0.0589 -0.5605
 4493TIP3    H137674   1.418   0.973   8.595 -1.3340 -2.1502 -1.8862
 4493TIP3    H237675   1.269   0.980   8.618 -0.8171  2.2190  1.5890
 4494TIP3   OH237676   0.529   3.361   7.036  0.1379 -0.0102 -0.1576
 4494TIP3    H137677   0.592   3.289   7.036 -0.5552 -0.6289  0.7575
 4494TIP3    H237678   0.534   3.397   6.947  2.5717  0.6733  0.1774
 4495TIP3   OH237679   5.778   4.919   8.014  0.2251 -0.3175  0.0082
 4495TIP3    H137680   5.783   4.929   8.110 -1.2942  1.0503 -0.0093
 4495TIP3    H237681   5.687   4.936   7.993  1.0076  1.9961 -1.9555
 4496TIP3   OH237682   5.060   2.881   8.515  0.1642 -0.0615  0.1574
 4496TIP3    H137683   4.984   2.864   8.570  0.5494 -2.1827  0.1255
 4496TIP3    H237684   5.110   2.799   8.517  3.2527  1.6852  1.4107
 4497TIP3   OH237685   3.500   5.204   8.397 -0.3024 -0.5589  0.1692
 4497TIP3    H137686   3.566   5.157   8.346 -0.0695  0.5701 -0.6150
 4497TIP3    H237687   3.438   5.236   8.331 -0.6667 -0.1104  0.7261
 4498TIP3   OH237688   4.895   0.092   7.508  0.8038  0.0328 -0.2871
 4498TIP3    H137689   4.842   0.165   7.475 -0.5207 -1.6926 -2.1442
 4498TIP3    H237690   4.950   0.066   7.434  2.5876  0.2373  0.8998
 4499TIP3   OH237691   2.255   6.811   9.209  0.4818 -0.3441  0.4653
 4499TIP3    H137692   2.299   6.751   9.270 -1.1357 -0.1660  1.8750
 4499TIP3    H237693   2.287   6.897   9.234  2.7084 -0.4917 -1.4788
 4500TIP3   OH237694   1.958   1.284   7.610 -0.0964 -0.7403 -0.0765
 4500TIP3    H137695   1.937   1.373   7.584 -0.7575 -0.8959 -0.0777
 4500TIP3    H237696   1.875   1.245   7.634 -0.0322 -1.7930 -1.4026
 4501TIP3   OH237697   3.619   3.257   8.532  0.3906 -0.1787  0.2776
 4501TIP3    H137698   3.578   3.196   8.470 -0.4513  1.0516 -0.4154
 4501TIP3    H237699   3.550   3.275   8.596 -0.0286  1.4991 -0.5991
 4502TIP3   OH237700   6.199   4.035   7.603 -0.4853 -0.4279  0.0346
 4502TIP3    H137701   6.272   4.096   7.612 -0.4067 -0.8794  3.4139
 4502TIP3    H237702   6.225   3.977   7.531  1.1210  1.1685 -0.7545
 4503TIP3   OH237703   5.764   3.451   9.434 -0.4148 -0.2069  0.0999
 4503TIP3    H137704   5.699   3.428   9.500 -1.1746 -0.0191 -0.5717
 4503TIP3    H237705   5.752   3.387   9.363  1.5718 -1.5322  0.8542
 4504TIP3   OH237706   4.407   5.553   9.414 -0.0453 -0.2024 -0.0750
 4504TIP3    H137707   4.342   5.486   9.432 -0.3018  0.2179  0.5860
 4504TIP3    H237708   4.377   5.630   9.462  1.1559 -0.1261  0.5988
 4505TIP3   OH237709   4.877   2.276   7.512  0.5299 -0.4345  0.0583
 4505TIP3    H137710   4.811   2.323   7.563  0.6261  1.5125 -1.4634
 4505TIP3    H237711   4.872   2.185   7.543 -2.3749 -0.2299  0.4994
 4506TIP3   OH237712   5.728   5.707   7.491 -0.3505  0.0622  0.1942
 4506TIP3    H137713   5.640   5.743   7.502 -0.0588  0.2083  2.6513
 4506TIP3    H237714   5.713   5.621   7.451 -1.5189  0.4415 -0.2402
 4507TIP3   OH237715   1.756   4.089   9.817 -0.0201 -0.2296  0.5967
 4507TIP3    H137716   1.847   4.098   9.846  0.5327  0.0279 -1.0984
 4507TIP3    H237717   1.751   4.001   9.781  0.0260  0.2992 -0.7681
 4508TIP3   OH237718   0.911   4.804   6.745  0.0130 -0.3331 -0.4387
 4508TIP3    H137719   0.817   4.788   6.737 -0.4560  0.7087  2.0331
 4508TIP3    H237720   0.948   4.719   6.770 -0.4229 -0.5115 -0.4033
 4509TIP3   OH237721   4.667   2.028   7.448 -0.3604  0.2461  0.3627
 4509TIP3    H137722   4.708   2.037   7.362 -0.6135  0.7552  0.2952
 4509TIP3    H237723   4.573   2.036   7.432 -0.4747 -0.4949  0.5762
 4510TIP3   OH237724   4.721   6.612   9.225 -0.0554  0.4800 -0.0403
 4510TIP3    H137725   4.661   6.663   9.172  1.2670  3.1171  0.8354
 4510TIP3    H237726   4.676   6.600   9.309 -1.0293 -1.3440 -0.7586
 4511TIP3   OH237727   2.161   5.456   7.462 -0.1535  0.3699  0.4465
 4511TIP3    H137728   2.218   5.386   7.430  0.8975  0.9516  0.9965
 4511TIP3    H237729   2.199   5.536   7.425 -1.0929  0.7072  0.1704
 4512TIP3   OH237730   5.659   0.853   6.694  0.1700 -0.4270 -0.5319
 4512TIP3    H137731   5.716   0.900   6.633 -0.7645 -0.6008 -1.5696
 4512TIP3    H237732   5.577   0.842   6.647 -1.1231  0.7623  1.3328
 4513TIP3   OH237733   5.834   3.965   8.400  0.1557  0.0334  0.2546
 4513TIP3    H137734   5.852   4.053   8.433  0.9870 -0.1692  0.3632
 4513TIP3    H237735   5.780   3.924   8.469  0.0030  0.3579  0.3305
 4514TIP3   OH237736   2.613   6.050   9.180 -0.1044 -0.3204  0.6510
 4514TIP3    H137737   2.641   6.027   9.269 -0.6423  0.4541  1.0347
 4514TIP3    H237738   2.671   6.122   9.155  1.5239 -1.9394 -0.5123
 4515TIP3   OH237739   4.597   7.107   8.877 -0.0176  0.1571 -0.1201
 4515TIP3    H137740   4.523   7.054   8.847  0.2837  0.2011 -0.9718
 4515TIP3    H237741   4.661   7.044   8.908  0.2811  0.0173 -0.9962
 4516TIP3   OH237742   5.025   1.791   9.197 -0.1075 -0.2993  0.1376
 4516TIP3    H137743   4.930   1.790   9.207 -0.1706 -4.0706  0.7130
 4516TIP3    H237744   5.058   1.790   9.287  0.5724  1.8041 -0.0416
 4517TIP3   OH237745   6.044   0.623   8.441  0.1210  0.5475  0.0276
 4517TIP3    H137746   6.032   0.534   8.408  0.2517  0.0150  1.3532
 4517TIP3    H237747   5.960   0.647   8.478  0.7776 -0.0897  2.0732
 4518TIP3   OH237748   4.542   3.958   7.625 -0.6113  0.6162  0.1260
 4518TIP3    H137749   4.601   4.033   7.635 -0.0518  0.3132 -0.7995
 4518TIP3    H237750   4.477   3.970   7.694  2.2550 -0.6483  3.3551
 4519TIP3   OH237751   2.027   0.828   7.902  0.1560 -0.4342  0.4882
 4519TIP3    H137752   2.030   0.913   7.947 -2.6582  0.0106 -0.0110
 4519TIP3    H237753   2.009   0.765   7.971  3.6551 -0.9637  1.1015
 4520TIP3   OH237754   0.319   1.690   8.658 -0.2754 -0.1684  0.3213
 4520TIP3    H137755   0.291   1.734   8.739 -1.4376  0.3378 -0.3307
 4520TIP3    H237756   0.302   1.597   8.675 -0.7073 -0.0456  0.5935
 4521TIP3   OH237757   4.560   7.509   9.193 -0.0594 -0.2385 -0.4635
 4521TIP3    H137758   4.572   7.602   9.216  1.2166  0.0796 -2.1749
 4521TIP3    H237759   4.585   7.461   9.271  0.0794  0.8427  0.1723
 4522TIP3   OH237760   1.095   0.757   8.195  0.1796  0.3102 -0.6748
 4522TIP3    H137761   1.112   0.690   8.128  1.7540 -1.1072  1.0458
 4522TIP3    H237762   1.011   0.796   8.169  0.2039 -0.9262 -2.8496
 4523TIP3   OH237763   3.999   4.104   9.438  0.1241  0.0244 -0.6854
 4523TIP3    H137764   3.933   4.036   9.423 -1.2246  1.5805 -2.2397
 4523TIP3    H237765   3.959   4.163   9.502  0.6970  0.1186 -0.4068
 4524TIP3   OH237766   2.991   6.094   7.935  0.4104  0.2086 -0.0717
 4524TIP3    H137767   3.005   6.067   7.845  0.8699 -0.9682  0.3421
 4524TIP3    H237768   3.028   6.024   7.988  2.2361  1.9005  1.0565
 4525TIP3   OH237769   5.600   6.091   8.645  0.0588  0.2566 -0.0933
 4525TIP3    H137770   5.568   6.043   8.568  0.3563  1.5563 -1.0531
 4525TIP3    H237771   5.540   6.165   8.653  0.7693  0.8089  0.1835
 4526TIP3   OH237772   0.184   7.217   9.042  0.0471 -0.5862 -0.2408
 4526TIP3    H137773   0.264   7.268   9.027 -0.3274  0.3639  0.8446
 4526TIP3    H237774   0.114   7.274   9.010 -0.4349 -0.1021  1.5636
 4527TIP3   OH237775   3.538   5.732   8.090  0.5795  0.2013  0.4813
 4527TIP3    H137776   3.544   5.797   8.160  0.6942 -1.3240  1.9770
 4527TIP3    H237777   3.604   5.666   8.114  1.6659  0.3282 -1.8860
 4528TIP3   OH237778   0.381   5.982   7.929  0.3896 -0.1256  0.4183
 4528TIP3    H137779   0.316   6.004   7.862 -0.5171 -0.4637  1.1713
 4528TIP3    H237780   0.459   6.031   7.902 -0.4659  1.1004  0.0407
 4529TIP3   OH237781   6.856   3.625   8.584 -0.9782 -0.0451  0.0263
 4529TIP3    H137782   6.876   3.617   8.491  0.7554  0.8836  0.2768
 4529TIP3    H237783   6.800   3.702   8.590 -2.2556 -0.9201 -0.3741
 4530TIP3   OH237784   2.354   1.153   7.443  0.2336  0.1847  0.3952
 4530TIP3    H137785   2.317   1.204   7.371 -2.2081 -1.4820  0.3807
 4530TIP3    H237786   2.405   1.085   7.400  1.5036  1.0988  0.3781
 4531TIP3   OH237787   4.473   2.417   8.649 -0.0999 -0.3591 -0.0111
 4531TIP3    H137788   4.449   2.477   8.578  0.3564 -0.3390 -0.1506
 4531TIP3    H237789   4.532   2.354   8.608  1.0439  0.2832  0.5698
 4532TIP3   OH237790   0.553   6.854   9.319  0.4480  0.0855 -0.5007
 4532TIP3    H137791   0.627   6.792   9.318  0.2529 -0.1965  1.0449
 4532TIP3    H237792   0.508   6.837   9.401 -1.6951 -0.1158 -1.6414
 4533TIP3   OH237793   4.904   3.476   6.856 -0.5864 -0.2655  0.0386
 4533TIP3    H137794   4.837   3.473   6.924 -2.5903 -2.1485 -1.8609
 4533TIP3    H237795   4.855   3.484   6.774  1.6638  0.5182 -1.3332
 4534TIP3   OH237796   6.133   3.065   7.261 -0.4701  0.0899 -0.3542
 4534TIP3    H137797   6.191   3.013   7.205 -0.2955 -0.1924  0.0909
 4534TIP3    H237798   6.045   3.041   7.232 -0.3926 -0.5405 -0.0682
 4535TIP3   OH237799   3.049   3.755   7.970 -0.3481 -0.3897  0.0172
 4535TIP3    H137800   3.087   3.841   7.952  0.4340 -0.7247  0.0175
 4535TIP3    H237801   3.098   3.723   8.046 -1.9439 -0.0282  1.2859
 4536TIP3   OH237802   0.755   3.757   9.418  0.1175  0.6013  0.1133
 4536TIP3    H137803   0.683   3.790   9.364  1.5699  1.2067 -1.5585
 4536TIP3    H237804   0.796   3.835   9.454  1.3804  0.4535 -0.9258
 4537TIP3   OH237805   4.879   0.244   9.420  0.2895  0.5752  0.0625
 4537TIP3    H137806   4.942   0.307   9.385  2.3568 -1.4331 -0.0739
 4537TIP3    H237807   4.903   0.161   9.378 -1.9249 -0.4440  0.6814
 4538TIP3   OH237808   4.567   5.020   8.505 -0.1354 -0.3924 -0.0149
 4538TIP3    H137809   4.653   5.036   8.544 -0.3824  0.2103  0.2877
 4538TIP3    H237810   4.511   5.002   8.580  0.0349 -2.3233 -0.2945
 4539TIP3   OH237811   4.522   6.006   6.902 -0.1066  0.3202 -0.6148
 4539TIP3    H137812   4.573   6.016   6.821  1.9475  1.6732  0.7335
 4539TIP3    H237813   4.551   5.923   6.938 -1.2589 -0.4382 -1.3761
 4540TIP3   OH237814   0.413   3.443   7.759 -0.1411 -0.5459 -0.6851
 4540TIP3    H137815   0.342   3.469   7.701  0.4522 -0.7933 -1.5281
 4540TIP3    H237816   0.480   3.406   7.702 -0.0771 -1.9935  0.2635
 4541TIP3   OH237817   3.806   1.348   9.343 -0.6300 -0.0557  0.3801
 4541TIP3    H137818   3.900   1.363   9.329 -0.7444 -0.6392 -1.2250
 4541TIP3    H237819   3.802   1.275   9.404 -0.0622  0.4485  1.0489
 4542TIP3   OH237820   1.971   4.638   8.986 -0.3824  0.2090  0.4327
 4542TIP3    H137821   1.995   4.711   8.929 -2.9173  0.2576 -0.6987
 4542TIP3    H237822   1.924   4.679   9.059 -0.9503 -0.1872  0.2965
 4543TIP3   OH237823   6.159   3.287   6.623 -0.0984  0.2361  0.4551
 4543TIP3    H137824   6.098   3.257   6.691 -0.1376  0.2154  0.4104
 4543TIP3    H237825   6.194   3.369   6.658  0.1750  0.0279  0.6804
 4544TIP3   OH237826   6.792   1.247   9.351 -0.2986  0.1798  0.0767
 4544TIP3    H137827   6.844   1.171   9.323 -1.8609 -0.1025 -2.4282
 4544TIP3    H237828   6.712   1.210   9.386 -0.4274  0.6443  0.2800
 4545TIP3   OH237829   6.763   4.814   8.647  0.6557 -0.4143 -0.3399
 4545TIP3    H137830   6.670   4.793   8.639  0.2291  1.5484 -1.1215
 4545TIP3    H237831   6.803   4.773   8.570  0.2146 -0.1443 -0.7202
 4546TIP3   OH237832   5.946   5.426   8.475  0.0737  0.2237  0.3812
 4546TIP3    H137833   5.889   5.461   8.406 -0.2603 -3.1277 -1.2310
 4546TIP3    H237834   5.885   5.393   8.540  0.3761  1.7656  1.5069
 4547TIP3   OH237835   2.828   6.271   7.661 -0.0571  0.1054 -0.2594
 4547TIP3    H137836   2.877   6.349   7.635  0.3407  0.1406  0.5443
 4547TIP3    H237837   2.809   6.226   7.579  1.9939 -0.3004 -0.5765
 4548TIP3   OH237838   5.401   7.479   9.025  0.4101  0.8839  0.2083
 4548TIP3    H137839   5.477   7.426   9.003 -0.0445  0.0238  0.6571
 4548TIP3    H237840   5.427   7.528   9.103  0.6877  0.9932  0.0448
 4549TIP3   OH237841   3.835   7.546   8.131  0.4584 -0.0268  0.8000
 4549TIP3    H137842   3.760   7.530   8.189  0.3681 -0.7654  0.4909
 4549TIP3    H237843   3.806   7.615   8.072 -0.5394 -1.2977 -0.2654
 4550TIP3   OH237844   5.764   5.040   8.742 -0.6108 -0.1021  0.0787
 4550TIP3    H137845   5.787   4.947   8.736 -0.1829  0.0808 -1.3098
 4550TIP3    H237846   5.749   5.055   8.835  0.7267 -1.2227  0.4925
 4551TIP3   OH237847   7.419   4.321   9.153 -0.0581 -0.2619 -0.3002
 4551TIP3    H137848   7.481   4.249   9.159 -1.2883 -1.3312  0.0775
 4551TIP3    H237849   7.341   4.289   9.199  0.2055  2.2481  2.1755
 4552TIP3   OH237850   5.807   6.242   9.380  0.7493 -0.0046 -0.0254
 4552TIP3    H137851   5.892   6.287   9.376 -0.4101  2.2741 -0.6411
 4552TIP3    H237852   5.789   6.216   9.289  1.0338 -1.0629  0.2007
 4553TIP3   OH237853   5.420   1.005   9.007 -0.1295 -0.0451 -0.2988
 4553TIP3    H137854   5.464   1.042   9.083 -2.4523  2.4991 -0.0347
 4553TIP3    H237855   5.357   0.942   9.043  0.2892 -0.4817 -0.3217
 4554TIP3   OH237856   1.812   0.442   9.153 -0.6528  0.2468  0.3312
 4554TIP3    H137857   1.845   0.375   9.214  3.3588  0.1042 -1.6884
 4554TIP3    H237858   1.792   0.393   9.073 -1.7104  0.9851  0.1267
 4555TIP3   OH237859   6.681   5.792   7.295 -0.1036  0.0218 -0.7637
 4555TIP3    H137860   6.752   5.730   7.311 -0.1889 -0.5374 -2.3954
 4555TIP3    H237861   6.647   5.768   7.209 -0.5138  1.9900 -1.1832
 4556TIP3   OH237862   3.885   2.911   8.396  0.1074 -0.5464  0.3592
 4556TIP3    H137863   3.908   2.831   8.349 -0.2406 -0.0913 -0.6138
 4556TIP3    H237864   3.829   2.881   8.468 -0.4689 -1.1456 -0.3157
 4557TIP3   OH237865   4.189   0.064   7.262  1.0840 -0.6846 -0.0284
 4557TIP3    H137866   4.217   0.155   7.250 -0.7773 -0.1381 -0.4024
 4557TIP3    H237867   4.208   0.045   7.355  2.4762 -0.3040 -0.2133
 4558TIP3   OH237868   0.022   5.672   9.345  0.5240  0.2383  0.1511
 4558TIP3    H137869  -0.046   5.733   9.371  0.3094  0.3209 -0.6034
 4558TIP3    H237870   0.102   5.708   9.384  0.2031  0.3166  0.7588
 4559TIP3   OH237871   2.725   4.919   9.164  0.2232 -0.2023 -0.1718
 4559TIP3    H137872   2.806   4.902   9.115 -0.4009  2.6896 -2.4930
 4559TIP3    H237873   2.742   5.000   9.212 -1.9016  2.0033 -2.7531
 4560TIP3   OH237874   5.445   3.662   7.146  0.5070  0.0375 -0.3305
 4560TIP3    H137875   5.436   3.722   7.072  1.0240  0.0883 -0.3599
 4560TIP3    H237876   5.457   3.576   7.106 -1.2670 -0.2722 -0.2839
 4561TIP3   OH237877   4.331   3.601   7.872 -0.3756  0.1997 -0.1554
 4561TIP3    H137878   4.357   3.628   7.784 -1.4919  1.1323 -0.2211
 4561TIP3    H237879   4.412   3.573   7.913  0.0372 -1.1962 -1.7868
 4562TIP3   OH237880   7.119   6.771   9.238  0.4439 -0.4518  0.2117
 4562TIP3    H137881   7.033   6.795   9.203  0.4933 -0.5929 -0.0112
 4562TIP3    H237882   7.133   6.831   9.311 -0.1656 -0.9171  0.7182
 4563TIP3   OH237883   3.947   2.189   8.845  0.1907  1.0604 -0.0562
 4563TIP3    H137884   3.952   2.225   8.934  0.7508  1.6882 -0.3294
 4563TIP3    H237885   3.856   2.163   8.834  0.3096  0.1563  1.0196
 4564TIP3   OH237886   5.430   3.641   7.415 -0.0317  0.0990  0.5221
 4564TIP3    H137887   5.434   3.665   7.323  1.0135 -0.9080  0.2793
 4564TIP3    H237888   5.364   3.570   7.419  2.2113 -2.1642 -0.0609
 4565TIP3   OH237889   0.490   1.674   7.585 -0.1751 -0.1013  0.3762
 4565TIP3    H137890   0.516   1.582   7.589 -0.4663 -0.1626  1.0951
 4565TIP3    H237891   0.398   1.671   7.558  0.1082  0.0331 -0.6098
 4566TIP3   OH237892   6.733   0.176   9.006  0.3939  0.0954  0.2782
 4566TIP3    H137893   6.642   0.180   8.974 -0.0569  0.5560  1.5324
 4566TIP3    H237894   6.737   0.094   9.055  0.6975 -0.0031  0.0842
 4567TIP3   OH237895   7.095   2.077   9.438 -0.0340 -0.7974 -0.5000
 4567TIP3    H137896   7.154   2.002   9.436 -0.9150 -1.5282 -0.1199
 4567TIP3    H237897   7.145   2.146   9.482  0.9402 -1.0097 -1.2377
 4568TIP3   OH237898   3.869   1.113   6.810 -0.1473  0.2538  0.3743
 4568TIP3    H137899   3.865   1.017   6.810  0.0024  0.2449  0.8650
 4568TIP3    H237900   3.789   1.141   6.853 -0.5767  0.3770 -0.4804
 4569TIP3   OH237901   0.902   4.528   8.083 -0.2146 -0.1166  0.4419
 4569TIP3    H137902   0.921   4.555   7.993 -0.7585 -0.4616  0.2236
 4569TIP3    H237903   0.817   4.566   8.102  0.0777  0.3007  0.9595
 4570TIP3   OH237904   2.085   6.729   7.088  0.0083 -0.1649 -0.1782
 4570TIP3    H137905   2.020   6.667   7.054 -0.9442  0.1291  1.0297
 4570TIP3    H237906   2.123   6.683   7.163 -1.8389  1.2187  1.7492
 4571TIP3   OH237907   3.494   3.470   7.342  0.4100  0.1475  0.2917
 4571TIP3    H137908   3.404   3.502   7.341  0.6864  0.9397 -0.4341
 4571TIP3    H237909   3.506   3.427   7.257  0.8247  0.3661  0.2363
 4572TIP3   OH237910   1.411   3.296   7.833  0.3076 -0.2053 -0.4736
 4572TIP3    H137911   1.393   3.272   7.923 -0.3671  0.0176 -0.5499
 4572TIP3    H237912   1.485   3.357   7.838  2.4725 -2.6473 -0.2997
 4573TIP3   OH237913   6.055   3.596   8.978 -0.2773  0.3493  0.0640
 4573TIP3    H137914   5.967   3.576   9.010 -0.7743  1.4897 -0.5414
 4573TIP3    H237915   6.113   3.567   9.049 -1.0300 -1.5413 -0.0220
 4574TIP3   OH237916   5.001   0.041   9.274  0.0762  0.0855 -0.1948
 4574TIP3    H137917   5.090   0.066   9.250  0.5487 -1.9766 -0.7342
 4574TIP3    H237918   4.957   0.025   9.191 -0.9662  1.4642  0.0447
 4575TIP3   OH237919   5.443   7.086   8.880 -0.4319  0.2124  0.2038
 4575TIP3    H137920   5.352   7.081   8.907 -0.7953  0.1674 -0.9578
 4575TIP3    H237921   5.445   7.041   8.795  0.6926  0.1103  0.2672
 4576TIP3   OH237922   1.623   0.898   7.966  0.3216 -0.5621 -0.1068
 4576TIP3    H137923   1.676   0.914   8.044  2.0584  1.9689 -1.6759
 4576TIP3    H237924   1.551   0.960   7.972  2.3889  2.2417 -2.0796
 4577TIP3   OH237925   6.271   4.438   8.588  0.0660 -0.1289 -0.4783
 4577TIP3    H137926   6.285   4.400   8.675  2.1869  2.0540  0.2509
 4577TIP3    H237927   6.176   4.449   8.581 -0.1398 -0.0632  1.7305
 4578TIP3   OH237928   2.625   1.492   7.357  0.3375 -0.2316  0.2696
 4578TIP3    H137929   2.680   1.544   7.416  1.4675 -0.6971 -0.3463
 4578TIP3    H237930   2.649   1.521   7.270 -0.6607 -0.1991 -0.0065
 4579TIP3   OH237931   6.240   4.182   7.938 -0.0907  0.2188 -0.0778
 4579TIP3    H137932   6.322   4.132   7.946  0.6273  0.9529 -2.0988
 4579TIP3    H237933   6.199   4.176   8.024  2.3018  0.1964  1.1351
 4580TIP3   OH237934   4.316   1.635   7.330  0.0674  0.7260  0.3069
 4580TIP3    H137935   4.343   1.597   7.247  0.3054  0.2697  0.5878
 4580TIP3    H237936   4.322   1.563   7.393 -0.2973  1.0125  0.6830
 4581TIP3   OH237937   5.607   7.269   8.967 -0.4645  0.4050 -0.4315
 4581TIP3    H137938   5.548   7.218   8.911 -0.2300 -1.2158  0.6935
 4581TIP3    H237939   5.673   7.205   8.995 -0.2105  1.3092  1.1412
 4582TIP3   OH237940   2.059   5.451   8.484  0.4120 -0.5308  0.1709
 4582TIP3    H137941   1.971   5.437   8.448  0.6882 -0.6700 -0.4617
 4582TIP3    H237942   2.050   5.430   8.577 -0.4348  0.3647  0.3050
 4583TIP3   OH237943   6.698   2.725   8.619  0.0658 -0.4819 -0.4279
 4583TIP3    H137944   6.699   2.819   8.606 -0.6818 -0.2774  0.7903
 4583TIP3    H237945   6.781   2.706   8.664 -0.1595 -0.2751  0.0802
 4584TIP3   OH237946   6.645   5.676   8.188  0.1328 -0.1082 -0.4573
 4584TIP3    H137947   6.655   5.584   8.161  1.4748 -0.0257 -0.2942
 4584TIP3    H237948   6.685   5.680   8.274  2.5982  1.1677 -1.5571
 4585TIP3   OH237949   6.734   6.139   8.780  0.3612  0.4967 -0.5767
 4585TIP3    H137950   6.668   6.171   8.719 -0.6605  0.8740  0.6814
 4585TIP3    H237951   6.746   6.210   8.842 -0.3308 -0.7042  0.9950
 4586TIP3   OH237952   6.277   1.621   6.556  0.1383  0.4549 -0.1169
 4586TIP3    H137953   6.279   1.596   6.649 -0.7072 -0.3714 -0.2980
 4586TIP3    H237954   6.188   1.598   6.528 -0.0006  1.8106 -0.8432
 4587TIP3   OH237955   7.415   2.834   8.917 -0.1055 -0.6198  0.1202
 4587TIP3    H137956   7.444   2.910   8.968  0.6087  0.8878 -2.3429
 4587TIP3    H237957   7.486   2.771   8.924  0.7308  0.2466 -0.3067
 4588TIP3   OH237958   1.929   4.063   9.480 -0.5006 -0.5075 -0.3067
 4588TIP3    H137959   1.899   3.996   9.542  0.4695 -1.5367 -0.8952
 4588TIP3    H237960   1.960   4.012   9.404 -0.2223  0.6456 -0.9851
 4589TIP3   OH237961   6.452   7.184   8.961 -0.3325  0.0961  0.0950
 4589TIP3    H137962   6.465   7.176   8.866  0.8057  0.8271  0.1669
 4589TIP3    H237963   6.361   7.212   8.971 -0.3272  0.4681 -0.8141
 4590TIP3   OH237964   1.016   5.379   8.094 -0.1296  0.0251 -0.2747
 4590TIP3    H137965   1.068   5.322   8.150  0.5740  0.4074 -0.5269
 4590TIP3    H237966   1.059   5.376   8.009  0.2866  1.3794 -0.1423
 4591TIP3   OH237967   5.553   2.914   6.987  0.1701  0.2687  0.1324
 4591TIP3    H137968   5.620   2.910   6.919 -0.1471 -0.6694 -0.1427
 4591TIP3    H237969   5.543   3.007   7.006  0.8958  0.4754 -0.4718
 4592TIP3   OH237970   5.962   1.836   8.734  0.5836 -0.2993  0.8184
 4592TIP3    H137971   5.921   1.831   8.647  1.5145 -0.6561  0.3843
 4592TIP3    H237972   6.056   1.837   8.715  0.7981 -0.7072  1.8463
 4593TIP3   OH237973   0.410   5.730   8.614 -0.4858  0.3424  0.1289
 4593TIP3    H137974   0.431   5.810   8.662 -0.5904 -0.4081  1.4715
 4593TIP3    H237975   0.369   5.673   8.678  0.1993 -1.0594 -0.6266
 4594TIP3   OH237976   3.699   5.185   9.455 -0.1787  0.7308 -0.6204
 4594TIP3    H137977   3.767   5.123   9.482 -1.4328  0.1381  1.3883
 4594TIP3    H237978   3.726   5.269   9.493 -1.3935  0.1204  1.7839
 4595TIP3   OH237979   4.375   7.150   9.104 -0.1948  0.4345 -0.0407
 4595TIP3    H137980   4.381   7.158   9.008  0.2767  0.8489  0.0189
 4595TIP3    H237981   4.461   7.177   9.135 -0.1569 -0.2774  0.4717
 4596TIP3   OH237982   3.857   5.645   7.228  0.2015  0.2801 -0.1819
 4596TIP3    H137983   3.796   5.719   7.224  0.1554  0.2968  0.5827
 4596TIP3    H237984   3.801   5.568   7.217 -0.1458  0.2363  1.5417
 4597TIP3   OH237985   3.098   2.158   9.100  0.9245  0.0783 -0.3791
 4597TIP3    H137986   3.119   2.087   9.161  1.5470  0.1969 -0.4438
 4597TIP3    H237987   3.087   2.114   9.016  0.0242 -0.0899 -0.1753
 4598TIP3   OH237988   4.479   7.436   7.338  0.4480 -0.3285  0.3860
 4598TIP3    H137989   4.394   7.420   7.298 -0.8141 -0.1233  2.7909
 4598TIP3    H237990   4.500   7.354   7.383 -0.0153  0.5605  2.3413
 4599TIP3   OH237991   4.887   1.751   9.460 -0.0353 -1.0787  0.1135
 4599TIP3    H137992   4.949   1.683   9.488  0.2879 -0.0432  2.0573
 4599TIP3    H237993   4.919   1.831   9.502 -1.0370  0.0757 -1.2489
 4600TIP3   OH237994   4.017   2.390   8.038 -0.0264  0.7537  0.2213
 4600TIP3    H137995   4.079   2.338   8.090 -1.4558  1.3569  2.7179
 4600TIP3    H237996   3.940   2.333   8.030 -0.0308  0.8908 -0.7990
 4601TIP3   OH237997   3.774   4.190   7.938  0.0855 -0.2348 -0.2441
 4601TIP3    H137998   3.722   4.187   8.018  1.5074  1.1617  0.7778
 4601TIP3    H237999   3.748   4.111   7.890 -2.2786 -0.0610  0.6151
 4602TIP3   OH238000   5.860   6.037   8.713  0.3193 -0.0301 -0.1546
 4602TIP3    H138001   5.768   6.054   8.694  0.6224  0.8631 -0.8820
 4602TIP3    H238002   5.881   5.956   8.667 -0.4734 -1.0788  1.2393
 4603TIP3   OH238003   1.252   0.352   6.735 -0.0390 -0.0010 -0.2731
 4603TIP3    H138004   1.191   0.279   6.742 -1.5001  1.1628 -0.1599
 4603TIP3    H238005   1.249   0.377   6.643  1.2288 -0.6954 -0.5168
 4604TIP3   OH238006   2.011   3.839   8.405 -0.1922 -0.3923  0.2383
 4604TIP3    H138007   2.050   3.757   8.436 -0.7338 -1.4748 -1.7566
 4604TIP3    H238008   1.982   3.819   8.316  1.9932  2.6929 -1.3625
 4605TIP3   OH238009   2.706   3.934   7.391  0.0210  0.2504 -0.6603
 4605TIP3    H138010   2.710   3.842   7.417  2.4185  1.4204  4.4882
 4605TIP3    H238011   2.785   3.948   7.340  0.9999 -0.1539  0.6879
 4606TIP3   OH238012   0.747   6.139   8.738 -0.2934 -0.7108  0.3204
 4606TIP3    H138013   0.682   6.208   8.729 -0.3396 -0.7728  0.1674
 4606TIP3    H238014   0.812   6.175   8.798 -0.1916 -0.4381  0.0536
 4607TIP3   OH238015   7.291   2.891   7.738  0.0559  0.0833 -0.1808
 4607TIP3    H138016   7.364   2.889   7.800 -0.3194  1.0641  0.3135
 4607TIP3    H238017   7.299   2.976   7.694  0.4297 -0.6714 -1.6436
 4608TIP3   OH238018   1.698   6.348   7.958 -0.8706  0.5639 -0.2307
 4608TIP3    H138019   1.783   6.374   7.922 -0.5109  0.2695  0.3790
 4608TIP3    H238020   1.659   6.429   7.989 -0.0755  0.4945  1.0010
 4609TIP3   OH238021   1.391   1.421   9.509 -0.0232  0.6129 -0.5608
 4609TIP3    H138022   1.366   1.361   9.439 -3.0643  0.6243  0.3796
 4609TIP3    H238023   1.308   1.446   9.550  1.5632  0.6616  3.0047
 4610TIP3   OH238024   7.511   4.842   7.399 -0.1324  0.0149  0.3042
 4610TIP3    H138025   7.541   4.917   7.347  1.8712 -0.0131  1.3036
 4610TIP3    H238026   7.423   4.824   7.367  0.1492  1.4415 -1.4471
 4611TIP3   OH238027   3.409   0.506   8.253  0.6476  0.0484  0.1428
 4611TIP3    H138028   3.330   0.453   8.249  1.8223 -1.6978 -1.5136
 4611TIP3    H238029   3.449   0.484   8.337  1.1193 -1.8105 -0.5146
 4612TIP3   OH238030   2.848   2.088   7.861  0.4456 -0.0531 -0.4061
 4612TIP3    H138031   2.878   2.040   7.938  0.3123  0.7759  0.1754
 4612TIP3    H238032   2.857   2.180   7.885 -0.8520  0.2220 -0.8828
 4613TIP3   OH238033   3.512   4.809   8.022 -0.0798  0.1753 -0.1731
 4613TIP3    H138034   3.607   4.800   8.027 -0.1167 -0.3956 -0.4060
 4613TIP3    H238035   3.482   4.726   7.984 -0.8063 -0.2479  1.2430
 4614TIP3   OH238036   1.354   5.212   7.986  0.4007 -0.5158 -0.6990
 4614TIP3    H138037   1.433   5.159   7.980  0.5475 -0.3041 -0.6366
 4614TIP3    H238038   1.307   5.176   8.062  1.1165  0.2659  0.1351
 4615TIP3   OH238039   2.003   4.193   7.271 -0.5918  0.6573  0.0635
 4615TIP3    H138040   1.915   4.156   7.268 -0.8175  1.2101 -0.2047
 4615TIP3    H238041   2.040   4.176   7.184  0.0246 -0.6561  0.5530
 4616TIP3   OH238042   0.848   4.302   8.759 -0.2601 -0.1635  0.5174
 4616TIP3    H138043   0.844   4.311   8.664 -0.4858 -0.7471  0.4663
 4616TIP3    H238044   0.822   4.388   8.793 -0.4568 -0.0362  0.0521
 4617TIP3   OH238045   3.498   4.150   9.039 -0.0476  0.3439 -0.7704
 4617TIP3    H138046   3.417   4.194   9.065 -0.4005  1.5633 -3.5733
 4617TIP3    H238047   3.551   4.219   9.001  1.6723 -0.7438 -0.4485
 4618TIP3   OH238048   2.004   1.703   8.931 -0.1073 -0.0410  0.1823
 4618TIP3    H138049   1.957   1.634   8.978  2.8844 -3.6023 -1.5606
 4618TIP3    H238050   1.956   1.715   8.850 -0.3935 -0.4399  0.2934
 4619TIP3   OH238051   6.747   6.411   8.005 -0.6912 -0.3481 -0.8854
 4619TIP3    H138052   6.687   6.376   7.940 -0.9639 -1.6597  0.0222
 4619TIP3    H238053   6.730   6.359   8.084 -0.9835  1.7468  0.5178
 4620TIP3   OH238054   2.528   3.866   8.023 -0.3192 -0.0005 -0.0025
 4620TIP3    H138055   2.517   3.961   8.023 -1.5634 -0.0734 -2.4833
 4620TIP3    H238056   2.597   3.850   7.958  0.0198 -0.7989  0.5432
 4621TIP3   OH238057   4.244   6.342   8.298  0.0212 -0.3049 -0.4224
 4621TIP3    H138058   4.238   6.284   8.374 -0.9149 -0.2291 -0.4331
 4621TIP3    H238059   4.303   6.412   8.326  0.3516 -0.7207 -0.0589
 4622TIP3   OH238060   5.818   0.605   8.764 -0.3398 -1.4205  0.2672
 4622TIP3    H138061   5.801   0.697   8.783  1.8271 -0.4621 -1.9713
 4622TIP3    H238062   5.890   0.581   8.822  1.0038 -0.7971 -1.0698
 4623TIP3   OH238063   4.245   6.880   7.379  0.1539  0.3916  0.2893
 4623TIP3    H138064   4.277   6.906   7.293 -1.8070  2.5445  0.0998
 4623TIP3    H238065   4.254   6.959   7.433 -1.3438 -0.0179  1.1964
 4624TIP3   OH238066   3.962   6.857   7.287  0.0410  0.2802  0.1472
 4624TIP3    H138067   3.944   6.904   7.206  0.1989  0.7050  0.3599
 4624TIP3    H238068   4.056   6.839   7.285 -0.0527 -0.1962 -0.0253
 4625TIP3   OH238069   1.025   0.203   9.309  0.1287 -0.3152 -0.6366
 4625TIP3    H138070   1.089   0.135   9.332  0.6022  0.1635 -0.5149
 4625TIP3    H238071   0.941   0.158   9.309  0.1819 -0.5186  1.3334
 4626TIP3   OH238072   3.222   5.629   8.080 -0.1862  0.1668 -0.2492
 4626TIP3    H138073   3.284   5.700   8.059  1.5120 -0.8705  0.9692
 4626TIP3    H238074   3.243   5.606   8.171 -2.1067 -0.5371  0.0559
 4627TIP3   OH238075   1.339   6.935   9.647 -0.1639 -0.4052  0.5163
 4627TIP3    H138076   1.422   6.895   9.672  0.2172 -1.5542 -2.1633
 4627TIP3    H238077   1.353   7.029   9.658  1.8483 -0.5038 -0.6582
 4628TIP3   OH238078   2.527   2.899   9.247  0.4325  0.3961 -0.2426
 4628TIP3    H138079   2.436   2.870   9.238  0.6180 -0.5486  0.7688
 4628TIP3    H238080   2.569   2.832   9.301  0.8193  2.5948  2.4242
 4629TIP3   OH238081   3.330   4.018   8.107  0.1485  0.3674  0.5379
 4629TIP3    H138082   3.254   4.059   8.066  0.4099 -0.2570 -0.6075
 4629TIP3    H238083   3.396   4.088   8.113  0.4165  0.2648 -0.9366
 4630TIP3   OH238084   4.712   5.877   9.523  0.4546  0.1810  0.0544
 4630TIP3    H138085   4.624   5.913   9.507  0.4834  0.3166  0.2075
 4630TIP3    H238086   4.726   5.888   9.617  0.8121  0.5474 -0.0416
 4631TIP3   OH238087   4.413   0.610   7.672  0.4140  0.3335  0.5595
 4631TIP3    H138088   4.444   0.529   7.631  0.9989  0.4643  0.7207
 4631TIP3    H238089   4.340   0.583   7.727 -0.1047  0.0871 -0.2346
 4632TIP3   OH238090   3.009   1.641   9.366  0.4411 -0.0896  0.2755
 4632TIP3    H138091   2.924   1.661   9.326 -0.4460 -1.2049  1.5288
 4632TIP3    H238092   3.023   1.712   9.429  1.3144  1.0605 -1.1566
 4633TIP3   OH238093   3.635   4.597   7.214 -0.2144 -0.0325 -0.3655
 4633TIP3    H138094   3.731   4.605   7.211 -0.0217  0.8077  3.0807
 4633TIP3    H238095   3.618   4.506   7.191  1.5127 -0.4197 -0.2921
 4634TIP3   OH238096   1.536   2.964   8.410  0.0044  0.2494  0.2953
 4634TIP3    H138097   1.541   3.040   8.352  0.5115 -0.2915 -0.3898
 4634TIP3    H238098   1.626   2.931   8.415 -0.3682 -0.9513 -0.3171
 4635TIP3   OH238099   4.081   1.140   8.930  0.4068 -0.8628  0.4892
 4635TIP3    H138100   4.093   1.067   8.991  1.4792 -0.2693  1.0251
 4635TIP3    H238101   4.099   1.218   8.983  0.1765 -0.2679 -0.2968
 4636TIP3   OH238102   4.423   3.040   8.844  0.3387  0.2277 -0.2238
 4636TIP3    H138103   4.349   2.978   8.850  1.7510 -1.5656 -0.4627
 4636TIP3    H238104   4.493   2.989   8.803  1.1904  2.4059 -1.6252
 4637TIP3   OH238105   7.285   6.750   7.586  0.2526 -0.1254  0.2372
 4637TIP3    H138106   7.327   6.814   7.529  0.7298 -0.1766  0.5227
 4637TIP3    H238107   7.192   6.769   7.579  0.3866  0.6095  0.3316
 4638TIP3   OH238108   3.961   5.230   8.256 -0.2080 -0.3503 -0.0905
 4638TIP3    H138109   4.029   5.227   8.189  0.4870 -1.8704  0.6493
 4638TIP3    H238110   4.008   5.227   8.339 -1.0547  1.6139  0.5302
 4639TIP3   OH238111   4.795   2.552   8.702 -0.1870 -0.3843  0.4053
 4639TIP3    H138112   4.789   2.599   8.785 -1.3940 -0.9161  0.6511
 4639TIP3    H238113   4.783   2.619   8.635 -0.6644 -0.1624  0.7122
 4640TIP3   OH238114   5.439   4.848   8.653  0.2956  0.4729  0.2507
 4640TIP3    H138115   5.480   4.884   8.731  1.4906  0.6645 -0.4260
 4640TIP3    H238116   5.506   4.858   8.585 -0.3874 -0.4895 -0.5881
 4641TIP3   OH238117   6.905   2.077   8.424  0.0959  0.0796  0.1445
 4641TIP3    H138118   6.952   2.083   8.508  2.5158 -2.2532 -0.9016
 4641TIP3    H238119   6.837   2.011   8.440  0.9376 -0.8139  0.1797
 4642TIP3   OH238120   5.243   3.658   9.440 -0.6942 -0.7698  0.1232
 4642TIP3    H138121   5.274   3.602   9.368  0.8995  0.2409 -0.0216
 4642TIP3    H238122   5.197   3.729   9.396 -0.2258 -0.4631  0.1183
 4643TIP3   OH238123   6.455   2.700   8.720 -0.4094  0.1916  0.5314
 4643TIP3    H138124   6.537   2.698   8.669 -0.9398  0.8885 -0.3746
 4643TIP3    H238125   6.480   2.742   8.803  0.1973  0.1759  0.3655
 4644TIP3   OH238126   6.335   5.595   7.055  0.0686 -0.3580 -0.1456
 4644TIP3    H138127   6.364   5.597   7.146 -0.3840 -1.4104  0.0355
 4644TIP3    H238128   6.239   5.590   7.060 -0.1066  1.5950 -0.7180
 4645TIP3   OH238129   5.212   5.603   7.086 -0.1112  0.4907 -0.0413
 4645TIP3    H138130   5.162   5.543   7.031  0.0935 -2.5150  2.7220
 4645TIP3    H238131   5.158   5.614   7.164  1.2325  1.4730  0.7920
 4646TIP3   OH238132   0.539   2.731   9.589  0.3515  0.1751  0.3126
 4646TIP3    H138133   0.520   2.679   9.511  1.1273  1.6572 -0.9261
 4646TIP3    H238134   0.633   2.722   9.602  0.8282  2.5263 -0.9552
 4647TIP3   OH238135   5.893   0.132   7.236 -0.4368  0.1409 -0.3346
 4647TIP3    H138136   5.876   0.215   7.279 -1.1260  0.6209 -1.4874
 4647TIP3    H238137   5.941   0.155   7.157  0.8103 -0.7251  0.1339
 4648TIP3   OH238138   6.783   6.791   9.521 -0.1437 -0.8485 -0.6659
 4648TIP3    H138139   6.821   6.827   9.600 -1.7957 -0.5498  0.0281
 4648TIP3    H238140   6.768   6.698   9.542 -1.5144 -0.5505 -0.2260
 4649TIP3   OH238141   4.576   6.155   8.664 -0.3935  0.2557 -0.1070
 4649TIP3    H138142   4.540   6.139   8.751  1.8281 -0.8993  0.6959
 4649TIP3    H238143   4.512   6.119   8.604 -1.4547  0.0372  1.1154
 4650TIP3   OH238144   7.518   5.807   7.489 -0.2435  0.3157  0.4448
 4650TIP3    H138145   7.452   5.782   7.424  0.3754 -1.1009  0.3151
 4650TIP3    H238146   7.472   5.800   7.573 -0.3174 -0.5818  0.3474
 4651TIP3   OH238147   0.043   4.911   9.433 -0.0511  0.2804 -0.1710
 4651TIP3    H138148   0.004   4.990   9.394  1.5777  0.0962 -2.3574
 4651TIP3    H238149  -0.009   4.839   9.399 -0.3003  0.2770  0.2112
 4652TIP3   OH238150   4.429   5.990   8.481 -0.6053  0.0423  0.3778
 4652TIP3    H138151   4.400   5.911   8.525 -0.5757  0.3729  1.0027
 4652TIP3    H238152   4.348   6.035   8.457 -0.6337  0.4858  1.2502
 4653TIP3   OH238153   4.703   1.155   9.522 -0.4461 -0.0958 -0.2064
 4653TIP3    H138154   4.656   1.122   9.446 -1.6238  1.0883 -0.0282
 4653TIP3    H238155   4.673   1.101   9.595  0.4733 -1.0468 -0.5047
 4654TIP3   OH238156   3.293   6.628   7.060  0.3452  0.1672  0.1994
 4654TIP3    H138157   3.311   6.663   6.973 -0.2767 -0.4277 -0.1868
 4654TIP3    H238158   3.378   6.600   7.093  0.8851  2.1234  0.5869
 4655TIP3   OH238159   7.147   3.366   8.922  0.4522 -0.0339  0.2723
 4655TIP3    H138160   7.104   3.330   8.999 -0.5384 -1.1877 -0.7910
 4655TIP3    H238161   7.083   3.428   8.885  1.4085  1.4870  1.0305
 4656TIP3   OH238162   2.979   6.399   7.226 -0.4739  0.1544  0.0870
 4656TIP3    H138163   3.051   6.368   7.172  1.7486 -0.3608  3.1363
 4656TIP3    H238164   2.989   6.494   7.227 -0.7580  0.2014 -0.6239
 4657TIP3   OH238165   0.922   1.408   8.534 -0.4701  0.5422 -0.2582
 4657TIP3    H138166   0.830   1.401   8.509 -0.5240  2.3721 -0.6758
 4657TIP3    H238167   0.942   1.323   8.575 -1.9842 -0.3348 -1.2503
 4658TIP3   OH238168   4.751   7.407   9.369 -0.7075 -0.4562  0.0121
 4658TIP3    H138169   4.766   7.475   9.436 -0.9013 -1.8447  1.5270
 4658TIP3    H238170   4.838   7.369   9.355 -0.6275 -0.0277 -0.7267
 4659TIP3   OH238171   2.911   6.784   8.487  0.5144 -0.1857  0.0130
 4659TIP3    H138172   2.968   6.837   8.431 -1.5047  0.7628 -1.2605
 4659TIP3    H238173   2.868   6.848   8.543  1.5074 -1.0086  1.7911
 4660TIP3   OH238174   3.556   6.748   7.602  0.1160  0.2819 -0.2563
 4660TIP3    H138175   3.519   6.814   7.661 -0.4462 -0.2581  0.0003
 4660TIP3    H238176   3.512   6.764   7.518 -0.5523 -0.2131 -0.0109
 4661TIP3   OH238177   3.163   4.307   8.430 -0.1155 -0.1307 -0.1845
 4661TIP3    H138178   3.122   4.385   8.393  0.0425  0.1035  0.1259
 4661TIP3    H238179   3.097   4.238   8.418  1.6476 -1.3456 -5.3035
 4662TIP3   OH238180   2.588   4.456   9.075  0.0280  0.3733 -0.1046
 4662TIP3    H138181   2.595   4.551   9.085 -0.7416  0.4055  0.1603
 4662TIP3    H238182   2.629   4.438   8.990  1.5141  0.7567  0.4904
 4663TIP3   OH238183   6.089   3.430   7.369 -0.1115  0.0464  0.0672
 4663TIP3    H138184   6.155   3.377   7.414  1.2808 -0.8701 -2.8207
 4663TIP3    H238185   6.090   3.514   7.415  1.7701 -0.5381  1.2191
 4664TIP3   OH238186   3.634   5.695   6.973  0.2411  0.2564  0.3295
 4664TIP3    H138187   3.583   5.712   6.895  2.2252  1.2751 -0.8352
 4664TIP3    H238188   3.593   5.747   7.042 -0.0232  1.3950 -0.6737
 4665TIP3   OH238189   3.125   1.117   7.614  0.0768  0.1053  0.5400
 4665TIP3    H138190   3.045   1.102   7.564 -0.0547  0.2907  0.6950
 4665TIP3    H238191   3.193   1.072   7.564  0.0546  0.7964 -0.1236
 4666TIP3   OH238192   6.795   6.359   8.942  0.0281  0.5857  0.1467
 4666TIP3    H138193   6.789   6.382   9.034  0.0337 -0.7113  0.4912
 4666TIP3    H238194   6.869   6.410   8.909  0.8068  0.1543  1.1591
 4667TIP3   OH238195   6.882   7.406   8.698  0.4117 -0.4991 -0.2680
 4667TIP3    H138196   6.816   7.464   8.734  0.8255 -0.1948  0.0108
 4667TIP3    H238197   6.953   7.407   8.762  0.4853 -1.2062 -0.3208
 4668TIP3   OH238198   1.873   0.859   8.993  0.3390 -0.2779 -0.3162
 4668TIP3    H138199   1.840   0.808   9.067  1.9195 -0.1267  0.5450
 4668TIP3    H238200   1.875   0.797   8.920 -2.7970 -0.0123 -0.7394
 4669TIP3   OH238201   5.860   6.714   8.262 -0.6789 -0.5501  0.6513
 4669TIP3    H138202   5.818   6.628   8.256 -0.6735 -0.4376 -1.9801
 4669TIP3    H238203   5.954   6.694   8.266 -0.6256 -0.6998 -0.8017
 4670TIP3   OH238204   1.946   5.431   9.115 -0.1440  0.0538  0.3645
 4670TIP3    H138205   1.938   5.349   9.066  0.8795  0.5710 -0.7112
 4670TIP3    H238206   2.015   5.413   9.179  0.3417  0.1684 -0.1141
 4671TIP3   OH238207   0.546   2.567   8.870  0.0840 -0.0934 -0.1782
 4671TIP3    H138208   0.608   2.551   8.800  1.3644 -1.3089  1.1563
 4671TIP3    H238209   0.471   2.511   8.848  0.1714  0.0771 -0.9267
 4672TIP3   OH238210   6.309   2.459   7.680 -0.6838  0.2377  0.5067
 4672TIP3    H138211   6.278   2.462   7.770  0.4601  2.0952  0.8987
 4672TIP3    H238212   6.245   2.511   7.631 -1.3066 -0.7726  0.2211
 4673TIP3   OH238213   6.424   6.984   9.284 -0.6862 -0.6631  0.4752
 4673TIP3    H138214   6.343   7.019   9.245  0.2095  0.2279 -0.6592
 4673TIP3    H238215   6.400   6.898   9.316 -1.9795 -0.6138 -0.2901
 4674TIP3   OH238216   2.097   4.319   6.716  0.5734  0.1848  0.6911
 4674TIP3    H138217   2.027   4.384   6.723  0.4858  0.3217 -1.0914
 4674TIP3    H238218   2.070   4.249   6.777 -0.5272  0.7529  0.8911
 4675TIP3   OH238219   0.510   6.866   9.020 -0.2112  0.1304 -0.8852
 4675TIP3    H138220   0.513   6.854   9.115  0.2249 -0.8153 -1.0016
 4675TIP3    H238221   0.596   6.904   8.999 -0.5657  0.9780 -0.8310
 4676TIP3   OH238222   3.098   2.246   8.177  0.1224 -0.1727 -0.3041
 4676TIP3    H138223   3.044   2.275   8.104 -0.8226  2.1372  1.2317
 4676TIP3    H238224   3.042   2.186   8.226  0.1132 -0.2549 -0.4120
 4677TIP3   OH238225   3.149   4.627   9.034  0.0493  0.2836 -0.3844
 4677TIP3    H138226   3.125   4.607   8.943  0.5447 -1.8905 -0.0990
 4677TIP3    H238227   3.161   4.541   9.075  0.2864  1.2192  1.6315
 4678TIP3   OH238228   6.735   1.888   8.912 -0.1736 -0.1321 -0.0462
 4678TIP3    H138229   6.759   1.800   8.941  0.3796 -0.6261 -1.8644
 4678TIP3    H238230   6.815   1.939   8.921  0.3976 -0.6353 -1.8774
 4679TIP3   OH238231   1.708   1.154   6.613 -0.1898  0.6875  0.1680
 4679TIP3    H138232   1.680   1.206   6.537  0.2351  0.5471 -0.0880
 4679TIP3    H238233   1.642   1.172   6.680  0.2194  1.9744  0.2595
 4680TIP3   OH238234   7.323   7.452   9.231  0.2949 -0.0474 -0.2697
 4680TIP3    H138235   7.390   7.389   9.257 -0.1483 -0.8081 -0.9092
 4680TIP3    H238236   7.360   7.498   9.156  0.2545 -0.2006 -0.3839
 4681TIP3   OH238237   2.510   5.868   8.833  0.0003  0.1189 -0.5383
 4681TIP3    H138238   2.526   5.963   8.830 -0.1813  0.1313 -1.1314
 4681TIP3    H238239   2.424   5.859   8.874  0.1226  0.1983 -0.2619
 4682TIP3   OH238240   0.404   4.145   9.162  0.0818 -0.3263  0.6232
 4682TIP3    H138241   0.388   4.228   9.207 -1.7020 -0.7836  0.9163
 4682TIP3    H238242   0.462   4.097   9.220 -1.4841 -0.5547  2.0904
 4683TIP3   OH238243   5.708   4.480   7.862 -0.4367 -0.0889  0.5607
 4683TIP3    H138244   5.719   4.478   7.766 -3.1330  1.3947  0.1147
 4683TIP3    H238245   5.614   4.470   7.875 -0.0031 -1.5012  3.1855
 4684TIP3   OH238246   6.762   3.450   7.482  0.6915 -0.1893 -0.8137
 4684TIP3    H138247   6.853   3.452   7.454  0.6012 -0.6176 -1.1416
 4684TIP3    H238248   6.730   3.539   7.467  1.1921  0.1012 -0.2216
 4685TIP3   OH238249   0.122   3.851   9.246 -0.0844 -0.2122  0.3650
 4685TIP3    H138250   0.193   3.879   9.303  0.8014 -2.4713  0.4655
 4685TIP3    H238251   0.166   3.819   9.167 -1.0975 -0.1226 -0.2566
 4686TIP3   OH238252   4.768   4.849   8.786 -0.0352  0.5032  0.2608
 4686TIP3    H138253   4.759   4.754   8.794 -0.1863  0.6296  2.0362
 4686TIP3    H238254   4.680   4.883   8.802  0.5078  1.0393  2.3775
 4687TIP3   OH238255   0.872   5.402   8.731  0.2878 -0.3442  0.1219
 4687TIP3    H138256   0.796   5.386   8.675  1.6440  1.1569 -2.3531
 4687TIP3    H238257   0.923   5.322   8.725  0.3832 -0.2298 -0.7961
 4688TIP3   OH238258   3.677   4.724   6.963 -0.0768 -0.1547  0.1257
 4688TIP3    H138259   3.733   4.799   6.982 -0.3704  0.4565 -1.2661
 4688TIP3    H238260   3.620   4.716   7.039 -0.0340  1.0434  0.3047
 4689TIP3   OH238261   7.302   0.063   9.600  0.0684  0.2453  0.1048
 4689TIP3    H138262   7.218   0.045   9.557  0.0869  2.7849 -1.1851
 4689TIP3    H238263   7.361   0.088   9.529  1.7364 -0.7123  1.0833
 4690TIP3   OH238264   2.575   3.673   9.121  0.1784 -0.2633 -0.0464
 4690TIP3    H138265   2.609   3.642   9.205 -0.5848 -1.7702 -0.2671
 4690TIP3    H238266   2.639   3.738   9.093  0.0092  0.9145  2.0820
 4691TIP3   OH238267   0.882   1.789   9.759  0.3604  0.0819  0.3951
 4691TIP3    H138268   0.823   1.864   9.758 -0.4799 -0.5351  1.1731
 4691TIP3    H238269   0.833   1.721   9.806  1.6054 -0.5273  0.8679
 4692TIP3   OH238270   1.920   6.538   7.938 -0.5753 -1.0135  0.2727
 4692TIP3    H138271   1.916   6.625   7.978 -1.8184 -0.8166 -0.2355
 4692TIP3    H238272   1.971   6.485   8.000  0.9237  0.2592  0.1870
 4693TIP3   OH238273   0.584   1.086   7.858 -0.1525 -0.3754 -0.3555
 4693TIP3    H138274   0.651   1.123   7.801  0.5179 -0.6600  0.2236
 4693TIP3    H238275   0.504   1.131   7.834  0.2257 -0.1088 -1.1444
 4694TIP3   OH238276   4.997   4.865   7.859 -0.2714 -0.6611 -0.1553
 4694TIP3    H138277   4.915   4.899   7.896  0.1252  0.4044 -0.2306
 4694TIP3    H238278   4.974   4.841   7.769 -0.8354 -1.6947  0.2536
 4695TIP3   OH238279   6.971   5.975   8.215  0.7471 -0.0663  0.5234
 4695TIP3    H138280   6.945   6.035   8.145  1.5135  0.7413  0.9102
 4695TIP3    H238281   6.922   6.007   8.292  0.6014 -0.3918  0.5659
 4696TIP3   OH238282   6.247   1.511   9.390 -0.1428 -0.2588  0.2555
 4696TIP3    H138283   6.293   1.546   9.314 -0.2248 -1.1103 -0.2008
 4696TIP3    H238284   6.189   1.443   9.354 -0.8443 -0.0573  0.9644
 4697TIP3   OH238285   5.897   3.350   8.885  0.2020 -0.4019  0.3295
 4697TIP3    H138286   5.915   3.391   8.801  2.2511 -3.6602 -1.0374
 4697TIP3    H238287   5.980   3.312   8.912 -0.7902 -0.8922  3.0138
 4698TIP3   OH238288   7.321   1.451   7.448 -0.3103  0.8548  0.2140
 4698TIP3    H138289   7.290   1.465   7.537  2.1518  0.8812  1.1423
 4698TIP3    H238290   7.411   1.483   7.448 -0.0486  0.3489 -2.1401
 4699TIP3   OH238291   1.826   5.006   7.311  0.5122  0.3185 -0.3909
 4699TIP3    H138292   1.895   5.061   7.276  2.6496 -0.7691  1.8231
 4699TIP3    H238293   1.846   4.918   7.279 -2.1315  0.4249 -2.8274
 4700TIP3   OH238294   5.508   7.048   8.134  0.4211 -0.2119  0.0758
 4700TIP3    H138295   5.447   6.996   8.082 -1.5085  0.9898  0.9969
 4700TIP3    H238296   5.574   7.078   8.071 -0.0247 -1.4286 -1.0020
 4701TIP3   OH238297   6.376   6.205   7.596 -0.0792  0.3920  0.3703
 4701TIP3    H138298   6.345   6.243   7.514  0.6588 -0.9605 -0.5707
 4701TIP3    H238299   6.373   6.110   7.582 -0.2550  0.1183  2.0292
 4702TIP3   OH238300   1.281   2.884   7.325  0.2918  0.6134 -0.3685
 4702TIP3    H138301   1.206   2.930   7.285  0.8651  3.5231  1.5700
 4702TIP3    H238302   1.329   2.953   7.370  3.0670 -1.5081  0.1489
 4703TIP3   OH238303   5.992   1.441   7.669  0.0992  0.2444  0.2221
 4703TIP3    H138304   5.943   1.381   7.727  2.3602  0.2869  2.3789
 4703TIP3    H238305   5.941   1.521   7.669 -2.3072 -1.1720 -1.6377
 4704TIP3   OH238306   1.178   5.747   7.237 -0.0557  0.1731 -0.6912
 4704TIP3    H138307   1.093   5.724   7.198 -1.0867 -1.2292  2.0536
 4704TIP3    H238308   1.243   5.707   7.179 -1.4276 -1.0996 -1.4242
 4705TIP3   OH238309   3.684   3.441   8.331  0.3632  0.3319 -0.2639
 4705TIP3    H138310   3.656   3.421   8.420  1.3940  0.1146  0.0186
 4705TIP3    H238311   3.779   3.450   8.337  0.6768 -1.4620 -1.6556
 4706TIP3   OH238312   5.126   1.299   9.464 -0.7974  0.3779 -0.1018
 4706TIP3    H138313   5.094   1.337   9.545  0.6049  0.1842  0.5806
 4706TIP3    H238314   5.048   1.268   9.419 -1.5983  0.3939  1.2261
 4707TIP3   OH238315   6.777   1.249   7.640 -0.3905  0.0954 -0.1265
 4707TIP3    H138316   6.697   1.207   7.670 -0.5299  0.8462  0.5797
 4707TIP3    H238317   6.781   1.229   7.547 -0.0993 -2.0518  0.2880
 4708TIP3   OH238318   2.342   5.040   7.531 -0.0971  0.0954  0.6108
 4708TIP3    H138319   2.330   5.073   7.442  1.7579  1.5297  0.8319
 4708TIP3    H238320   2.345   4.945   7.521  0.8519  0.2530 -1.0008
 4709TIP3   OH238321   3.516   3.551   8.583 -0.3879  0.1973 -0.1353
 4709TIP3    H138322   3.610   3.561   8.600 -0.3942  1.5736 -0.7904
 4709TIP3    H238323   3.478   3.535   8.669  0.6263 -2.3114 -0.0565
 4710TIP3   OH238324   2.033   2.743   7.321 -0.3374 -0.3077  0.3118
 4710TIP3    H138325   1.996   2.828   7.294  1.5710  0.1505 -1.1240
 4710TIP3    H238326   2.029   2.689   7.242  0.6720 -0.7037  0.5067
 4711TIP3   OH238327   7.340   5.701   7.303  0.2775  0.2601  0.0171
 4711TIP3    H138328   7.414   5.699   7.243  1.0185  0.1967  0.9045
 4711TIP3    H238329   7.269   5.658   7.256  0.9590 -0.1398 -0.6544
 4712TIP3   OH238330   1.658   4.935   6.975 -0.1168  0.2580  0.0379
 4712TIP3    H138331   1.595   4.986   7.027 -1.2663  0.0341 -1.0674
 4712TIP3    H238332   1.615   4.925   6.890  1.0879 -0.6082 -0.4921
 4713TIP3   OH238333   5.243   4.167   8.574  0.7557  0.2447 -0.0042
 4713TIP3    H138334   5.242   4.114   8.494  0.4832 -1.7656  1.2700
 4713TIP3    H238335   5.336   4.175   8.596  0.7945  0.2729 -0.1780
 4714TIP3   OH238336   3.680   7.269   8.649  0.4012  0.3376  0.0802
 4714TIP3    H138337   3.593   7.305   8.634 -0.2865 -2.2801 -3.5349
 4714TIP3    H238338   3.730   7.295   8.572  1.3005 -2.1193 -0.2413
 4715TIP3   OH238339   5.184   7.555   7.485  0.2666 -0.7974  0.3951
 4715TIP3    H138340   5.153   7.582   7.399  1.4323 -0.5048  0.0422
 4715TIP3    H238341   5.145   7.469   7.500  1.3983 -1.6433 -1.1954
 4716TIP3   OH238342   7.099   0.436   8.304 -0.1881 -0.0608  0.6990
 4716TIP3    H138343   7.126   0.349   8.272 -2.4938  0.0965 -2.0536
 4716TIP3    H238344   7.056   0.418   8.387  0.1226 -1.4606  0.5968
 4717TIP3   OH238345   5.634   2.642   9.433 -0.5002 -0.1378  0.5088
 4717TIP3    H138346   5.674   2.653   9.520  0.6692 -0.2220 -0.0056
 4717TIP3    H238347   5.652   2.551   9.410  0.3841  0.2472 -0.3889
 4718TIP3   OH238348   4.495   5.003   7.937 -0.6067  0.5645  0.9028
 4718TIP3    H138349   4.576   5.052   7.920 -1.3542  1.8413  0.9228
 4718TIP3    H238350   4.480   5.012   8.031 -1.0142  0.7060  0.8256
 4719TIP3   OH238351   3.762   1.767   8.240 -0.2456  0.3206 -0.2211
 4719TIP3    H138352   3.687   1.826   8.231 -0.7783 -0.4891 -1.3337
 4719TIP3    H238353   3.832   1.812   8.192 -0.6783  0.0205 -1.1577
 4720TIP3   OH238354   4.597   7.236   7.765  0.4045 -0.2668  0.0050
 4720TIP3    H138355   4.573   7.161   7.819  1.2457 -1.7149 -1.5379
 4720TIP3    H238356   4.526   7.299   7.778 -0.8606 -1.7406  0.5412
 4721TIP3   OH238357   5.522   1.439   7.412 -0.1028 -0.0158  0.6706
 4721TIP3    H138358   5.527   1.481   7.498  1.1073  0.7427  0.2645
 4721TIP3    H238359   5.479   1.503   7.356 -0.2024 -0.1968  0.5399
 4722TIP3   OH238360   2.280   4.179   8.191 -0.2124 -0.0548  0.1696
 4722TIP3    H138361   2.279   4.084   8.174 -0.6356  0.0104 -0.1950
 4722TIP3    H238362   2.187   4.204   8.192 -0.1811  0.0768  1.9101
 4723TIP3   OH238363   3.736   2.050   6.876  0.1761 -0.1156  0.5764
 4723TIP3    H138364   3.718   2.114   6.946  0.3956 -0.2329  0.7393
 4723TIP3    H238365   3.650   2.012   6.857  0.0940  0.0072  0.6936
 4724TIP3   OH238366   4.082   0.489   9.430  0.0631  0.0404 -0.3062
 4724TIP3    H138367   4.010   0.548   9.452  0.4973  0.6383 -0.4829
 4724TIP3    H238368   4.098   0.504   9.337 -1.0251 -1.6700 -0.8029
 4725TIP3   OH238369   1.805   1.225   9.061  0.4937 -0.0675 -0.0704
 4725TIP3    H138370   1.759   1.163   9.117  0.8942  0.1934  0.5516
 4725TIP3    H238371   1.846   1.287   9.121 -0.4960  1.2541 -0.6893
 4726TIP3   OH238372   6.031   6.604   9.376 -0.2161  0.7471 -0.0669
 4726TIP3    H138373   6.025   6.524   9.323 -0.8977  1.4478 -1.0885
 4726TIP3    H238374   6.037   6.572   9.466  0.1795 -0.4651 -0.4953
 4727TIP3   OH238375   3.414   3.300   7.107 -0.5014  0.0854  0.1284
 4727TIP3    H138376   3.437   3.307   7.014  0.6862 -1.2573  0.2722
 4727TIP3    H238377   3.377   3.212   7.116 -0.2800  0.0708  0.9793
 4728TIP3   OH238378   5.482   4.978   7.381 -0.3738  0.1359  0.0952
 4728TIP3    H138379   5.394   5.011   7.364 -0.9586 -1.0489  0.7688
 4728TIP3    H238380   5.503   5.010   7.469 -0.7609 -0.8734  0.5647
 4729TIP3   OH238381   2.970   1.026   8.934 -0.3312  0.5617  0.6092
 4729TIP3    H138382   3.053   1.067   8.958  1.2350 -2.4766  0.8598
 4729TIP3    H238383   2.954   0.962   9.003 -2.2274  0.1856 -0.1166
 4730TIP3   OH238384   0.465   5.336   7.414  0.0896 -0.6207 -0.0537
 4730TIP3    H138385   0.518   5.354   7.492  0.3070  1.0491 -0.5568
 4730TIP3    H238386   0.374   5.341   7.446  0.1895 -0.7897  0.2612
 4731TIP3   OH238387   5.308   0.766   8.600 -0.2843  0.0019 -0.0789
 4731TIP3    H138388   5.233   0.813   8.637 -0.5080 -0.0479 -0.4572
 4731TIP3    H238389   5.281   0.745   8.511 -0.8281 -2.1685  0.5160
 4732TIP3   OH238390   4.895   0.864   8.508  0.2819  0.8810 -0.1762
 4732TIP3    H138391   4.883   0.943   8.456  0.6710  0.6142 -0.6784
 4732TIP3    H238392   4.934   0.801   8.448 -0.3579  0.1872  0.1173
 4733TIP3   OH238393   1.511   1.267   8.606 -0.3378 -0.3269 -0.2922
 4733TIP3    H138394   1.565   1.236   8.680 -1.1055  0.5568  0.6726
 4733TIP3    H238395   1.448   1.197   8.591  0.3897 -0.9034 -0.7242
 4734TIP3   OH238396   6.977   6.246   8.591  0.1688  0.1517  0.0563
 4734TIP3    H138397   7.070   6.237   8.609  0.1624 -0.3717 -0.1490
 4734TIP3    H238398   6.937   6.263   8.676  0.5989  1.7303 -0.0211
 4735TIP3   OH238399   3.908   6.932   8.228 -0.0016  0.2252  0.7498
 4735TIP3    H138400   3.835   6.954   8.286  0.6887  0.3861  1.5754
 4735TIP3    H238401   3.878   6.958   8.141 -0.5259  1.2748  1.2264
 4736TIP3   OH238402   1.793   4.824   9.527 -0.2909 -0.5147  0.2434
 4736TIP3    H138403   1.828   4.735   9.531 -0.5919 -0.6055  1.1626
 4736TIP3    H238404   1.715   4.817   9.473  0.0959 -0.6626 -0.2999
 4737TIP3   OH238405   4.860   7.288   8.763  0.5256  0.4475 -0.3770
 4737TIP3    H138406   4.927   7.219   8.764  1.9170  1.7139 -1.5677
 4737TIP3    H238407   4.855   7.317   8.854  0.6000 -0.5857 -0.0292
 4738TIP3   OH238408   5.734   5.753   7.922  0.1257 -0.2628  0.0785
 4738TIP3    H138409   5.657   5.738   7.868  0.2721  1.8402 -0.7837
 4738TIP3    H238410   5.703   5.737   8.012 -1.9253  2.4401 -0.0364
 4739TIP3   OH238411   4.080   1.626   8.136 -0.1862  0.2937 -0.3525
 4739TIP3    H138412   4.046   1.538   8.153 -0.0523  0.2020 -0.5546
 4739TIP3    H238413   4.068   1.639   8.042  1.6718 -0.3200 -0.7077
 4740TIP3   OH238414   6.006   4.066   7.192 -0.2062 -0.5356 -0.2654
 4740TIP3    H138415   5.975   4.075   7.102  1.0492  1.7368 -0.5531
 4740TIP3    H238416   6.042   3.977   7.197  1.4280 -0.0936 -2.6160
 4741TIP3   OH238417   4.722   6.621   6.534 -1.1447 -0.0262  0.3090
 4741TIP3    H138418   4.800   6.677   6.538 -0.7401 -0.0929 -3.3387
 4741TIP3    H238419   4.750   6.539   6.573  0.0813  0.5058  0.6134
 4742TIP3   OH238420   6.150   6.592   7.607  0.0037 -0.0220 -0.1926
 4742TIP3    H138421   6.109   6.537   7.540 -1.1859  1.4382 -0.7099
 4742TIP3    H238422   6.112   6.562   7.690 -0.4762 -0.1165 -0.4465
 4743TIP3   OH238423   4.245   2.974   8.021  0.9435 -0.7192 -0.0591
 4743TIP3    H138424   4.323   3.027   8.005  0.9430 -0.7181 -0.0573
 4743TIP3    H238425   4.217   3.000   8.109 -0.9775  1.7507 -1.2617
 4744TIP3   OH238426   3.870   6.667   7.021  0.1940  0.5672  0.1633
 4744TIP3    H138427   3.816   6.716   6.959  0.8304 -0.7667 -1.5242
 4744TIP3    H238428   3.959   6.673   6.985  0.5615 -0.2910  0.9031
 4745TIP3   OH238429   4.909   5.152   7.449  0.0783  0.6600  0.3404
 4745TIP3    H138430   4.999   5.157   7.480  0.0964 -0.8428  0.6295
 4745TIP3    H238431   4.916   5.149   7.354  0.5220 -1.6059  0.3919
 4746TIP3   OH238432   4.539   4.786   6.788 -0.2353  0.1946  0.2494
 4746TIP3    H138433   4.453   4.809   6.752 -0.2167 -0.9849 -0.6100
 4746TIP3    H238434   4.590   4.867   6.784 -0.4131  0.2593 -1.9115
 4747TIP3   OH238435   6.416   6.211   8.335 -0.0878 -0.3220  0.1498
 4747TIP3    H138436   6.332   6.252   8.317  0.2959  0.5966  0.3833
 4747TIP3    H238437   6.399   6.117   8.329 -0.8341 -0.1332 -1.1294
 4748TIP3   OH238438   5.373   7.257   8.594 -0.5095  0.5614 -0.5336
 4748TIP3    H138439   5.461   7.257   8.558 -1.0832  1.4306 -2.0261
 4748TIP3    H238440   5.318   7.221   8.524 -1.0982 -2.2285  1.1907
 4749TIP3   OH238441   7.566   6.025   8.380  0.1881  0.2198  0.4470
 4749TIP3    H138442   7.582   5.931   8.394  0.8796  0.2226 -0.2058
 4749TIP3    H238443   7.628   6.069   8.439 -1.4716  0.3127  2.2066
 4750TIP3   OH238444   3.986   2.024   8.576 -0.6039  0.4533  0.7066
 4750TIP3    H138445   3.942   2.071   8.647  0.1206  0.3511  1.2254
 4750TIP3    H238446   3.923   1.958   8.548 -2.7655  3.2937 -1.7915
 4751TIP3   OH238447   6.424   2.397   9.106 -0.4309  0.1894 -0.1902
 4751TIP3    H138448   6.378   2.380   9.188 -2.4720  0.9446 -1.1061
 4751TIP3    H238449   6.516   2.404   9.131 -1.0442  0.8755  2.1012
 4752TIP3   OH238450   7.456   6.011   6.905 -0.4144  0.0268  0.0193
 4752TIP3    H138451   7.537   6.057   6.880 -0.6975  0.2913 -0.4224
 4752TIP3    H238452   7.452   5.936   6.845 -0.5972  0.1230 -0.0883
 4753TIP3   OH238453   1.092   4.039   9.161 -0.0257  0.6715  0.2583
 4753TIP3    H138454   1.095   4.116   9.104 -2.1336  1.6431  1.3201
 4753TIP3    H238455   1.121   3.967   9.106  0.9020  2.0337 -1.1244
 4754TIP3   OH238456   3.994   7.537   7.091 -0.4488  0.1994 -0.4529
 4754TIP3    H138457   4.043   7.492   7.023  1.0578  0.6332  0.2893
 4754TIP3    H238458   4.061   7.584   7.142 -1.6327  0.7638  0.6580
 4755TIP3   OH238459   0.272   4.816   8.134  0.4380 -0.0885 -0.0212
 4755TIP3    H138460   0.296   4.788   8.223 -1.2283 -0.5562  0.3200
 4755TIP3    H238461   0.247   4.735   8.090  1.5400  0.1001 -1.0441
 4756TIP3   OH238462   3.934   2.322   9.350  0.2179 -0.1378 -0.7058
 4756TIP3    H138463   3.901   2.306   9.438  0.7840 -1.5279 -0.7172
 4756TIP3    H238464   4.006   2.259   9.339 -0.1231 -0.2963 -2.3073
 4757TIP3   OH238465   1.860   6.555   9.833 -0.7787 -0.4920  0.5612
 4757TIP3    H138466   1.856   6.489   9.902 -1.4463 -0.8097  0.2291
 4757TIP3    H238467   1.916   6.515   9.766 -2.0643 -1.2048 -0.1218
 4758TIP3   OH238468   2.868   7.305   9.346  0.3438 -0.1316 -0.3712
 4758TIP3    H138469   2.905   7.236   9.401  1.1924 -0.6899 -1.5852
 4758TIP3    H238470   2.777   7.280   9.334  0.6631 -1.0997 -0.8650
 4759TIP3   OH238471   4.402   1.515   7.105  0.4892  0.2761  0.6957
 4759TIP3    H138472   4.353   1.441   7.140  1.1320 -0.4635  0.0643
 4759TIP3    H238473   4.489   1.479   7.085  0.0112  0.4957 -2.1800
 4760TIP3   OH238474   4.653   0.776   8.636 -0.2002  0.5661  0.1901
 4760TIP3    H138475   4.693   0.761   8.721 -2.4401 -1.0509  1.0571
 4760TIP3    H238476   4.722   0.815   8.583  1.3423  1.3429  2.6386
 4761TIP3   OH238477   6.203   1.955   7.058  0.0532  0.2769  0.2808
 4761TIP3    H138478   6.226   1.886   6.996  1.3737  0.8988  0.0556
 4761TIP3    H238479   6.240   1.926   7.141 -1.9842 -0.7120  0.9176
 4762TIP3   OH238480   5.268   7.130   8.388 -0.7820 -0.0905 -0.3011
 4762TIP3    H138481   5.265   7.035   8.401  2.7823 -0.2809  0.0593
 4762TIP3    H238482   5.266   7.142   8.293 -0.7930 -0.5465 -0.3583
 4763TIP3   OH238483   3.340   6.873   9.743 -0.6826 -0.3459  0.1478
 4763TIP3    H138484   3.433   6.885   9.723 -0.6774 -1.3705 -0.5280
 4763TIP3    H238485   3.294   6.920   9.673 -0.6594 -1.2879 -0.5204
 4764TIP3   OH238486   0.526   2.273   7.619 -0.3986  0.0903 -0.0041
 4764TIP3    H138487   0.600   2.215   7.634 -0.7335 -0.0845  1.0417
 4764TIP3    H238488   0.449   2.216   7.622 -0.5661  0.1903 -1.5678
 4765TIP3   OH238489   6.857   5.137   9.171 -0.1346  0.2960  0.6637
 4765TIP3    H138490   6.918   5.096   9.233  0.7850  0.6070 -0.0056
 4765TIP3    H238491   6.795   5.068   9.149 -0.8142  0.3217  2.3190
 4766TIP3   OH238492   4.236   0.457   8.213  1.0717 -0.7831 -0.0450
 4766TIP3    H138493   4.255   0.372   8.172 -1.4405 -2.3822  1.8425
 4766TIP3    H238494   4.239   0.519   8.141  0.5964 -2.8439 -1.9647
 4767TIP3   OH238495   1.423   0.514   8.481 -0.4417 -0.5219 -0.0335
 4767TIP3    H138496   1.501   0.459   8.472  0.0372  0.0669  0.4841
 4767TIP3    H238497   1.410   0.522   8.576 -1.7453 -1.4666 -0.0875
 4768TIP3   OH238498   0.371   4.003   7.815  0.7371  0.7700 -0.6705
 4768TIP3    H138499   0.389   4.097   7.806  3.9873  0.2432 -0.6322
 4768TIP3    H238500   0.432   3.973   7.882 -0.2482 -1.4008 -0.6592
 4769TIP3   OH238501   2.969   1.829   8.634  0.0171 -0.5363  0.1042
 4769TIP3    H138502   3.013   1.777   8.702  0.0660  1.1707  1.4360
 4769TIP3    H238503   2.947   1.765   8.566  1.2963 -2.0534  1.0451
 4770TIP3   OH238504   2.400   1.947   7.440  0.2220  0.0294  0.1981
 4770TIP3    H138505   2.382   1.897   7.360  0.7707  0.1606 -0.0077
 4770TIP3    H238506   2.441   2.028   7.409 -2.2026  1.4460  0.3652
 4771TIP3   OH238507   5.520   0.097   9.255 -0.3553  0.2089  0.0303
 4771TIP3    H138508   5.608   0.119   9.285  0.7571 -1.2718 -1.9235
 4771TIP3    H238509   5.473   0.180   9.256  0.7465  0.8762  2.0087
 4772TIP3   OH238510   0.460   5.682   7.439 -0.1585 -0.3634 -0.3267
 4772TIP3    H138511   0.444   5.740   7.365  0.7607 -0.1531 -0.3723
 4772TIP3    H238512   0.523   5.729   7.493 -0.7829 -0.5342  0.5727
 4773TIP3   OH238513   7.472   4.207   7.914  0.0830  0.5522  0.1542
 4773TIP3    H138514   7.395   4.225   7.860 -0.5033  2.2047  1.4417
 4773TIP3    H238515   7.454   4.122   7.954 -0.4408  0.2987 -0.6087
 4774TIP3   OH238516   0.975   5.197   9.193 -0.1168  0.1740  0.8501
 4774TIP3    H138517   0.904   5.239   9.144  1.9043  1.7489 -0.9233
 4774TIP3    H238518   1.032   5.269   9.220  1.4464 -1.1156  1.1645
 4775TIP3   OH238519   6.438   7.449   8.200  0.0716  0.3265  0.2061
 4775TIP3    H138520   6.514   7.406   8.239  0.0794 -0.9626 -1.1158
 4775TIP3    H238521   6.474   7.511   8.137  0.0388  0.1655  0.0276
 4776TIP3   OH238522   0.122   0.672   7.900 -0.1285 -0.3187  0.3865
 4776TIP3    H138523   0.082   0.601   7.849 -1.2718  0.4925  0.1260
 4776TIP3    H238524   0.196   0.700   7.847 -0.9148  0.0704 -0.5313
 4777TIP3   OH238525   7.345   3.211   8.823  0.0572  0.9305  0.0958
 4777TIP3    H138526   7.277   3.264   8.866 -0.5545  0.3969 -0.1983
 4777TIP3    H238527   7.428   3.246   8.858 -0.3702  1.4285  0.6434
 4778TIP3   OH238528   1.606   3.677   8.700 -0.2028  0.0061 -0.1867
 4778TIP3    H138529   1.697   3.700   8.686 -0.6138  3.3997  1.7329
 4778TIP3    H238530   1.609   3.603   8.761  1.2679  0.1718 -0.0255
 4779TIP3   OH238531   3.143   4.544   7.890  0.1516 -0.2275  0.1040
 4779TIP3    H138532   3.188   4.579   7.813 -0.3991  1.4747  0.5169
 4779TIP3    H238533   3.196   4.574   7.964 -1.6812  2.0564  0.6177
 4780TIP3   OH238534   0.285   4.897   8.604  0.2749 -0.4425  0.0753
 4780TIP3    H138535   0.302   4.988   8.626 -0.7852 -0.1260 -0.3759
 4780TIP3    H238536   0.235   4.862   8.678  1.7448 -1.0402  0.8420
 4781TIP3   OH238537   3.561   2.439   7.932  0.4488  0.1796 -0.0262
 4781TIP3    H138538   3.490   2.386   7.897  0.4251  0.3339 -0.2149
 4781TIP3    H238539   3.518   2.518   7.966  0.5773  0.4878 -0.5717
 4782TIP3   OH238540   1.121   6.281   9.163  0.7676 -0.1140 -0.5726
 4782TIP3    H138541   1.038   6.237   9.181  1.6698 -2.0999 -0.9824
 4782TIP3    H238542   1.097   6.359   9.112 -0.9163  0.0404  0.3903
 4783TIP3   OH238543   2.677   2.506   7.403 -0.3928 -0.2809 -0.2588
 4783TIP3    H138544   2.707   2.421   7.435 -0.6338 -0.1411  0.3618
 4783TIP3    H238545   2.688   2.502   7.308  1.4994 -0.2729 -0.0663
 4784TIP3   OH238546   5.575   2.665   9.152  0.0865  0.1700  0.0144
 4784TIP3    H138547   5.569   2.754   9.118 -0.2619  0.6459  1.2480
 4784TIP3    H238548   5.606   2.676   9.242  2.7850 -1.1422 -0.6700
 4785TIP3   OH238549   3.337   1.733   8.240 -0.4660 -0.8046  0.2515
 4785TIP3    H138550   3.335   1.694   8.153 -2.1524 -3.0427  1.1817
 4785TIP3    H238551   3.245   1.754   8.259  0.0969  1.5009  0.7955
 4786TIP3   OH238552   4.481   1.518   8.630  0.4531 -0.0163  0.3037
 4786TIP3    H138553   4.429   1.519   8.711  1.8018 -0.9588  1.2165
 4786TIP3    H238554   4.485   1.426   8.606  2.1765 -0.0442  0.5955
 4787TIP3   OH238555   3.382   2.187   8.203  0.1496 -0.1982 -0.0632
 4787TIP3    H138556   3.422   2.258   8.253 -0.1874 -0.7400  1.0164
 4787TIP3    H238557   3.288   2.200   8.214  0.0869 -1.0405  0.5024
 4788TIP3   OH238558   1.157   5.368   7.606 -0.2294 -0.1998  0.1419
 4788TIP3    H138559   1.218   5.410   7.667  0.9286 -0.8660 -0.5145
 4788TIP3    H238560   1.146   5.279   7.639  0.8507 -0.7474 -0.8817
 4789TIP3   OH238561   1.592   3.155   9.223 -0.3395 -0.2040  0.0180
 4789TIP3    H138562   1.543   3.073   9.230 -1.9969  0.8220  1.1206
 4789TIP3    H238563   1.531   3.222   9.255  0.7055  1.5672 -1.5172
 4790TIP3   OH238564   4.540   0.704   7.116  1.3002  0.1201  0.2110
 4790TIP3    H138565   4.505   0.786   7.081  0.3399 -0.9802 -1.5742
 4790TIP3    H238566   4.632   0.704   7.089  0.7806 -0.3259 -1.7275
 4791TIP3   OH238567   4.454   7.540   7.878  1.1309  0.8269  0.3368
 4791TIP3    H138568   4.376   7.495   7.846  0.9385  1.7896 -0.5941
 4791TIP3    H238569   4.480   7.490   7.956 -0.9612  1.0246  1.2374
 4792TIP3   OH238570   5.783   0.046   8.984 -0.2530 -0.2278 -0.2295
 4792TIP3    H138571   5.833   0.105   9.041 -0.7038  1.4001 -1.4292
 4792TIP3    H238572   5.784  -0.038   9.029  1.0924  0.4936  1.1807
 4793TIP3   OH238573   3.471   4.024   8.528 -0.3585 -0.3104  0.3949
 4793TIP3    H138574   3.565   4.012   8.536 -0.4861 -0.7754  1.3464
 4793TIP3    H238575   3.439   4.027   8.618 -1.1496  0.7561  0.1078
 4794TIP3   OH238576   7.338   3.353   8.579 -0.4540 -0.1641  0.2560
 4794TIP3    H138577   7.349   3.274   8.631 -1.1012 -0.1662  0.4043
 4794TIP3    H238578   7.278   3.408   8.631 -1.7939 -0.5221 -0.8358
 4795TIP3   OH238579   4.062   1.048   8.650 -0.3594 -0.3783 -0.0338
 4795TIP3    H138580   4.076   1.071   8.742  2.2816 -1.2778 -0.1137
 4795TIP3    H238581   3.976   1.083   8.629 -1.3678 -0.7327  2.9678
 4796TIP3   OH238582   4.320   4.104   9.121  0.5349  0.4772  0.3391
 4796TIP3    H138583   4.331   4.081   9.029 -1.7044 -0.1755  0.1574
 4796TIP3    H238584   4.256   4.175   9.121 -1.4090 -1.1545  1.4213
 4797TIP3   OH238585   4.661   2.671   8.901 -0.2824  0.6386 -0.2068
 4797TIP3    H138586   4.666   2.736   8.972 -1.3219  1.6635 -1.0328
 4797TIP3    H238587   4.631   2.591   8.945 -0.4232  1.1189  0.6063
 4798TIP3   OH238588   2.412   5.651   7.939  0.3599 -0.1325  0.3772
 4798TIP3    H138589   2.356   5.729   7.936  0.7701  0.3109  2.5721
 4798TIP3    H238590   2.358   5.581   7.903 -1.1105  0.5838  1.0854
 4799TIP3   OH238591   0.600   1.212   9.579 -0.5794  0.2779 -0.3608
 4799TIP3    H138592   0.595   1.216   9.483  0.8877 -0.6904 -0.5262
 4799TIP3    H238593   0.665   1.279   9.602 -0.9277  0.5080 -0.0371
 4800TIP3   OH238594   5.768   6.115   9.130  0.3749 -0.3680 -0.4466
 4800TIP3    H138595   5.729   6.055   9.194 -1.1966  1.8995  0.8689
 4800TIP3    H238596   5.715   6.103   9.051 -0.1141 -0.4997 -0.1048
 4801TIP3   OH238597   1.830   1.974   9.536  0.3292 -0.6991 -0.3804
 4801TIP3    H138598   1.897   2.015   9.482  1.0602  0.7060  1.4788
 4801TIP3    H238599   1.762   2.041   9.545  0.3256 -0.8109  0.5825
 4802TIP3   OH238600   2.285   3.121   9.679 -0.3796 -0.0325  0.6512
 4802TIP3    H138601   2.209   3.145   9.626  1.4831  3.5144 -0.7747
 4802TIP3    H238602   2.343   3.075   9.619 -0.3689 -0.5960  1.0835
 4803TIP3   OH238603   0.732   1.962   8.040 -0.1374 -0.7032  0.2426
 4803TIP3    H138604   0.688   1.886   8.078 -1.2861  0.7590  1.9805
 4803TIP3    H238605   0.680   2.037   8.068 -0.4825  0.6408 -3.4338
 4804TIP3   OH238606   6.910   1.829   6.911 -0.4727 -0.2641  0.1959
 4804TIP3    H138607   6.990   1.779   6.926 -0.3924 -0.1582  0.1157
 4804TIP3    H238608   6.914   1.853   6.819  0.6092  1.8455  0.7442
 4805TIP3   OH238609   0.663   1.755   9.252 -0.2966  0.0810 -0.1241
 4805TIP3    H138610   0.724   1.801   9.310 -0.6887 -1.3964  1.5321
 4805TIP3    H238611   0.679   1.793   9.165  1.3185  1.3518  0.6820
 4806TIP3   OH238612   0.774   2.814   7.211  0.3788  0.0340 -0.5422
 4806TIP3    H138613   0.771   2.829   7.117  0.1624  0.4443 -0.4744
 4806TIP3    H238614   0.812   2.894   7.247 -0.8188  0.4578 -0.1695
 4807TIP3   OH238615   6.462   4.540   9.073 -0.1434 -0.4592  0.1163
 4807TIP3    H138616   6.519   4.472   9.110  1.2533 -0.2466 -1.5315
 4807TIP3    H238617   6.376   4.498   9.068  0.8186 -2.4332 -1.5397
 4808TIP3   OH238618   2.403   3.032   9.030  1.0789  0.0963  0.1353
 4808TIP3    H138619   2.469   3.002   9.093  2.3137  0.1869 -1.0494
 4808TIP3    H238620   2.384   2.955   8.977  0.6911  0.2291  0.0804
 4809TIP3   OH238621   2.473   3.944   7.698  0.1540 -0.5048 -0.6736
 4809TIP3    H138622   2.411   3.914   7.765  0.3097  0.9431  0.1709
 4809TIP3    H238623   2.458   4.039   7.692  1.7466 -0.2362 -0.9857
 4810TIP3   OH238624   4.869   6.043   8.287 -0.0890  0.2474 -0.0932
 4810TIP3    H138625   4.850   6.136   8.271 -1.1963 -0.1556 -1.2120
 4810TIP3    H238626   4.893   6.040   8.380  3.2260  2.1362 -0.7509
 4811TIP3   OH238627   4.564   7.208   7.498  0.1885 -0.0893  0.1099
 4811TIP3    H138628   4.583   7.239   7.586 -0.8478 -0.2899  0.4127
 4811TIP3    H238629   4.625   7.135   7.484  2.3785  1.7162 -0.4508
 4812TIP3   OH238630   4.447   0.394   9.239  0.0201 -0.2865  0.1899
 4812TIP3    H138631   4.522   0.336   9.250 -0.1486 -0.4254  0.6289
 4812TIP3    H238632   4.409   0.369   9.155  0.8340  0.2128 -0.3370
 4813TIP3   OH238633   3.766   2.541   8.136 -0.1179 -0.1185  0.1339
 4813TIP3    H138634   3.693   2.511   8.082 -1.3716  0.7355  1.2761
 4813TIP3    H238635   3.826   2.467   8.140  0.7944  0.2438 -3.5877
 4814TIP3   OH238636   1.129   1.354   7.956 -0.0294  0.0083 -0.3644
 4814TIP3    H138637   1.220   1.347   7.926  1.2033  1.6313  2.5921
 4814TIP3    H238638   1.130   1.315   8.044 -2.2691 -0.0574 -0.3075
 4815TIP3   OH238639   2.152   3.815   6.706 -0.1039 -0.2671  0.1812
 4815TIP3    H138640   2.223   3.870   6.738 -0.3907  0.2480 -0.0518
 4815TIP3    H238641   2.073   3.869   6.717 -0.3644 -0.5612 -0.2051
 4816TIP3   OH238642   5.652   2.361   8.681  0.1331  0.3030  0.0426
 4816TIP3    H138643   5.732   2.368   8.628  0.1710  2.5702  0.2852
 4816TIP3    H238644   5.670   2.413   8.759 -0.7797 -1.0553  1.2107
 4817TIP3   OH238645   5.342   2.518   9.587  0.7699  0.0646 -0.0491
 4817TIP3    H138646   5.372   2.477   9.506 -0.7822 -1.9275  0.2870
 4817TIP3    H238647   5.274   2.459   9.620  0.6560  1.3204  2.2039
 4818TIP3   OH238648   3.725   5.065   8.278 -0.6257  0.0129 -0.2018
 4818TIP3    H138649   3.805   5.110   8.252 -1.2797  1.0360 -0.5288
 4818TIP3    H238650   3.748   5.018   8.358  0.8423 -1.4029 -1.3674
 4819TIP3   OH238651   7.531   5.544   7.972  0.3819 -0.2361 -0.2223
 4819TIP3    H138652   7.488   5.490   8.038 -1.5024  2.0476  0.5530
 4819TIP3    H238653   7.497   5.513   7.889 -1.0369 -0.0087  0.2471
 4820TIP3   OH238654   2.857   4.191   7.119 -0.1957 -0.0831 -0.7932
 4820TIP3    H138655   2.876   4.201   7.026  2.2024 -1.0257 -0.4746
 4820TIP3    H238656   2.908   4.114   7.146 -3.0271 -1.6125  0.7353
 4821TIP3   OH238657   4.427   4.436   9.218 -0.4257 -0.6773 -0.4901
 4821TIP3    H138658   4.496   4.473   9.163 -0.6807  1.0529  0.2755
 4821TIP3    H238659   4.470   4.365   9.266 -0.2691 -2.4323 -3.0233
 4822TIP3   OH238660   6.190   0.169   9.398  0.1608  1.0829 -0.2226
 4822TIP3    H138661   6.244   0.160   9.477 -0.0810  1.4007 -0.0154
 4822TIP3    H238662   6.237   0.121   9.331  0.0600  0.2864  0.2658
 4823TIP3   OH238663   2.900   1.617   8.466 -0.1987  0.0600  0.2737
 4823TIP3    H138664   2.828   1.605   8.528  0.8193 -0.3194  1.4190
 4823TIP3    H238665   2.950   1.536   8.471 -0.3272 -0.1726 -1.4150
 4824TIP3   OH238666   0.779   4.554   8.844 -0.0900  0.1677 -0.2346
 4824TIP3    H138667   0.686   4.542   8.859 -0.2708  0.1673 -1.2943
 4824TIP3    H238668   0.807   4.615   8.912 -0.6565 -0.5931  0.6932
 4825TIP3   OH238669   2.907   5.186   7.519 -0.1492 -0.1613  0.2582
 4825TIP3    H138670   2.862   5.194   7.603  0.0603 -2.9862  0.7395
 4825TIP3    H238671   3.000   5.195   7.541 -0.2020  1.6339 -0.1156
 4826TIP3   OH238672   0.729   3.092   9.373 -0.5326  0.0600 -0.2693
 4826TIP3    H138673   0.663   3.138   9.321  0.3776 -0.3996 -1.8924
 4826TIP3    H238674   0.784   3.046   9.308  2.1990  1.4623  0.8825
 4827TIP3   OH238675   6.474   1.079   8.593 -0.0027  0.0700 -0.4582
 4827TIP3    H138676   6.403   1.086   8.529 -1.5683 -1.8653  0.9526
 4827TIP3    H238677   6.550   1.115   8.548 -1.0323 -1.1454 -3.3850
 4828TIP3   OH238678   5.110   0.631   7.797  0.1654  0.0799  0.3348
 4828TIP3    H138679   5.176   0.645   7.865  0.6672 -3.3035  0.7065
 4828TIP3    H238680   5.071   0.547   7.818 -0.7308 -0.3935 -2.7363
 4829TIP3   OH238681   2.765   0.810   8.344  0.0268  0.9325  0.9390
 4829TIP3    H138682   2.697   0.743   8.355  0.2336  0.5837  0.1928
 4829TIP3    H238683   2.723   0.878   8.291  0.2999  0.6320  0.3211
 4830TIP3   OH238684   6.171   0.980   8.894  0.5021  0.3484 -0.7249
 4830TIP3    H138685   6.117   0.909   8.927  1.3852 -0.9337 -1.9051
 4830TIP3    H238686   6.125   1.012   8.816 -0.3278  1.6987  0.2726
 4831TIP3   OH238687   1.862   2.123   8.123  0.5176 -0.6371 -0.3239
 4831TIP3    H138688   1.771   2.104   8.099  0.4501 -0.6844 -0.0337
 4831TIP3    H238689   1.881   2.062   8.194  1.3516 -1.8633 -1.5584
 4832TIP3   OH238690   0.825   4.766   8.514  0.2409 -0.3875 -0.0877
 4832TIP3    H138691   0.730   4.774   8.512  0.2080 -0.3960  0.9506
 4832TIP3    H238692   0.852   4.779   8.423 -0.7467 -0.3630 -0.3881
 4833TIP3   OH238693   2.477   6.344   9.845 -0.6207  0.2073 -0.7322
 4833TIP3    H138694   2.568   6.337   9.872 -0.3907  1.7106 -1.0090
 4833TIP3    H238695   2.438   6.403   9.909 -0.7846  1.4821 -1.9618
 4834TIP3   OH238696   1.137   1.520   9.548  0.1896 -0.1516 -0.5929
 4834TIP3    H138697   1.070   1.551   9.487  0.1933 -0.6093 -0.8278
 4834TIP3    H238698   1.121   1.570   9.628 -0.3493 -0.1649 -0.6888
 4835TIP3   OH238699   4.594   2.897   8.694  0.0700  0.1023 -0.7681
 4835TIP3    H138700   4.669   2.920   8.639  0.6974 -0.4277 -0.1611
 4835TIP3    H238701   4.617   2.811   8.729  0.0398  0.7564  0.9259
 4836TIP3   OH238702   0.118   6.051   9.298  0.0323  0.0113  0.8043
 4836TIP3    H138703   0.088   6.048   9.208  0.7824 -2.1697  0.5683
 4836TIP3    H238704   0.134   6.144   9.315  1.0665  0.3608 -1.6981
 4837TIP3   OH238705   6.995   0.636   7.951 -0.3267 -0.0181 -0.0329
 4837TIP3    H138706   6.959   0.720   7.980 -1.6074 -0.6429  0.2773
 4837TIP3    H238707   6.965   0.628   7.860 -1.6225 -0.8680  0.4503
 4838TIP3   OH238708   5.043   4.331   8.509 -0.3578  0.2654 -0.2109
 4838TIP3    H138709   5.118   4.282   8.543 -1.5431  0.3467  2.8381
 4838TIP3    H238710   4.978   4.264   8.487 -1.1146  0.2940  1.7550
 4839TIP3   OH238711   5.904   6.697   7.939  0.4445 -0.1088  0.4007
 4839TIP3    H138712   5.898   6.694   8.035 -1.1929 -1.8103  0.3040
 4839TIP3    H238713   5.938   6.611   7.915  0.3259  0.1147 -0.5823
 4840TIP3   OH238714   5.862   3.848   8.073  0.1266  0.1771 -0.3144
 4840TIP3    H138715   5.834   3.913   8.009 -1.9850 -0.2803  0.0684
 4840TIP3    H238716   5.832   3.764   8.038  2.4472 -0.5951 -0.6057
 4841TIP3   OH238717   1.006   1.793   7.753 -0.6759 -0.1209 -0.0096
 4841TIP3    H138718   0.915   1.816   7.733  0.2245  2.2513 -1.9864
 4841TIP3    H238719   1.042   1.872   7.793  0.4978 -1.0628  0.8627
 4842TIP3   OH238720   4.132   1.332   7.824 -0.2851  0.1976 -0.3258
 4842TIP3    H138721   4.171   1.261   7.772 -1.7674 -0.9379  0.0358
 4842TIP3    H238722   4.197   1.348   7.893  0.1542 -0.7143 -0.5046
 4843TIP3   OH238723   1.929   6.617   9.545  0.3737  0.1226 -0.0656
 4843TIP3    H138724   1.952   6.677   9.616  0.0528  0.7603 -0.5021
 4843TIP3    H238725   2.005   6.560   9.537 -0.2524 -1.1442  2.0091
 4844TIP3   OH238726   6.245   7.331   7.961  0.0789  0.5975 -0.0022
 4844TIP3    H138727   6.270   7.412   8.005  0.9577 -0.6272  1.9100
 4844TIP3    H238728   6.322   7.275   7.967 -0.6786 -0.5930 -0.7720
 4845TIP3   OH238729   1.050   6.630   9.404  0.2070 -0.2175 -0.0169
 4845TIP3    H138730   1.085   6.689   9.470  1.3307 -2.7776  1.8539
 4845TIP3    H238731   1.012   6.558   9.455  0.5588 -2.0138 -2.1497
 4846TIP3   OH238732   3.062   0.536   9.079  0.3535 -0.5889  0.2658
 4846TIP3    H138733   3.067   0.628   9.107  2.0237 -0.9371  1.2445
 4846TIP3    H238734   2.972   0.525   9.049 -0.5568  0.7746  2.2719
 4847TIP3   OH238735   2.009   5.505   7.811 -0.3751 -0.7972 -1.0422
 4847TIP3    H138736   2.009   5.593   7.848 -1.0946 -0.8644 -0.8735
 4847TIP3    H238737   1.923   5.496   7.771 -0.4914 -1.6057 -0.6247
 4848TIP3   OH238738   4.743   3.632   8.283  0.1587  0.1986  0.3658
 4848TIP3    H138739   4.689   3.581   8.223  2.4603  0.2884 -1.9765
 4848TIP3    H238740   4.699   3.626   8.367 -1.7540 -2.3180 -0.7077
 4849TIP3   OH238741   3.465   7.426   8.850 -0.5808  0.4403  0.4914
 4849TIP3    H138742   3.559   7.417   8.863 -0.8280 -1.8963  1.0786
 4849TIP3    H238743   3.432   7.336   8.845 -2.5373  1.1791 -1.7378
 4850TIP3   OH238744   1.933   3.481   8.634  0.2240 -0.3250 -0.0839
 4850TIP3    H138745   1.973   3.566   8.656 -1.5488  0.8468 -1.1112
 4850TIP3    H238746   1.937   3.430   8.714 -0.4922  1.4962  1.1655
 4851TIP3   OH238747   6.162   4.490   8.036 -0.0181 -0.4522 -0.3143
 4851TIP3    H138748   6.124   4.577   8.021 -0.0760 -0.0413  1.8511
 4851TIP3    H238749   6.097   4.429   8.000 -2.2162  0.2782  2.0923
 4852TIP3   OH238750   4.083   6.893   8.508 -0.4549  0.3796 -0.0111
 4852TIP3    H138751   4.087   6.818   8.449  0.9413 -0.8459  1.5645
 4852TIP3    H238752   4.024   6.955   8.463  0.8392 -0.2779 -2.8564
 4853TIP3   OH238753   4.021   4.060   8.088 -0.1981 -0.4077  0.2610
 4853TIP3    H138754   3.938   4.090   8.052 -0.1807  0.1406  0.6578
 4853TIP3    H238755   4.028   4.105   8.172  1.0056  0.4028 -0.2540
 4854TIP3   OH238756   5.537   3.500   8.182  0.0467 -0.2798  0.6276
 4854TIP3    H138757   5.577   3.561   8.243 -2.2384 -1.0756  3.1365
 4854TIP3    H238758   5.450   3.537   8.163 -0.7265 -1.8725  0.8706
 4855TIP3   OH238759   0.117   3.457   8.156 -0.0868  0.3144 -0.2478
 4855TIP3    H138760   0.052   3.492   8.096 -0.1845  1.4861  0.5057
 4855TIP3    H238761   0.188   3.426   8.100 -0.4314  0.8551 -0.9880
 4856TIP3   OH238762   5.219   6.800   8.154  0.2333  0.3273 -0.4973
 4856TIP3    H138763   5.211   6.895   8.147  0.9398  0.5455  1.1272
 4856TIP3    H238764   5.298   6.786   8.206 -0.1104 -1.1289 -0.3081
 4857TIP3   OH238765   7.171   2.053   7.370  0.0049  0.3485  0.1412
 4857TIP3    H138766   7.251   2.019   7.410 -0.0077  2.4227  2.1491
 4857TIP3    H238767   7.201   2.099   7.292  0.6371  0.2645  0.3282
 4858TIP3   OH238768   6.834   5.420   8.851 -0.1512  0.2042 -0.8693
 4858TIP3    H138769   6.860   5.328   8.843 -0.2828  0.1866 -1.0963
 4858TIP3    H238770   6.840   5.438   8.945 -1.8215 -0.5428 -0.5811
 4859TIP3   OH238771   5.430   5.263   8.713 -0.0382  0.1181 -0.7737
 4859TIP3    H138772   5.507   5.250   8.769  0.4908  0.4406 -1.4137
 4859TIP3    H238773   5.367   5.199   8.745 -0.1751  1.0425  0.9458
 4860TIP3   OH238774   0.346   1.361   8.932  0.1592  0.1346  0.1495
 4860TIP3    H138775   0.329   1.292   8.996 -2.2795  1.4460  1.0859
 4860TIP3    H238776   0.408   1.419   8.975  0.6521 -0.4166  0.1883
 4861TIP3   OH238777   0.076   2.354   6.828  0.2138 -0.2860 -0.0309
 4861TIP3    H138778   0.003   2.292   6.827  1.3642 -1.6845 -0.3117
 4861TIP3    H238779   0.135   2.323   6.760  1.3923  0.4117  0.6359
 4862TIP3   OH238780   3.591   0.202   7.045 -0.4566  0.4641  0.7634
 4862TIP3    H138781   3.535   0.126   7.027 -0.5951  0.5929  0.6557
 4862TIP3    H238782   3.614   0.236   6.958 -1.9003  1.6619  0.8027
 4863TIP3   OH238783   6.544   3.593   7.932  0.0880 -0.0927 -0.3461
 4863TIP3    H138784   6.620   3.603   7.875  0.7178 -0.9963  0.2948
 4863TIP3    H238785   6.482   3.541   7.881  0.3809 -0.3400 -0.4499
 4864TIP3   OH238786   1.537   3.516   7.933  0.2533 -0.3748  0.0290
 4864TIP3    H138787   1.540   3.558   7.846  0.7543  0.3921  0.4042
 4864TIP3    H238788   1.496   3.581   7.989  1.4420 -0.1883  0.7170
 4865TIP3   OH238789   1.557   6.117   7.963  0.3013 -0.4510  0.3101
 4865TIP3    H138790   1.584   6.209   7.973 -0.4332  0.0942 -2.0068
 4865TIP3    H238791   1.465   6.116   7.991  0.6784 -0.8048  1.6024
 4866TIP3   OH238792   5.940   6.253   8.263 -0.0781 -0.0339 -0.1480
 4866TIP3    H138793   6.004   6.292   8.323 -0.2697 -0.3003  0.2318
 4866TIP3    H238794   5.876   6.323   8.248 -0.1881 -0.0576  0.1939
 4867TIP3   OH238795   0.269   2.589   7.637  0.6044  0.0117 -0.0815
 4867TIP3    H138796   0.202   2.566   7.701  0.9137  3.2759  1.6601
 4867TIP3    H238797   0.293   2.506   7.596 -1.7531 -1.8166  1.9237
 4868TIP3   OH238798   0.568   2.226   7.000  0.0555  0.0706 -0.7904
 4868TIP3    H138799   0.586   2.134   7.020  0.6990  0.3336 -0.1456
 4868TIP3    H238800   0.518   2.258   7.075  1.1819  0.6611 -0.2743
 4869TIP3   OH238801   0.926   1.326   9.595 -0.0551  0.1208 -0.4590
 4869TIP3    H138802   0.971   1.368   9.522  0.1032  0.7438 -0.0111
 4869TIP3    H238803   0.960   1.236   9.596 -0.5108 -0.0745 -1.5183
 4870TIP3   OH238804   3.749   3.994   8.237  0.0590  0.3923 -0.0802
 4870TIP3    H138805   3.820   3.936   8.211  1.9554  2.9716 -1.0641
 4870TIP3    H238806   3.711   3.952   8.314  1.9188 -1.6345 -0.1735
 4871TIP3   OH238807   5.981   2.238   6.754  0.2362 -0.2479 -0.6454
 4871TIP3    H138808   5.988   2.330   6.727 -1.7771  0.1940  0.1544
 4871TIP3    H238809   6.033   2.191   6.689  2.0445  1.4992 -0.5817
 4872TIP3   OH238810   0.168   3.430   7.667  0.8319 -0.0517 -0.2300
 4872TIP3    H138811   0.155   3.367   7.738  1.5334  1.2376  1.0966
 4872TIP3    H238812   0.081   3.443   7.630  1.0419 -4.0271 -2.5947
 4873TIP3   OH238813   4.126   1.362   9.341  0.2870 -0.3936 -0.0867
 4873TIP3    H138814   4.208   1.333   9.381 -0.5243 -0.8368  1.3121
 4873TIP3    H238815   4.126   1.457   9.352  0.1906 -0.4864  0.7608
 4874TIP3   OH238816   0.683   3.612   8.508 -0.3217 -0.5059 -0.3523
 4874TIP3    H138817   0.760   3.568   8.544 -1.3473 -1.4515  0.7936
 4874TIP3    H238818   0.693   3.704   8.532  1.1439 -0.3230 -1.5132
 4875TIP3   OH238819   4.495   2.516   8.016  0.2083 -0.5223  0.1020
 4875TIP3    H138820   4.515   2.424   8.000  1.4056 -0.1493 -0.7497
 4875TIP3    H238821   4.401   2.525   7.999  0.5872 -1.0307 -2.7675
 4876TIP3   OH238822   3.626   5.448   8.437 -0.4349 -0.2513 -0.2535
 4876TIP3    H138823   3.569   5.372   8.440  0.7424 -1.3111 -2.2855
 4876TIP3    H238824   3.677   5.436   8.357  2.1848  0.9548  1.1157
 4877TIP3   OH238825   1.735   4.573   8.690  0.4847  0.3351 -0.3352
 4877TIP3    H138826   1.743   4.544   8.599  0.8424  0.8029 -0.4527
 4877TIP3    H238827   1.663   4.520   8.725 -0.4954  1.0296 -1.2415
 4878TIP3   OH238828   6.694   0.949   8.243 -0.5076 -0.5115 -0.2181
 4878TIP3    H138829   6.605   0.966   8.212  0.3481  1.6894 -1.6840
 4878TIP3    H238830   6.684   0.875   8.304 -3.4761  0.3339  0.5124
 4879TIP3   OH238831   2.384   2.825   8.862 -0.1189 -0.0382 -0.1448
 4879TIP3    H138832   2.422   2.741   8.835 -1.4513 -0.7816  0.2520
 4879TIP3    H238833   2.374   2.873   8.780  2.1494  0.4231 -0.2252
 4880TIP3   OH238834   4.431   7.045   9.765  1.1603 -0.0725  0.1956
 4880TIP3    H138835   4.382   7.119   9.728 -0.0536 -1.2196 -0.5866
 4880TIP3    H238836   4.519   7.079   9.777  0.5278  1.6413  0.3080
 4881TIP3   OH238837   2.376   0.755   9.411 -0.2433 -0.0429 -0.8483
 4881TIP3    H138838   2.336   0.709   9.485 -0.4320  0.4645 -0.6270
 4881TIP3    H238839   2.379   0.690   9.341  1.5482 -1.0612  0.1116
 4882TIP3   OH238840   3.017   6.001   7.121  0.1986  0.6864  0.2605
 4882TIP3    H138841   2.936   5.963   7.155  0.0616  0.7347 -0.0048
 4882TIP3    H238842   3.041   5.944   7.047 -1.2854  2.3959 -1.6732
 4883TIP3   OH238843   3.268   7.498   7.003  0.1107  0.0735 -0.7381
 4883TIP3    H138844   3.234   7.584   7.025  1.5505  0.0893  1.7329
 4883TIP3    H238845   3.340   7.515   6.943 -0.0902  0.5229 -0.8503
 4884TIP3   OH238846   1.261   6.035   8.004  0.2437  0.3262 -0.6421
 4884TIP3    H138847   1.268   5.954   7.953 -1.6885 -0.0998 -0.3278
 4884TIP3    H238848   1.204   6.012   8.077  0.2215  1.7985 -0.1673
 4885TIP3   OH238849   1.013   3.667   7.349 -0.5451 -0.0011  0.0040
 4885TIP3    H138850   1.096   3.714   7.357 -1.1264  1.2025 -0.7111
 4885TIP3    H238851   1.031   3.593   7.291 -0.1068  0.6069 -0.6409
 4886TIP3   OH238852   1.037   0.443   9.147 -0.0721  0.6262 -0.0815
 4886TIP3    H138853   1.067   0.359   9.183  1.5727  1.0451 -0.3751
 4886TIP3    H238854   0.944   0.446   9.167 -0.0997 -1.1292  0.2168
 4887TIP3   OH238855   6.581   0.075   8.034  0.3997  0.1686 -0.6435
 4887TIP3    H138856   6.618   0.163   8.031  2.2839 -0.4877  0.8694
 4887TIP3    H238857   6.646   0.020   7.990  0.0141 -0.6898 -0.1720
 4888TIP3   OH238858   2.841   6.984   9.008  0.3325 -1.0535  0.4467
 4888TIP3    H138859   2.821   7.054   8.945 -1.5142 -2.1819 -0.3200
 4888TIP3    H238860   2.934   6.965   8.994  0.5068  0.2411 -0.3520
 4889TIP3   OH238861   4.503   6.690   6.971  0.5147 -0.6445 -0.0361
 4889TIP3    H138862   4.579   6.746   6.985 -0.1065  0.3591 -0.5743
 4889TIP3    H238863   4.471   6.669   7.059  0.1296  0.7315  0.1711
 4890TIP3   OH238864   5.985   7.345   8.926 -0.5492  0.1162  0.2121
 4890TIP3    H138865   5.905   7.333   8.978 -1.0032  0.9333 -0.2640
 4890TIP3    H238866   6.043   7.275   8.954 -1.0053  0.1945  1.3933
 4891TIP3   OH238867   2.909   4.229   6.859  0.1316  0.3534 -0.2216
 4891TIP3    H138868   2.856   4.299   6.820  0.3377  0.6634  0.0583
 4891TIP3    H238869   2.974   4.207   6.792  0.3687  0.7607 -0.1261
 4892TIP3   OH238870   6.664   2.546   9.449  0.5304 -0.9741  0.3240
 4892TIP3    H138871   6.653   2.638   9.474  1.2890 -1.1063  1.2176
 4892TIP3    H238872   6.749   2.522   9.485  0.7140 -1.8053 -0.6140
 4893TIP3   OH238873   6.845   2.164   7.835  0.4238  0.0233 -0.2235
 4893TIP3    H138874   6.863   2.144   7.927  1.8961 -1.3600 -0.7578
 4893TIP3    H238875   6.888   2.248   7.819  1.5179 -0.4759 -0.0076
 4894TIP3   OH238876   6.310   3.308   9.536 -0.2665  0.9038 -0.5095
 4894TIP3    H138877   6.364   3.255   9.477  0.0972 -0.2168  0.7744
 4894TIP3    H238878   6.342   3.397   9.524  0.5811  0.5317 -1.1434
 4895TIP3   OH238879   1.924   6.499   9.059  0.4961  0.5907 -0.0887
 4895TIP3    H138880   1.981   6.445   9.113  0.8752  0.4265 -0.6484
 4895TIP3    H238881   1.973   6.580   9.046 -0.0179  1.0298  0.6435
 4896TIP3   OH238882   5.321   0.300   9.006 -0.0577  0.3698  0.1779
 4896TIP3    H138883   5.317   0.334   9.095  0.3744  0.7935  0.0444
 4896TIP3    H238884   5.413   0.275   8.994 -0.6930 -2.5861  0.8821
 4897TIP3   OH238885   6.131   2.507   6.689  0.4677  0.2190 -0.2298
 4897TIP3    H138886   6.223   2.491   6.708  0.4088  0.0229 -0.1001
 4897TIP3    H238887   6.131   2.563   6.612  0.6862 -0.2282 -0.5535
 4898TIP3   OH238888   0.836   1.847   8.778  0.0840  0.3377 -0.1245
 4898TIP3    H138889   0.885   1.805   8.707  0.6583 -1.6527  1.3496
 4898TIP3    H238890   0.744   1.836   8.753  0.2985  1.0508 -1.2785
 4899TIP3   OH238891   0.025   2.620   8.964 -0.7013 -0.9565  0.0215
 4899TIP3    H138892   0.112   2.623   9.004 -0.4305 -0.0399 -0.6202
 4899TIP3    H238893  -0.031   2.587   9.034 -0.0479 -0.3958  0.8396
 4900TIP3   OH238894   0.016   0.447   7.733  0.3437 -0.0169 -0.8819
 4900TIP3    H138895  -0.035   0.393   7.793  0.1606  0.6787 -0.4009
 4900TIP3    H238896  -0.042   0.460   7.657  0.9364 -1.7105 -1.6801
 4901TIP3   OH238897   0.991   2.077   8.189  1.1773  0.4572  0.4982
 4901TIP3    H138898   1.002   1.983   8.174  1.6659  0.3602  1.4123
 4901TIP3    H238899   1.015   2.090   8.281 -0.5439  1.2085  0.8841
 4902TIP3   OH238900   0.027   1.497   7.530 -0.5807 -0.3097 -0.0824
 4902TIP3    H138901   0.027   1.465   7.620 -1.3028 -0.5154 -0.1516
 4902TIP3    H238902   0.112   1.469   7.495  0.2859  0.9707  0.9335
 4903TIP3   OH238903   2.006   1.192   7.906 -0.2313  0.3053  0.5807
 4903TIP3    H138904   2.061   1.150   7.841  0.1697 -2.2096  2.3926
 4903TIP3    H238905   2.047   1.277   7.922 -0.5923  1.2201 -2.6308
 4904TIP3   OH238906   5.260   7.445   8.792  0.3443  0.7051 -0.2978
 4904TIP3    H138907   5.324   7.471   8.858  1.9488 -1.4616 -0.8780
 4904TIP3    H238908   5.313   7.403   8.724 -1.6048 -0.2031 -1.3171
 4905TIP3   OH238909   3.352   0.021   8.637 -0.1458 -0.5257  0.0327
 4905TIP3    H138910   3.268  -0.022   8.622  0.0828 -0.5731 -1.2086
 4905TIP3    H238911   3.380  -0.010   8.723 -1.4048 -0.4872  0.4770
 4906TIP3   OH238912   1.855   1.968   7.666 -0.6234  0.3620  0.1387
 4906TIP3    H138913   1.904   1.932   7.592  1.5671  1.8069  0.7918
 4906TIP3    H238914   1.824   2.053   7.635 -1.7818 -0.0531  0.1205
 4907TIP3   OH238915   6.691   4.517   7.897 -0.4682  0.5157 -0.0158
 4907TIP3    H138916   6.604   4.477   7.906 -0.4143  0.1975 -0.8277
 4907TIP3    H238917   6.751   4.443   7.902 -0.1514  0.8633  1.7788
 4908TIP3   OH238918   3.684   0.947   8.672  0.4757 -0.4349  0.0885
 4908TIP3    H138919   3.741   1.021   8.692 -0.5681  0.7443 -1.0970
 4908TIP3    H238920   3.665   0.908   8.757  2.1306 -0.2045  0.6171
 4909TIP3   OH238921   0.878   1.106   8.218 -0.3812 -0.9103  1.0621
 4909TIP3    H138922   0.890   1.060   8.300 -0.7404 -0.3242  1.4497
 4909TIP3    H238923   0.783   1.114   8.208 -0.3418 -0.9678  0.5975
 4910TIP3   OH238924   0.858   3.780   7.900  1.0951  0.2694 -0.0482
 4910TIP3    H138925   0.869   3.726   7.978 -0.5491 -0.8194 -0.5140
 4910TIP3    H238926   0.910   3.859   7.918  2.3851 -0.8138  1.2647
 4911TIP3   OH238927   2.991   0.106   9.461  0.4046  0.3346  0.0005
 4911TIP3    H138928   3.041   0.046   9.405  1.8590  0.0009  1.5945
 4911TIP3    H238929   2.989   0.189   9.412  2.0146  0.1699 -0.3770
 4912TIP3   OH238930   5.569   1.021   6.905  1.2915 -0.5091  0.0679
 4912TIP3    H138931   5.607   0.976   6.829  0.6296  1.1080 -1.2875
 4912TIP3    H238932   5.645   1.055   6.953  1.7037  0.5498 -1.2507
 4913TIP3   OH238933   5.076   5.477   6.888  0.4202  0.2728  0.2968
 4913TIP3    H138934   5.026   5.407   6.929  2.1257 -0.3570  1.3825
 4913TIP3    H238935   5.016   5.513   6.822 -1.7295  0.0564  2.0036
 4914TIP3   OH238936   4.891   5.368   8.371 -0.0637 -0.1615  0.3280
 4914TIP3    H138937   4.823   5.343   8.308 -0.1563 -1.0949  0.7839
 4914TIP3    H238938   4.909   5.460   8.352 -2.2093  0.4137  0.8914
 4915TIP3   OH238939   4.192   1.883   8.426 -0.7159 -0.0150  0.0785
 4915TIP3    H138940   4.136   1.921   8.493 -0.1686  0.7048  0.1396
 4915TIP3    H238941   4.254   1.952   8.403  1.2863 -1.2986  1.2549
 4916TIP3   OH238942   3.858   5.864   6.874 -0.1140 -0.0867 -0.2264
 4916TIP3    H138943   3.918   5.792   6.857 -0.5156 -0.5822  0.4254
 4916TIP3    H238944   3.794   5.829   6.937 -1.0698  0.4359 -0.8768
 4917TIP3   OH238945   1.614   0.191   7.860 -0.1194  0.9384 -0.2122
 4917TIP3    H138946   1.705   0.168   7.878  0.0060  1.0636 -0.6783
 4917TIP3    H238947   1.563   0.130   7.914  0.2352  0.7783 -0.0531
 4918TIP3   OH238948   4.567   4.314   8.884  0.9166  0.4603 -0.0589
 4918TIP3    H138949   4.493   4.343   8.831  1.4066  0.5075 -0.7244
 4918TIP3    H238950   4.552   4.220   8.896 -0.5292  0.8667  1.8813
 4919TIP3   OH238951   7.469   2.422   9.824  0.0074  0.5731 -0.5517
 4919TIP3    H138952   7.560   2.445   9.845  0.5692 -1.1672 -0.9084
 4919TIP3    H238953   7.429   2.401   9.909 -0.0512  1.2369 -0.4061
 4920TIP3   OH238954   7.353   5.410   8.147 -0.1646  0.0726 -0.0316
 4920TIP3    H138955   7.270   5.367   8.126  0.2950 -0.5017 -0.6891
 4920TIP3    H238956   7.420   5.351   8.114  0.5013  0.7839  0.0287
 4921TIP3   OH238957   6.399   5.919   9.683 -0.6456  0.0455  0.0330
 4921TIP3    H138958   6.446   5.871   9.614 -2.0790 -0.1892 -0.8311
 4921TIP3    H238959   6.309   5.928   9.649 -1.1080  0.9177  1.3929
 4922TIP3   OH238960   0.871   6.429   7.617 -0.7814 -0.0152 -0.1802
 4922TIP3    H138961   0.827   6.507   7.650 -2.3024 -0.0778 -1.9280
 4922TIP3    H238962   0.889   6.449   7.525  1.0630 -0.7957 -0.0305
 4923TIP3   OH238963   0.206   7.127   7.618 -0.8081  0.0499  0.0293
 4923TIP3    H138964   0.230   7.134   7.525 -0.6346  1.7581  0.1700
 4923TIP3    H238965   0.251   7.048   7.648  1.8104  1.1773 -0.6021
 4924TIP3   OH238966   6.997   7.482   9.155  0.3439  0.2866 -0.4324
 4924TIP3    H138967   6.936   7.552   9.178 -0.0796 -0.3460  0.4273
 4924TIP3    H238968   6.941   7.412   9.121  0.6969  0.0887 -0.6144
 4925TIP3   OH238969   2.649   1.113   9.266  0.1136  0.6971  0.0748
 4925TIP3    H138970   2.642   1.203   9.298  3.7628  0.7565  1.1085
 4925TIP3    H238971   2.628   1.059   9.342  0.6204  0.7087  0.2215
 4926TIP3   OH238972   1.251   4.373   7.744 -0.3898 -0.3252 -0.0020
 4926TIP3    H138973   1.345   4.379   7.761 -0.7596 -0.6404  2.4409
 4926TIP3    H238974   1.225   4.461   7.716  0.6090 -0.2345 -0.6862
 4927TIP3   OH238975   3.004   4.990   7.306 -0.4566  0.3384  0.2575
 4927TIP3    H138976   3.099   4.994   7.307 -0.4081  0.1191  2.5710
 4927TIP3    H238977   2.977   5.065   7.254  0.9771  0.5334 -0.2479
 4928TIP3   OH238978   1.027   4.868   7.640 -0.0691 -0.0103  0.1130
 4928TIP3    H138979   0.950   4.851   7.587  0.0122 -0.0818  0.0175
 4928TIP3    H238980   1.066   4.782   7.655  0.0956  0.0431  0.0034
 4929TIP3   OH238981   0.601   5.490   7.592 -0.0670 -0.0676  0.1857
 4929TIP3    H138982   0.633   5.457   7.676  0.7523  2.2374  0.8613
 4929TIP3    H238983   0.516   5.529   7.612  0.3101  0.8472  0.0717
 4930TIP3   OH238984   5.097   2.432   7.442 -0.4180  0.4472  0.3991
 4930TIP3    H138985   5.093   2.526   7.461  0.9312  0.4100  0.9773
 4930TIP3    H238986   5.012   2.398   7.468 -1.3602  1.7014 -0.9218
 4931TIP3   OH238987   1.231   4.569   8.559 -0.2460 -0.2060  0.2299
 4931TIP3    H138988   1.188   4.630   8.618  1.9812  1.9336 -0.1865
 4931TIP3    H238989   1.234   4.614   8.475  0.8424 -1.1538 -0.2762
 4932TIP3   OH238990   2.612   5.983   7.709 -0.2848  0.3036  0.4748
 4932TIP3    H138991   2.607   6.062   7.763 -0.8105  0.4984  0.1394
 4932TIP3    H238992   2.542   5.927   7.742  0.7667 -0.4905  1.4407
 4933TIP3   OH238993   5.475   1.316   7.108  0.2477  0.4533  0.2913
 4933TIP3    H138994   5.403   1.375   7.128 -0.2164  0.3372 -0.9434
 4933TIP3    H238995   5.508   1.347   7.024  0.2237 -0.8275 -0.2048
 4934TIP3   OH238996   1.508   2.372   8.459 -0.2713  0.0745  0.3197
 4934TIP3    H138997   1.582   2.421   8.494 -1.1876  1.4377  0.4412
 4934TIP3    H238998   1.450   2.358   8.534 -0.7983  0.2892 -0.0395
 4935TIP3   OH238999   1.405   2.849   8.184 -0.3029 -0.0799 -0.1637
 4935TIP3    H139000   1.447   2.876   8.265 -0.7333  0.9068 -0.2463
 4935TIP3    H239001   1.333   2.911   8.173 -0.7259 -0.6849 -0.8970
 4936TIP3   OH239002   1.339   7.135   8.715  0.1258 -0.0107 -0.4511
 4936TIP3    H139003   1.332   7.187   8.795 -0.6570 -0.5112 -0.1803
 4936TIP3    H239004   1.295   7.187   8.649  0.9040  0.4728 -0.6020
 4937TIP3   OH239005   5.640   0.477   9.223  0.1545 -0.1580 -0.0042
 4937TIP3    H139006   5.701   0.532   9.272  0.2690  0.5712 -0.9326
 4937TIP3    H239007   5.632   0.397   9.275 -0.8502  1.1517  1.9202
 4938TIP3   OH239008   3.243   3.998   9.277 -0.1017  0.1243 -0.0121
 4938TIP3    H139009   3.166   3.951   9.310  0.7714 -2.3253 -1.3082
 4938TIP3    H239010   3.236   3.992   9.182  1.6137  0.0179 -0.1469
 4939TIP3   OH239011   2.695   3.660   7.409  0.2026 -0.4959  0.0151
 4939TIP3    H139012   2.662   3.603   7.340  1.5033 -2.3394  0.8330
 4939TIP3    H239013   2.624   3.664   7.473 -0.5277  0.2152 -0.7984
 4940TIP3   OH239014   4.798   3.058   8.551  0.0296  0.6453  0.0503
 4940TIP3    H139015   4.793   3.076   8.645  1.4198  1.0123  0.0646
 4940TIP3    H239016   4.860   3.122   8.518  0.1288  0.0196 -1.0037
 4941TIP3   OH239017   4.104   6.453   7.610 -0.0344 -0.2047  0.1644
 4941TIP3    H139018   4.148   6.396   7.673  1.2643 -0.2306 -0.7307
 4941TIP3    H239019   4.163   6.527   7.599 -0.2450 -0.1946 -1.0045
 4942TIP3   OH239020   3.457   6.507   7.657  0.7538 -0.4419  0.0017
 4942TIP3    H139021   3.516   6.435   7.680 -0.0613 -1.3529 -0.6255
 4942TIP3    H239022   3.514   6.580   7.634  1.5968 -0.8030  0.9331
 4943TIP3   OH239023   6.217   1.482   6.793 -0.5339 -0.5386  0.4003
 4943TIP3    H139024   6.274   1.451   6.863 -0.5843 -0.2224  0.5805
 4943TIP3    H239025   6.135   1.434   6.806 -0.9051  0.2922  1.1950
 4944TIP3   OH239026   4.785   6.611   8.303  0.1006  0.1332 -0.1820
 4944TIP3    H139027   4.767   6.517   8.304  1.0821 -0.1176  2.3449
 4944TIP3    H239028   4.862   6.620   8.247  0.9599 -0.8319  0.7806
 4945TIP3   OH239029   7.341   6.281   8.052 -0.1853 -0.4503 -0.3580
 4945TIP3    H139030   7.411   6.299   7.989  0.3258  0.6150  0.4832
 4945TIP3    H239031   7.260   6.296   8.003  0.1839  2.5663 -0.2304
 4946TIP3   OH239032   4.235   7.493   9.493 -0.7191 -0.3904  0.0397
 4946TIP3    H139033   4.200   7.582   9.488  1.4707  0.5899  1.2009
 4946TIP3    H239034   4.252   7.470   9.402 -0.2184  0.8404 -0.1992
 4947TIP3   OH239035   3.506   0.933   7.895 -0.1606 -0.5032 -0.2396
 4947TIP3    H139036   3.573   0.972   7.952 -0.6424  0.7511 -0.4943
 4947TIP3    H239037   3.472   1.007   7.845 -3.2875 -0.6582  1.4126
 4948TIP3   OH239038   4.475   1.717   6.839 -0.1832 -0.3333 -0.0092
 4948TIP3    H139039   4.561   1.752   6.818 -0.9560  0.4424 -2.0890
 4948TIP3    H239040   4.454   1.658   6.767 -2.4320  1.4316 -0.9136
 4949TIP3   OH239041   1.013   7.163   8.136  0.1129  0.5327 -0.5752
 4949TIP3    H139042   1.089   7.157   8.079  1.0675 -1.1746  0.7731
 4949TIP3    H239043   0.973   7.076   8.132  0.9025 -0.0351  2.1946
 4950TIP3   OH239044   7.363   6.068   7.162 -0.3365 -1.0433  0.2187
 4950TIP3    H139045   7.380   6.069   7.068 -0.3741 -1.8994  0.1958
 4950TIP3    H239046   7.441   6.029   7.201 -0.0080 -0.0205  0.6212
 4951TIP3   OH239047   4.675   1.560   8.418 -0.1565 -0.1650 -0.2325
 4951TIP3    H139048   4.667   1.477   8.371 -3.1706  0.6330 -1.3833
 4951TIP3    H239049   4.603   1.559   8.481 -0.1678  1.4971 -0.1672
 4952TIP3   OH239050   3.006   4.467   8.116 -0.4587  0.4178  0.8929
 4952TIP3    H139051   2.919   4.442   8.148 -0.7267  2.2912  1.8071
 4952TIP3    H239052   2.989   4.542   8.059  0.5566  0.8763  1.1780
 4953TIP3   OH239053   1.900   3.768   8.741 -0.3729 -0.1993 -0.3870
 4953TIP3    H139054   1.951   3.844   8.714  0.1440 -0.3851  0.0501
 4953TIP3    H239055   1.956   3.722   8.803 -1.7275  0.4718  1.3942
 4954TIP3   OH239056   5.979   5.317   8.116  0.4296 -0.1885 -0.3610
 4954TIP3    H139057   6.053   5.340   8.172 -0.4604  0.2648  0.6688
 4954TIP3    H239058   5.922   5.264   8.171  0.0009 -0.5753 -1.1516
 4955TIP3   OH239059   1.140   1.870   6.660  0.3110 -0.8073  0.4574
 4955TIP3    H139060   1.073   1.844   6.723 -0.5577  0.1470 -0.0477
 4955TIP3    H239061   1.103   1.848   6.575  0.5899 -0.1695  0.1653
 4956TIP3   OH239062   2.441   2.205   8.866 -0.3024  0.1224  0.0502
 4956TIP3    H139063   2.388   2.271   8.911  0.1652  0.7722 -0.3442
 4956TIP3    H239064   2.497   2.255   8.807  0.6223 -0.5596  0.3180
 4957TIP3   OH239065   5.839   4.252   7.350  0.3815 -0.5865  0.0705
 4957TIP3    H139066   5.893   4.320   7.390 -0.3291  0.0824 -0.0784
 4957TIP3    H239067   5.897   4.211   7.286  0.9870 -0.4872  0.5449
 4958TIP3   OH239068   2.340   4.863   8.107  0.3284  0.2857  0.1548
 4958TIP3    H139069   2.295   4.939   8.071 -0.3932  0.0754  0.5909
 4958TIP3    H239070   2.368   4.890   8.194 -2.3908 -0.7769  1.4807
 4959TIP3   OH239071   2.879   6.373   8.458  0.6645 -0.1113  0.2817
 4959TIP3    H139072   2.965   6.411   8.473  2.0247 -2.8101 -0.0800
 4959TIP3    H239073   2.896   6.297   8.402 -1.9670 -0.7246  0.1909
 4960TIP3   OH239074   2.149   1.102   7.608  0.4907  0.0112 -0.2874
 4960TIP3    H139075   2.226   1.123   7.557  0.4185  0.1838 -0.3257
 4960TIP3    H239076   2.089   1.175   7.593 -0.8809 -1.4982 -2.6293
 4961TIP3   OH239077   3.388   0.493   8.775  0.2305 -0.0468 -0.3350
 4961TIP3    H139078   3.342   0.529   8.699 -0.6309  0.3323  0.3481
 4961TIP3    H239079   3.345   0.533   8.851 -0.5805 -2.2280  0.4554
 4962TIP3   OH239080   6.878   2.955   9.401 -0.3851 -0.3977 -0.4003
 4962TIP3    H139081   6.829   2.908   9.467  0.2738 -2.6904 -1.4486
 4962TIP3    H239082   6.968   2.924   9.411  0.1943  1.0353 -0.8324
 4963TIP3   OH239083   6.218   2.326   9.328  0.3412 -0.3036 -0.4499
 4963TIP3    H139084   6.298   2.315   9.378  1.9283  1.0215 -2.5345
 4963TIP3    H239085   6.218   2.253   9.265  1.4537  1.1851 -2.2887
 4964TIP3   OH239086   3.963   4.460   9.435  0.5993 -0.0982  0.0003
 4964TIP3    H139087   4.038   4.403   9.453 -0.5218 -1.2776  1.1203
 4964TIP3    H239088   3.948   4.506   9.517  0.2027  0.2498 -0.2665
 4965TIP3   OH239089   3.920   1.802   8.810 -0.0023 -0.5456 -0.5831
 4965TIP3    H139090   3.973   1.857   8.754 -1.8040  0.2819 -1.5615
 4965TIP3    H239091   3.899   1.725   8.757 -0.3685 -0.5260 -0.4730
 4966TIP3   OH239092   1.351   6.446   9.493 -0.3189  0.2692 -0.6625
 4966TIP3    H139093   1.374   6.536   9.469  0.3050  0.3883  0.3285
 4966TIP3    H239094   1.258   6.439   9.472 -1.4250  2.4208  2.6723
 4967TIP3   OH239095   3.732   6.750   9.393  0.1524 -0.2134 -0.1775
 4967TIP3    H139096   3.705   6.825   9.340 -1.4201 -0.8504 -0.3350
 4967TIP3    H239097   3.791   6.700   9.336 -1.3239 -0.7615 -1.2922
 4968TIP3   OH239098   3.654   6.370   8.497  0.1140 -0.1257  0.1698
 4968TIP3    H139099   3.636   6.361   8.403 -1.9677 -1.1387  0.6061
 4968TIP3    H239100   3.621   6.457   8.519 -1.7712 -0.8294  0.3763
 4969TIP3   OH239101   4.147   0.123   8.471 -0.4434  0.1152 -0.1270
 4969TIP3    H139102   4.166   0.213   8.496 -1.7936  0.0530  1.2002
 4969TIP3    H239103   4.069   0.129   8.415 -1.1434 -0.3004  0.7837
 4970TIP3   OH239104   3.685   1.580   9.652 -0.1549 -0.0069  0.5456
 4970TIP3    H139105   3.763   1.601   9.704 -0.9731 -0.5611  2.0733
 4970TIP3    H239106   3.713   1.591   9.561  1.7742 -0.4293  1.0316
 4971TIP3   OH239107   1.057   3.406   7.525 -0.3798 -0.1560 -0.5402
 4971TIP3    H139108   1.054   3.430   7.433 -1.4203 -0.4956 -0.6095
 4971TIP3    H239109   0.974   3.437   7.561 -0.0635 -0.1835  0.2496
 4972TIP3   OH239110   6.280   5.058   9.278  0.0338 -0.3053 -0.1397
 4972TIP3    H139111   6.346   5.123   9.253  3.8005 -2.0457  3.9164
 4972TIP3    H239112   6.224   5.105   9.340 -0.2114  0.2204 -0.7473
 4973TIP3   OH239113   0.618   1.158   8.117  0.0648  0.5681 -0.2786
 4973TIP3    H139114   0.630   1.253   8.106  1.5558  0.3430 -0.7952
 4973TIP3    H239115   0.582   1.129   8.033 -3.8861  1.1283  1.0177
 4974TIP3   OH239116   3.458   0.273   7.933 -0.3657 -0.5221 -0.5114
 4974TIP3    H139117   3.403   0.269   7.854 -1.6873 -0.6864  0.3733
 4974TIP3    H239118   3.436   0.193   7.980  1.6314 -1.2305 -0.7187
 4975TIP3   OH239119   0.770   2.597   8.066  0.2412  0.4007  0.0388
 4975TIP3    H139120   0.799   2.512   8.096  0.7380 -0.0732 -1.6395
 4975TIP3    H239121   0.767   2.589   7.970 -0.6122  1.9732 -0.1089
 4976TIP3   OH239122   6.118   3.616   6.945  1.0196 -0.0943 -0.1903
 4976TIP3    H139123   6.211   3.592   6.940  0.9508 -0.3934 -0.0984
 4976TIP3    H239124   6.072   3.536   6.921  0.7930  0.3908 -1.4290
 4977TIP3   OH239125   3.866   6.496   7.490  0.1527  0.2590  0.1756
 4977TIP3    H139126   3.942   6.455   7.531  0.4813 -0.4925 -1.1280
 4977TIP3    H239127   3.836   6.433   7.425 -2.0198  0.2571  1.0907
 4978TIP3   OH239128   0.777   5.551   8.997  0.4150  0.1431  0.2969
 4978TIP3    H139129   0.713   5.594   8.941 -1.2344 -1.3248  0.9823
 4978TIP3    H239130   0.831   5.500   8.937  0.3343  0.6096 -0.1806
 4979TIP3   OH239131   0.215   7.160   6.837  0.1917 -0.8314 -0.1113
 4979TIP3    H139132   0.121   7.148   6.821  0.3068 -0.4615 -1.1932
 4979TIP3    H239133   0.257   7.111   6.766  0.7645  0.7657 -0.9122
 4980TIP3   OH239134   5.119   7.281   9.026 -0.1702  0.3790 -0.3492
 4980TIP3    H139135   5.026   7.268   9.047 -0.2786  1.8454  0.1808
 4980TIP3    H239136   5.127   7.375   9.012  1.2963  0.2978 -0.1424
 4981TIP3   OH239137   5.575   0.827   8.282 -0.3525  0.1175  0.5014
 4981TIP3    H139138   5.563   0.747   8.334 -2.3663  0.2657  0.3304
 4981TIP3    H239139   5.528   0.895   8.330 -0.6724  0.6626 -0.5422
 4982TIP3   OH239140   2.832   1.850   8.098 -0.2008  0.3108  0.0139
 4982TIP3    H139141   2.767   1.822   8.161 -0.2662 -0.0291 -0.2020
 4982TIP3    H239142   2.908   1.875   8.151 -0.0744 -0.4599  0.2000
 4983TIP3   OH239143   6.087   5.826   8.145  0.0301 -0.7977  0.2487
 4983TIP3    H139144   6.089   5.823   8.049 -0.3209  0.3297  0.1894
 4983TIP3    H239145   6.115   5.739   8.172  0.7124 -0.9573 -0.8738
 4984TIP3   OH239146   6.236   4.560   7.765  1.1172 -0.5038  0.3817
 4984TIP3    H139147   6.247   4.540   7.858  1.4241 -0.5432  0.3354
 4984TIP3    H239148   6.270   4.483   7.719  0.0528 -0.9179  0.2537
 4985TIP3   OH239149   3.934   4.516   9.157  0.4370 -0.2313 -0.6400
 4985TIP3    H139150   3.931   4.485   9.247 -4.2465 -1.0207 -0.8197
 4985TIP3    H239151   3.877   4.593   9.155  0.7910  0.0619 -2.8163
 4986TIP3   OH239152   2.367   6.372   7.765  0.0463 -0.5015 -0.0594
 4986TIP3    H139153   2.442   6.385   7.706 -0.3385 -0.0433 -0.4616
 4986TIP3    H239154   2.301   6.330   7.710 -1.0601  1.7383 -0.5671
 4987TIP3   OH239155   7.035   0.260   7.963 -0.3945 -0.1872  0.0701
 4987TIP3    H139156   6.949   0.301   7.975  0.7338  2.3946  0.1199
 4987TIP3    H239157   7.092   0.333   7.938  2.0195 -1.6036  1.1380
 4988TIP3   OH239158   7.474   0.553   7.499  0.2394 -0.2913  0.1367
 4988TIP3    H139159   7.497   0.643   7.524  0.4062 -0.3755  0.2879
 4988TIP3    H239160   7.524   0.537   7.419 -0.6819  0.1563 -0.5511
 4989TIP3   OH239161   4.343   3.738   9.332  0.4288 -0.0639 -0.4022
 4989TIP3    H139162   4.265   3.753   9.386  0.4205  1.6807 -0.8386
 4989TIP3    H239163   4.327   3.653   9.291 -0.6199 -0.3543  0.5491
 4990TIP3   OH239164   3.706   5.462   7.817  0.1126 -0.4724  0.1630
 4990TIP3    H139165   3.625   5.514   7.818  0.3246 -0.1132 -0.4645
 4990TIP3    H239166   3.758   5.502   7.747  1.5564  0.4021  1.6835
 4991TIP3   OH239167   4.106   3.803   6.942 -0.4472 -0.1439 -0.5039
 4991TIP3    H139168   4.184   3.857   6.951  0.3351 -1.0356 -1.6598
 4991TIP3    H239169   4.114   3.737   7.011 -0.4631  0.0931 -0.2733
 4992TIP3   OH239170   5.659   6.435   9.496  0.1308 -0.3559  0.1542
 4992TIP3    H139171   5.694   6.369   9.436  1.5605  0.0954  0.4544
 4992TIP3    H239172   5.648   6.388   9.579 -0.2517 -0.5679 -0.0132
 4993TIP3   OH239173   4.537   2.256   8.012  0.1556 -0.3027 -0.0013
 4993TIP3    H139174   4.630   2.244   8.031 -0.3082 -2.0119  1.5178
 4993TIP3    H239175   4.507   2.171   7.979 -1.3479 -0.6232  1.9641
 4994TIP3   OH239176   1.511   4.327   7.830 -0.0858  0.4157 -0.0403
 4994TIP3    H139177   1.601   4.346   7.857  0.4179  0.4494 -1.6262
 4994TIP3    H239178   1.519   4.252   7.772 -0.9455  1.0205 -0.9753
 4995TIP3   OH239179   7.152   1.626   7.299 -0.2346 -0.0669  0.1117
 4995TIP3    H139180   7.212   1.576   7.355 -1.9916 -1.4091  0.8661
 4995TIP3    H239181   7.075   1.642   7.353 -1.6411 -0.6401 -1.6195
 4996TIP3   OH239182   0.567   0.983   8.855 -0.4739 -0.3258  0.5965
 4996TIP3    H139183   0.540   0.931   8.931 -1.0151  0.6453  1.0936
 4996TIP3    H239184   0.519   0.946   8.781  1.5148 -2.5407  0.3200
 4997TIP3   OH239185   7.024   3.331   8.550  0.2984  0.0767 -0.1640
 4997TIP3    H139186   6.953   3.395   8.542  1.2682  1.1321 -0.4366
 4997TIP3    H239187   7.104   3.381   8.537  1.1754 -0.9033  1.2186
 4998TIP3   OH239188   6.977   1.484   9.325  0.2364 -0.7619  0.5462
 4998TIP3    H139189   7.045   1.441   9.377 -1.5975 -0.8938  3.0301
 4998TIP3    H239190   6.904   1.422   9.325 -0.2415 -0.2757 -1.3248
 4999TIP3   OH239191   5.794   5.387   7.924  0.0077  0.6103  0.5678
 4999TIP3    H139192   5.856   5.362   7.993 -0.5660  0.9490  1.2298
 4999TIP3    H239193   5.839   5.456   7.875  0.1948  0.7842  0.9787
 5000TIP3   OH239194   0.454   3.783   7.488 -0.7428  0.0863  0.1536
 5000TIP3    H139195   0.486   3.851   7.429 -0.0022  0.5464  1.0603
 5000TIP3    H239196   0.523   3.773   7.553 -0.9760 -1.3161  0.2319
 5001TIP3   OH239197   6.554   2.542   7.510 -0.2070  0.1847  0.0801
 5001TIP3    H139198   6.593   2.455   7.502 -1.2459 -0.2152 -0.8577
 5001TIP3    H239199   6.568   2.566   7.601  0.9497 -0.5424  0.1164
 5002TIP3   OH239200   7.418   7.150   8.256  0.1179  0.2185  0.2216
 5002TIP3    H139201   7.414   7.060   8.225 -0.6324 -0.2255  1.5580
 5002TIP3    H239202   7.468   7.146   8.337  0.6083  1.1061 -0.0233
 5003TIP3   OH239203   4.928   2.997   8.237 -0.1589  0.1065 -0.1799
 5003TIP3    H139204   4.921   2.949   8.319  1.0465 -0.5829 -0.4528
 5003TIP3    H239205   4.915   2.931   8.169  0.0544  0.4297 -0.5449
 5004TIP3   OH239206   1.241   3.145   9.171 -0.0205  0.1522  0.4075
 5004TIP3    H139207   1.264   3.134   9.079  0.5976  1.9821  0.3069
 5004TIP3    H239208   1.291   3.077   9.216  1.7514  0.8799 -0.3535
 5005TIP3   OH239209   6.587   5.040   7.546  0.3627 -0.2277 -0.2985
 5005TIP3    H139210   6.516   5.099   7.574  1.7138  2.2738 -1.7306
 5005TIP3    H239211   6.569   5.024   7.453  0.7738 -0.9634 -0.2561
 5006TIP3   OH239212   0.104   1.841   8.525 -0.8452  0.7167  0.9820
 5006TIP3    H139213   0.186   1.801   8.553 -0.4260 -0.3619 -1.5238
 5006TIP3    H239214   0.116   1.935   8.541  0.6298  0.5072  1.2245
 5007TIP3   OH239215   2.328   7.539   7.398 -0.4038 -0.1850  0.6781
 5007TIP3    H139216   2.311   7.508   7.309  0.7912  0.8713  0.0457
 5007TIP3    H239217   2.241   7.549   7.436 -0.8878 -2.0036  0.1353
 5008TIP3   OH239218   2.273   4.965   8.891  0.1553 -0.2693 -0.5440
 5008TIP3    H139219   2.289   5.033   8.825 -1.9231 -0.2895 -1.1186
 5008TIP3    H239220   2.342   4.978   8.955  1.0909  0.9925 -1.7393
 5009TIP3   OH239221   3.686   5.286   8.033 -0.1050 -0.0333 -0.7615
 5009TIP3    H139222   3.708   5.343   7.959 -0.8076  1.3408  0.0476
 5009TIP3    H239223   3.599   5.252   8.012 -0.1836  0.1317 -0.7069
 5010TIP3   OH239224   4.398   0.826   7.495 -0.1336  0.2085  0.1334
 5010TIP3    H139225   4.414   0.745   7.544 -1.8762 -0.7704 -0.8403
 5010TIP3    H239226   4.305   0.823   7.473  0.2125  1.4853 -1.7176
 5011TIP3   OH239227   4.037   2.485   7.758 -0.0236 -0.1512 -0.2643
 5011TIP3    H139228   4.026   2.393   7.783 -0.0868  0.0282  0.4037
 5011TIP3    H239229   4.003   2.534   7.834 -0.1935  0.4212 -0.7017
 5012TIP3   OH239230   0.327   4.165   8.569  0.5176 -0.4346  0.0971
 5012TIP3    H139231   0.280   4.129   8.494  1.1816  2.2445 -1.7410
 5012TIP3    H239232   0.410   4.117   8.572 -0.4225 -2.1022  0.5932
 5013TIP3   OH239233   6.648   6.265   9.724 -0.1418 -0.5428  0.2567
 5013TIP3    H139234   6.740   6.243   9.740 -0.0048 -0.0545  0.1803
 5013TIP3    H239235   6.600   6.225   9.797  0.1163 -0.9066  0.2276
 5014TIP3   OH239236   2.209   2.589   8.542  0.3780  0.3064 -0.4159
 5014TIP3    H139237   2.251   2.503   8.544 -0.5698 -0.1480  1.3901
 5014TIP3    H239238   2.223   2.620   8.452  0.1467 -2.0077 -1.3004
 5015TIP3   OH239239   1.593   3.361   7.518 -0.6197 -0.0463  0.1511
 5015TIP3    H139240   1.614   3.383   7.427  0.3779 -1.4327  0.0141
 5015TIP3    H239241   1.516   3.304   7.511  1.0950 -2.4830 -0.1187
 5016TIP3   OH239242   7.113   3.771   8.420 -0.4928  0.2954  0.0631
 5016TIP3    H139243   7.209   3.766   8.421 -0.4553  0.8444 -0.0563
 5016TIP3    H239244   7.084   3.687   8.386 -0.0586  0.0517  0.2872
 5017TIP3   OH239245   6.231   0.168   8.882 -0.1212  0.0576  0.4964
 5017TIP3    H139246   6.273   0.206   8.806 -0.5463 -1.7117 -0.6810
 5017TIP3    H239247   6.301   0.121   8.928 -0.1556 -0.1200  0.3682
 5018TIP3   OH239248   7.299   1.265   8.135  0.1605  0.3765  0.3678
 5018TIP3    H139249   7.273   1.189   8.188 -1.3913 -0.4286 -1.4325
 5018TIP3    H239250   7.323   1.228   8.050  1.7339  1.7194  0.1913
 5019TIP3   OH239251   2.727   0.105   9.577  0.6188  0.0353 -0.7193
 5019TIP3    H139252   2.719   0.188   9.623 -1.0308  0.1749 -1.2217
 5019TIP3    H239253   2.815   0.109   9.538  1.3472  0.6656  0.8799
 5020TIP3   OH239254   2.544   5.384   7.420 -0.0020 -0.2688 -0.3167
 5020TIP3    H139255   2.615   5.442   7.447 -1.3940  1.4074 -0.1606
 5020TIP3    H239256   2.584   5.329   7.352  1.9178 -0.6091  1.0005
 5021TIP3   OH239257   6.001   5.705   7.547  0.0016 -0.0865 -0.5403
 5021TIP3    H139258   5.907   5.694   7.539 -0.2965  1.3228  0.6216
 5021TIP3    H239259   6.023   5.777   7.488  0.3563 -0.3957 -0.7948
 5022TIP3   OH239260   0.270   4.062   8.903  0.3834  0.2178 -0.2477
 5022TIP3    H139261   0.317   4.130   8.855  1.3157 -0.4276 -0.2776
 5022TIP3    H239262   0.274   4.090   8.994 -0.4245  0.8812 -0.4034
 5023TIP3   OH239263   1.723   1.770   7.265 -0.1686 -0.4155  0.0344
 5023TIP3    H139264   1.698   1.682   7.237 -0.6095 -0.8567  1.6818
 5023TIP3    H239265   1.657   1.795   7.330  0.6114  0.6374  0.4623
 5024TIP3   OH239266   6.571   0.564   9.085 -0.1271  0.0799 -0.6198
 5024TIP3    H139267   6.501   0.521   9.134  0.2612  0.0276 -0.1053
 5024TIP3    H239268   6.531   0.586   9.001 -0.7214 -0.0710 -0.3827
 5025TIP3   OH239269   0.403   0.949   8.547 -0.1264  0.0448  0.1838
 5025TIP3    H139270   0.377   0.858   8.538  1.7780 -0.5311  0.1953
 5025TIP3    H239271   0.441   0.972   8.463 -0.0411  0.6496  0.3790
 5026TIP3   OH239272   7.198   3.330   7.479  0.0119  0.4746  0.3057
 5026TIP3    H139273   7.138   3.401   7.458 -2.7591 -1.7548  0.1178
 5026TIP3    H239274   7.267   3.336   7.413 -0.8969  2.1485 -0.5391
 5027TIP3   OH239275   5.639   1.972   9.504 -0.2557  0.3109  0.1663
 5027TIP3    H139276   5.681   1.893   9.469 -0.7934 -0.4844  1.2547
 5027TIP3    H239277   5.671   1.978   9.594 -1.3619  0.4902  0.5625
 5028TIP3   OH239278   3.246   0.751   8.900 -0.0531  0.3015 -0.4272
 5028TIP3    H139279   3.163   0.731   8.856 -0.4626  1.9161 -0.4356
 5028TIP3    H239280   3.282   0.826   8.852  1.7465 -0.7523 -0.8095
 5029TIP3   OH239281   7.401   0.365   9.574 -0.5374 -0.5413 -0.1405
 5029TIP3    H139282   7.422   0.286   9.524  0.5235  0.3843 -1.2391
 5029TIP3    H239283   7.399   0.337   9.665  0.9209 -1.6370 -0.4081
 5030TIP3   OH239284   3.664   5.796   7.577 -0.1776  0.0848 -0.1372
 5030TIP3    H139285   3.693   5.806   7.486  0.2154 -1.3728 -0.1924
 5030TIP3    H239286   3.745   5.799   7.628 -0.1950 -1.0490 -0.0255
 5031TIP3   OH239287   5.585   1.131   8.353 -0.1608 -0.0800  0.4620
 5031TIP3    H139288   5.629   1.209   8.386 -1.1626  0.5518  0.3353
 5031TIP3    H239289   5.616   1.060   8.409  2.1412  0.0543 -0.5218
 5032TIP3   OH239290   3.242   1.569   8.010  0.2473  0.0669 -0.2926
 5032TIP3    H139291   3.213   1.478   8.006 -0.8813  0.4326 -0.9897
 5032TIP3    H239292   3.336   1.565   7.991  0.0414 -0.8878 -1.2307
 5033TIP3   OH239293   4.007   1.102   9.345  0.3096 -0.7327  0.1967
 5033TIP3    H139294   4.018   1.034   9.279 -1.1518 -0.8793  0.0570
 5033TIP3    H239295   4.083   1.158   9.336  0.8231 -1.5502 -0.6569
 5034TIP3   OH239296   2.758   3.277   8.530  0.0665 -0.0792  0.1871
 5034TIP3    H139297   2.791   3.332   8.602  1.7649 -0.3309 -0.3561
 5034TIP3    H239298   2.733   3.195   8.573  0.6123 -0.0555  0.5716
 5035TIP3   OH239299   1.054   5.218   9.765  0.2321  0.3251 -0.0536
 5035TIP3    H139300   1.039   5.140   9.817 -1.7422  0.7461  0.0892
 5035TIP3    H239301   1.024   5.195   9.677 -1.1795  1.1624  0.1858
 5036TIP3   OH239302   6.892   0.544   8.181  0.5435  0.5771  0.1258
 5036TIP3    H139303   6.918   0.591   8.102  0.2565 -0.6341 -0.7246
 5036TIP3    H239304   6.972   0.502   8.212  0.0004 -2.1785 -1.8195
 5037TIP3   OH239305   6.673   5.761   9.266 -0.7320  0.0663 -0.0795
 5037TIP3    H139306   6.713   5.675   9.258 -1.3868 -0.1692 -1.0232
 5037TIP3    H239307   6.743   5.822   9.245 -0.8376 -0.3443 -1.7596
 5038TIP3   OH239308   6.187   7.121   8.991  0.3058  0.1786  0.1349
 5038TIP3    H139309   6.149   7.033   8.987 -0.7666  0.5439  1.6660
 5038TIP3    H239310   6.209   7.134   9.083  1.2734  1.1848 -0.2193
 5039TIP3   OH239311   3.053   0.602   7.640 -0.0445  0.2417 -0.2679
 5039TIP3    H139312   3.129   0.599   7.582 -0.8782 -1.7211 -1.3559
 5039TIP3    H239313   3.086   0.570   7.724  0.7339  1.2805 -0.1492
 5040TIP3   OH239314   3.180   6.289   7.831 -0.0355 -0.0283 -0.0610
 5040TIP3    H139315   3.111   6.240   7.876  1.6167 -0.9503  1.6305
 5040TIP3    H239316   3.242   6.222   7.802  1.1078  0.8835  0.1789
 5041TIP3   OH239317   4.464   5.609   7.625 -0.3836  0.2516  0.3631
 5041TIP3    H139318   4.395   5.582   7.685 -0.7455  1.9863  0.8055
 5041TIP3    H239319   4.526   5.658   7.681  0.2396  0.2889 -0.3485
 5042TIP3   OH239320   2.594   7.363   6.806  0.2789 -0.0256  0.4867
 5042TIP3    H139321   2.550   7.324   6.730  0.2768 -0.4230  0.6910
 5042TIP3    H239322   2.525   7.414   6.849  0.6804  1.6357 -0.7243
 5043TIP3   OH239323   3.472   1.858   9.618  0.3671 -0.1385 -0.2076
 5043TIP3    H139324   3.532   1.815   9.557  0.1221 -0.8522  0.0356
 5043TIP3    H239325   3.473   1.802   9.695 -0.7677 -0.2976 -0.2827
 5044TIP3   OH239326   4.885   3.042   7.750  0.2350 -0.0429 -0.0614
 5044TIP3    H139327   4.837   2.970   7.709 -0.7928  0.9194 -0.6025
 5044TIP3    H239328   4.910   3.008   7.836  0.3353 -1.2619 -0.5491
 5045TIP3   OH239329   6.536   2.075   8.534  0.1493  0.6750 -0.1461
 5045TIP3    H139330   6.495   2.161   8.540  2.2236  2.0706 -3.3807
 5045TIP3    H239331   6.561   2.055   8.625 -2.4912  2.2876  1.0608
 5046TIP3   OH239332   2.313   6.296   9.634 -0.1811 -0.5336 -0.2412
 5046TIP3    H139333   2.371   6.297   9.711 -1.1826 -0.6183  0.5339
 5046TIP3    H239334   2.324   6.209   9.596  0.1404 -0.5756 -0.0565
 5047TIP3   OH239335   0.734   3.905   8.853 -0.1478  0.1496  0.2542
 5047TIP3    H139336   0.691   3.984   8.885  0.0903  0.3192  0.1634
 5047TIP3    H239337   0.797   3.937   8.787  0.6030 -0.0125  0.8723
 5048TIP3   OH239338   0.229   3.164   9.495  0.4620 -0.3068  0.1789
 5048TIP3    H139339   0.283   3.240   9.516 -0.6646  0.1418  1.6525
 5048TIP3    H239340   0.291   3.096   9.469  1.7545  0.1535  1.9302
 5049TIP3   OH239341   4.420   0.710   6.823  0.2274 -0.0408  0.0307
 5049TIP3    H139342   4.417   0.799   6.857 -1.6374 -0.2100  0.3849
 5049TIP3    H239343   4.470   0.718   6.742  1.5376  1.0119  0.8949
 5050TIP3   OH239344   1.537   5.220   9.372  0.3681  0.0749 -0.1990
 5050TIP3    H139345   1.593   5.185   9.441 -0.2015  0.2164  0.3475
 5050TIP3    H239346   1.594   5.229   9.296  0.9597 -0.2596  0.2035
 5051TIP3   OH239347   3.916   4.240   8.970  0.0310  0.2257 -0.1754
 5051TIP3    H139348   3.993   4.288   8.938 -0.0583 -0.3664 -1.3156
 5051TIP3    H239349   3.939   4.216   9.060 -0.6660  3.9745  1.1803
 5052TIP3   OH239350   4.869   3.841   6.976 -0.2117 -0.0658  0.4476
 5052TIP3    H139351   4.881   3.890   6.894 -1.0062  0.4567  0.6300
 5052TIP3    H239352   4.958   3.824   7.007  0.0926 -0.0181 -0.3760
 5053TIP3   OH239353   4.644   4.588   8.915 -0.3318  0.2174 -0.0843
 5053TIP3    H139354   4.645   4.492   8.921  0.8288  0.1836 -0.6197
 5053TIP3    H239355   4.619   4.617   9.003 -1.4343 -0.5752 -0.1093
 5054TIP3   OH239356   4.082   0.148   9.480 -0.3456  0.7554 -0.4704
 5054TIP3    H139357   4.076   0.193   9.396 -3.3346  1.5821  0.0444
 5054TIP3    H239358   4.072   0.218   9.545  1.4405  0.0784  0.6288
 5055TIP3   OH239359   3.954   2.269   8.391  0.2424 -0.3233  0.3635
 5055TIP3    H139360   3.917   2.264   8.479 -0.0656  1.0569  0.3280
 5055TIP3    H239361   3.919   2.192   8.346 -1.9045  0.4275  0.6139
 5056TIP3   OH239362   6.736   3.946   7.494  0.0903 -0.0335 -0.1350
 5056TIP3    H139363   6.692   3.920   7.575 -1.4542 -0.1931 -0.9918
 5056TIP3    H239364   6.735   3.868   7.439  1.4680 -0.0362 -0.2004
 5057TIP3   OH239365   0.092   5.085   8.789  0.0358  0.3519  0.7100
 5057TIP3    H139366   0.019   5.055   8.735 -0.8388  0.6897  1.6640
 5057TIP3    H239367   0.152   5.127   8.728 -1.4184  1.6641  0.1269
 5058TIP3   OH239368   7.467   0.821   7.575 -0.3280 -0.0943  0.1001
 5058TIP3    H139369   7.491   0.841   7.665 -0.8058 -1.2759  0.5173
 5058TIP3    H239370   7.446   0.905   7.535  0.2035  0.4689  0.9975
 5059TIP3   OH239371   0.996   2.703   8.902 -0.7371 -0.3245 -0.0785
 5059TIP3    H139372   1.027   2.667   8.819 -1.0126 -1.0813  0.1332
 5059TIP3    H239373   1.016   2.634   8.966 -0.7772  0.1345  0.4335
 5060TIP3   OH239374   3.608   1.656   8.999 -0.0403  0.7460 -0.3062
 5060TIP3    H139375   3.658   1.629   8.922  1.5437  2.1305  0.1643
 5060TIP3    H239376   3.545   1.586   9.013  2.3399 -1.5463 -0.4481
 5061TIP3   OH239377   6.950   7.220   7.132 -0.3185  0.1013  0.3635
 5061TIP3    H139378   6.907   7.305   7.141 -0.0090  0.3300 -0.2242
 5061TIP3    H239379   7.024   7.223   7.192  0.6655  0.9041 -0.8277
 5062TIP3   OH239380   7.083   2.772   7.632 -0.3428  0.1142  0.0745
 5062TIP3    H139381   7.118   2.684   7.617 -2.0123 -0.8422  1.3198
 5062TIP3    H239382   7.144   2.813   7.692  0.2912 -0.3123 -0.2745
 5063TIP3   OH239383   1.656   7.155   8.937 -0.2922 -0.7894 -0.1406
 5063TIP3    H139384   1.582   7.215   8.932  0.4190  0.0624 -0.7482
 5063TIP3    H239385   1.685   7.160   9.029 -0.5367 -0.5712 -0.0754
 5064TIP3   OH239386   6.936   3.184   6.778  0.2210 -0.1262 -0.0724
 5064TIP3    H139387   6.953   3.194   6.684  0.1841  0.1728 -0.0470
 5064TIP3    H239388   7.023   3.176   6.817  0.2905  0.8281 -0.0097
 5065TIP3   OH239389   6.122   1.861   8.053 -0.3684 -0.4546  0.7530
 5065TIP3    H139390   6.201   1.864   8.000  1.6365  2.0462  3.5440
 5065TIP3    H239391   6.058   1.914   8.005  1.0827  1.0162  0.3852
 5066TIP3   OH239392   1.262   7.498   9.556  0.5289  0.0187 -0.1788
 5066TIP3    H139393   1.290   7.569   9.498  1.3478  1.7249  2.1645
 5066TIP3    H239394   1.214   7.541   9.626 -0.1161 -1.9099  0.6340
 5067TIP3   OH239395   7.145   6.073   8.809  0.3902  0.3088  0.1992
 5067TIP3    H139396   7.178   5.983   8.796 -0.3734  0.0294  0.1675
 5067TIP3    H239397   7.172   6.120   8.731 -1.9056 -0.7001 -1.2933
 5068TIP3   OH239398   7.180   6.363   9.053 -0.3433  0.2600  0.1514
 5068TIP3    H139399   7.132   6.407   8.981 -0.1590 -1.5714 -1.1569
 5068TIP3    H239400   7.272   6.381   9.035 -0.1897 -1.4282 -1.0088
 5069TIP3   OH239401   4.059   3.013   7.084  0.1263 -0.0267 -0.1153
 5069TIP3    H139402   3.981   2.989   7.035 -0.1205  0.3783  0.0762
 5069TIP3    H239403   4.106   2.930   7.097 -0.1700 -0.2399 -0.3980
 5070TIP3   OH239404   0.495   0.901   6.670  0.2120 -0.1898 -0.3442
 5070TIP3    H139405   0.554   0.973   6.650 -0.8249  0.9732  0.6376
 5070TIP3    H239406   0.545   0.822   6.647  1.5878  0.7941 -0.8762
 5071TIP3   OH239407   7.191   0.866   8.668  0.0634 -0.2800 -0.0371
 5071TIP3    H139408   7.283   0.881   8.689  0.2772 -1.0201 -0.4072
 5071TIP3    H239409   7.184   0.771   8.658 -0.6507 -0.1935 -0.4220
 5072TIP3   OH239410   4.160   7.039   7.718  0.2811 -0.0837 -0.2981
 5072TIP3    H139411   4.199   6.967   7.767 -1.5193 -0.7947  0.2000
 5072TIP3    H239412   4.208   7.040   7.635 -0.5283 -2.8459 -0.9210
 5073TIP3   OH239413   4.463   6.306   6.965 -0.0491  0.2008 -0.3645
 5073TIP3    H139414   4.377   6.347   6.970 -0.2443 -0.3168  1.0020
 5073TIP3    H239415   4.460   6.253   6.885  0.0799  2.4796 -1.9779
 5074TIP3   OH239416   3.876   2.898   6.895  0.2142 -0.4972  0.4905
 5074TIP3    H139417   3.785   2.906   6.866  0.4396  0.9934  0.1073
 5074TIP3    H239418   3.928   2.933   6.822  1.0909 -1.1083  0.7968
 5075TIP3   OH239419   5.427   0.356   8.388 -0.2825  0.1080  0.1477
 5075TIP3    H139420   5.405   0.326   8.476  3.0929  0.7691  1.3912
 5075TIP3    H239421   5.458   0.278   8.343 -0.1354  0.1187  0.2304
 5076TIP3   OH239422   5.765   3.390   8.500 -0.1578 -0.3628 -0.4393
 5076TIP3    H139423   5.672   3.375   8.517 -0.1774 -1.0543 -1.0743
 5076TIP3    H239424   5.771   3.483   8.476 -0.5451 -0.1023  0.4490
 5077TIP3   OH239425   1.675   0.676   7.491  0.5567 -0.2905  0.0861
 5077TIP3    H139426   1.629   0.692   7.574  1.7262  2.4496  0.3263
 5077TIP3    H239427   1.766   0.664   7.517  0.8231 -0.0949 -0.7490
 5078TIP3   OH239428   6.784   7.487   7.934 -0.4620  0.0673 -0.4254
 5078TIP3    H139429   6.866   7.498   7.983 -0.5214  1.9203 -0.6681
 5078TIP3    H239430   6.783   7.394   7.910  1.7599  0.0609 -0.7400
 5079TIP3   OH239431   0.310   2.004   7.036 -0.3825 -0.0532  0.9303
 5079TIP3    H139432   0.272   1.990   6.949  2.1672  0.8983 -0.4448
 5079TIP3    H239433   0.354   1.922   7.057  0.3322  0.2380  0.5874
 5080TIP3   OH239434   5.747   1.736   9.416 -0.1723 -0.1566  0.2402
 5080TIP3    H139435   5.730   1.644   9.437 -1.0413 -0.3613 -1.2019
 5080TIP3    H239436   5.842   1.741   9.406 -0.0695 -0.7748  0.8250
 5081TIP3   OH239437   6.911   5.250   8.277 -0.0640 -0.1461  1.3026
 5081TIP3    H139438   6.883   5.159   8.280  2.1833 -0.9296  0.5608
 5081TIP3    H239439   6.862   5.293   8.348  1.0343 -2.5998  3.7166
 5082TIP3   OH239440   1.693   7.374   8.402 -0.0391  0.0968 -0.3689
 5082TIP3    H139441   1.612   7.425   8.410 -0.2516 -0.3841  0.7311
 5082TIP3    H239442   1.672   7.290   8.443  0.4147 -0.7668 -1.8667
 5083TIP3   OH239443   3.807   2.736   9.060 -0.2778 -0.0625  0.2550
 5083TIP3    H139444   3.868   2.692   9.001 -1.0041 -0.5594 -0.1454
 5083TIP3    H239445   3.809   2.683   9.140 -0.0108  0.0637  0.3354
 5084TIP3   OH239446   5.728   2.098   8.189 -0.0107  0.2822 -0.0488
 5084TIP3    H139447   5.692   2.186   8.190 -1.2093 -0.1980  0.4715
 5084TIP3    H239448   5.766   2.086   8.276 -1.0133 -0.1768  0.3296
 5085TIP3   OH239449   5.113   3.805   9.253 -0.3319 -0.1989  0.1808
 5085TIP3    H139450   5.058   3.880   9.276 -1.9578 -1.5656  1.0755
 5085TIP3    H239451   5.069   3.765   9.178  0.3818 -0.3907 -0.1429
 5086TIP3   OH239452   3.673   3.598   7.507 -0.6393  0.1874  0.0930
 5086TIP3    H139453   3.734   3.610   7.435 -1.1410  0.0658 -0.3581
 5086TIP3    H239454   3.600   3.549   7.469 -1.0996  0.4876  0.5738
 5087TIP3   OH239455   0.536   5.970   8.685 -0.2812  0.6363 -0.7066
 5087TIP3    H139456   0.618   6.019   8.696 -0.4126  0.4890  1.3240
 5087TIP3    H239457   0.470   6.037   8.668 -0.0388  0.9491 -0.4311
 5088TIP3   OH239458   0.352   1.642   7.295 -0.0269 -0.5020 -0.0537
 5088TIP3    H139459   0.329   1.729   7.328 -1.4861 -1.1134  0.5832
 5088TIP3    H239460   0.437   1.655   7.251 -2.3589  2.3498 -4.4147
 5089TIP3   OH239461   2.630   3.616   7.123  0.8464 -0.1142  0.2738
 5089TIP3    H139462   2.584   3.686   7.076  0.3111 -1.0856 -0.7001
 5089TIP3    H239463   2.719   3.649   7.135  0.3105  1.1867  0.8438
 5090TIP3   OH239464   0.539   6.481   8.433 -0.1487 -0.0596  0.4358
 5090TIP3    H139465   0.621   6.512   8.396  1.0822 -0.7655  2.4243
 5090TIP3    H239466   0.472   6.534   8.390  1.2926  0.3528 -1.4332
 5091TIP3   OH239467   4.624   4.570   9.508 -0.2215 -0.0949 -0.0972
 5091TIP3    H139468   4.562   4.601   9.441 -1.1625  0.2188  0.9017
 5091TIP3    H239469   4.611   4.629   9.582  1.4974  0.1554  0.0343
 5092TIP3   OH239470   4.871   5.003   8.538 -0.3838 -0.0631 -0.3668
 5092TIP3    H139471   4.940   5.065   8.560  1.2078 -2.0352  0.4969
 5092TIP3    H239472   4.844   4.966   8.622 -0.6264 -1.1984 -0.9319
 5093TIP3   OH239473   4.915   2.973   7.438  0.1046 -0.4492  0.7023
 5093TIP3    H139474   4.979   2.919   7.390 -0.7226  0.1991 -1.2504
 5093TIP3    H239475   4.954   2.985   7.524  2.0226 -1.1409  0.0014
 5094TIP3   OH239476   3.588   0.523   8.482  0.2645 -0.0626 -0.5432
 5094TIP3    H139477   3.658   0.587   8.472 -0.8332  1.2744  0.1770
 5094TIP3    H239478   3.608   0.477   8.564  0.2450  0.3845 -0.2877
 5095TIP3   OH239479   4.104   3.312   8.009  0.7475  0.2096 -0.1069
 5095TIP3    H139480   4.150   3.250   8.065  2.3223  1.1112 -0.3573
 5095TIP3    H239481   4.162   3.325   7.934 -1.1106 -0.6251 -1.7715
 5096TIP3   OH239482   0.559   3.902   7.966 -0.1851 -0.3293 -0.2158
 5096TIP3    H139483   0.561   3.809   7.988  0.3201 -0.6885 -1.6405
 5096TIP3    H239484   0.611   3.944   8.034  0.1966 -1.1915  0.0402
 5097TIP3   OH239485   5.053   2.462   8.745 -0.1175 -0.1574 -0.4957
 5097TIP3    H139486   4.961   2.475   8.720 -0.1516  0.3777 -0.1104
 5097TIP3    H239487   5.064   2.515   8.824  0.6913  0.3024 -0.9068
 5098TIP3   OH239488   4.049   1.293   6.942  0.3699  0.1826  0.1092
 5098TIP3    H139489   3.984   1.230   6.912  1.3771 -0.9727  0.2677
 5098TIP3    H239490   4.053   1.359   6.873 -1.5095  0.7052  0.4615
 5099TIP3   OH239491   6.069   1.311   7.445  0.1363 -0.1856 -0.0330
 5099TIP3    H139492   6.035   1.367   7.515  0.4921 -0.9307  0.7624
 5099TIP3    H239493   5.991   1.286   7.395 -0.1537  0.1779  0.2308
 5100TIP3   OH239494   6.654   2.124   7.609 -0.2125  0.0177  0.4531
 5100TIP3    H139495   6.682   2.036   7.635 -0.0471  0.2237  0.9953
 5100TIP3    H239496   6.697   2.182   7.672 -0.4537  0.4747  0.2022
 5101TIP3   OH239497   5.249   5.422   7.340 -0.1313  0.2867 -0.1746
 5101TIP3    H139498   5.224   5.396   7.252 -1.8201 -1.0622  0.6403
 5101TIP3    H239499   5.336   5.461   7.330 -0.4205  0.4692 -2.4533
 5102TIP3   OH239500   1.543   6.171   8.920  0.5035 -0.2684  0.0283
 5102TIP3    H139501   1.554   6.244   8.860  0.6539 -0.8440 -0.6600
 5102TIP3    H239502   1.560   6.208   9.007  0.5572  0.5097 -0.3076
 5103TIP3   OH239503   2.652   0.950   8.110 -0.0105 -0.4973  0.6294
 5103TIP3    H139504   2.562   0.919   8.103 -1.0466  2.5938 -1.1812
 5103TIP3    H239505   2.646   1.033   8.156  1.7039  0.4664 -0.7543
 5104TIP3   OH239506   5.868   0.364   7.890  0.3901 -0.1865 -0.3633
 5104TIP3    H139507   5.881   0.334   7.980 -1.1959 -1.6369 -0.5664
 5104TIP3    H239508   5.889   0.457   7.892 -0.9097  0.1229  1.8173
 5105TIP3   OH239509   2.764   2.434   7.141 -0.0867  0.1548 -0.2686
 5105TIP3    H139510   2.843   2.391   7.175 -0.7063 -1.0550 -0.3030
 5105TIP3    H239511   2.744   2.386   7.061 -0.0590  1.3851 -1.0307
 5106TIP3   OH239512   0.517   5.498   8.387 -0.2337 -0.7595  0.0000
 5106TIP3    H139513   0.427   5.524   8.408  0.3409  2.3104 -0.7684
 5106TIP3    H239514   0.518   5.488   8.292  0.3001 -0.4150 -0.0370
 5107TIP3   OH239515   5.027   1.421   7.359  0.4028  0.2203  0.1755
 5107TIP3    H139516   4.985   1.417   7.273  2.1313 -1.3859 -0.6850
 5107TIP3    H239517   5.109   1.467   7.343  0.3729  0.6300  1.1586
 5108TIP3   OH239518   4.506   2.805   7.450 -0.2148 -0.0739  0.2132
 5108TIP3    H139519   4.544   2.855   7.378  1.7049  2.0409  2.5138
 5108TIP3    H239520   4.539   2.716   7.438  3.2192  1.0323  0.4263
 5109TIP3   OH239521   7.367   5.777   8.115  0.1131  0.3704 -0.2855
 5109TIP3    H139522   7.304   5.718   8.073  1.2806 -0.6722 -0.6231
 5109TIP3    H239523   7.317   5.820   8.185 -0.9032 -0.6226 -0.3763
 5110TIP3   OH239524   0.498   4.524   9.514 -0.1324  0.2831  0.2028
 5110TIP3    H139525   0.406   4.543   9.498  0.0223  0.6729 -0.2567
 5110TIP3    H239526   0.544   4.600   9.479  0.4225 -0.3388 -0.4563
 5111TIP3   OH239527   1.707   5.271   9.169  0.1027 -0.3151  0.2777
 5111TIP3    H139528   1.758   5.234   9.096  0.4872  0.0802  0.3441
 5111TIP3    H239529   1.736   5.362   9.175  0.7903 -0.6077  1.5636
 5112TIP3   OH239530   2.988   4.106   8.368 -0.0033  0.2898 -0.3764
 5112TIP3    H139531   3.013   4.014   8.372 -0.3860  0.2462  1.4223
 5112TIP3    H239532   2.932   4.112   8.290 -1.0502 -1.2718  0.2207
 5113TIP3   OH239533   0.144   3.015   9.237  0.2138 -0.7058  0.0315
 5113TIP3    H139534   0.083   3.008   9.310 -0.0322  1.7028  0.1304
 5113TIP3    H239535   0.176   3.105   9.240  1.7626 -1.1311 -1.6212
 5114TIP3   OH239536   4.547   0.148   7.672 -0.7954  0.1064 -0.2536
 5114TIP3    H139537   4.600   0.080   7.631 -0.0096  0.7653 -0.3649
 5114TIP3    H239538   4.504   0.104   7.745 -0.0562 -0.4430 -0.1362
 5115TIP3   OH239539   1.692   4.669   7.081  0.5475 -0.3200  0.6791
 5115TIP3    H139540   1.599   4.649   7.079  0.4869 -0.1021 -1.1011
 5115TIP3    H239541   1.698   4.759   7.046  1.5169 -1.0580 -1.2163
 5116TIP3   OH239542   1.519   1.882   9.163  0.0161 -0.6203 -0.2808
 5116TIP3    H139543   1.610   1.907   9.146  0.1520  0.7084  1.9479
 5116TIP3    H239544   1.525   1.798   9.208  0.1418 -0.6051 -0.2679
 5117TIP3   OH239545   1.163   1.749   9.728  0.1547  0.4902  0.6196
 5117TIP3    H139546   1.073   1.781   9.722  0.6204  1.5458 -2.2770
 5117TIP3    H239547   1.207   1.814   9.784 -0.8472 -0.0877  2.1353
 5118TIP3   OH239548   6.061   0.590   7.698 -0.3294 -0.2105 -0.3580
 5118TIP3    H139549   6.103   0.623   7.778  0.5968  0.4194 -1.0676
 5118TIP3    H239550   6.063   0.495   7.707  0.0017 -0.1544  0.2507
 5119TIP3   OH239551   1.431   4.491   8.731  0.1406  0.1429 -1.1021
 5119TIP3    H139552   1.377   4.528   8.661 -2.7489 -0.4566  0.6050
 5119TIP3    H239553   1.405   4.399   8.735  1.3326 -0.1782 -0.1761
 5120TIP3   OH239554   4.489   1.389   9.043 -0.2825 -0.8449  0.0467
 5120TIP3    H139555   4.415   1.418   9.095  0.1884 -0.5692  0.5728
 5120TIP3    H239556   4.549   1.464   9.041  0.2878 -1.2844  0.1983
 5121TIP3   OH239557   7.385   3.032   8.318 -0.0322 -0.6765 -0.3444
 5121TIP3    H139558   7.395   3.113   8.268  0.2064  0.2907  1.2226
 5121TIP3    H239559   7.302   2.995   8.287 -0.9373  0.9784  0.0310
 5122TIP3   OH239560   5.209   4.874   8.045 -0.4183 -0.3657  0.1293
 5122TIP3    H139561   5.193   4.882   8.139 -0.9972 -0.5033  0.0517
 5122TIP3    H239562   5.121   4.870   8.007 -0.2267 -2.2346 -0.2374
 5123TIP3   OH239563   2.225   0.722   6.850  0.2602 -0.3137  0.2060
 5123TIP3    H139564   2.176   0.640   6.847  0.1891 -0.2560 -0.7868
 5123TIP3    H239565   2.312   0.699   6.817  0.1635  0.0495 -0.3187
 5124TIP3   OH239566   1.978   6.013   9.667 -0.4630 -0.2383  0.5016
 5124TIP3    H139567   2.041   6.028   9.737 -0.1394  0.5470  0.0536
 5124TIP3    H239568   1.913   6.082   9.678 -0.5940 -0.3150  0.2311
 5125TIP3   OH239569   1.744   2.954   7.321  0.6214  0.3429 -0.7083
 5125TIP3    H139570   1.827   2.950   7.369 -0.0296  0.5407  0.4464
 5125TIP3    H239571   1.677   2.961   7.388 -0.3103  0.7491 -1.6567
 5126TIP3   OH239572   5.530   6.926   7.518  0.4010 -0.7252 -0.1488
 5126TIP3    H139573   5.599   6.876   7.475 -0.0465 -0.3989 -1.2703
 5126TIP3    H239574   5.451   6.874   7.508  0.0863 -0.1656 -0.6431
 5127TIP3   OH239575   4.213   0.472   7.765 -0.5724 -0.0174  0.2274
 5127TIP3    H139576   4.205   0.394   7.709 -1.0888 -0.2706  0.6487
 5127TIP3    H239577   4.123   0.494   7.789 -0.4785  1.0488 -0.3287
 5128TIP3   OH239578   3.921   3.047   8.068 -0.1578  0.1658 -0.3509
 5128TIP3    H139579   4.013   3.062   8.090 -0.2024 -0.3836  0.2582
 5128TIP3    H239580   3.913   2.952   8.062 -0.8259  0.1768  0.2377
 5129TIP3   OH239581   3.068   6.262   7.004  0.0664 -0.0131 -0.4945
 5129TIP3    H139582   2.977   6.292   6.994  0.4924  2.0848  1.1955
 5129TIP3    H239583   3.061   6.170   7.027 -1.6998  0.3089  0.4104
 5130TIP3   OH239584   4.910   2.658   9.408  0.5019  0.7205  0.8881
 5130TIP3    H139585   4.956   2.579   9.380 -0.4851 -0.2724  1.9765
 5130TIP3    H239586   4.949   2.681   9.492 -0.2778  0.4617  1.3297
 5131TIP3   OH239587   0.393   3.673   7.953  0.0390 -0.0941 -0.1391
 5131TIP3    H139588   0.475   3.623   7.957  0.5003  0.6847  0.4341
 5131TIP3    H239589   0.345   3.635   7.879  0.7423 -0.8191 -0.2364
 5132TIP3   OH239590   4.601   7.550   6.805 -0.2021  0.8732  0.4026
 5132TIP3    H139591   4.516   7.507   6.792  0.8214 -1.2926  0.4048
 5132TIP3    H239592   4.662   7.498   6.754  1.7212  0.1617  3.1875
 5133TIP3   OH239593   4.628   6.095   7.613  0.7197  0.3708  0.2736
 5133TIP3    H139594   4.681   6.144   7.551  2.0982 -3.7647 -2.1889
 5133TIP3    H239595   4.691   6.055   7.673  0.1510 -1.6929 -0.4217
 5134TIP3   OH239596   0.493   7.544   7.834 -0.0344 -0.6475  0.2257
 5134TIP3    H139597   0.403   7.532   7.862 -0.7065  0.7057 -1.1667
 5134TIP3    H239598   0.492   7.628   7.787  1.8229 -0.8766 -0.3010
 5135TIP3   OH239599   5.139   2.344   9.605  0.0145  0.6241 -0.3423
 5135TIP3    H139600   5.072   2.315   9.542  0.6058  0.4150 -0.8822
 5135TIP3    H239601   5.135   2.280   9.676  1.3869 -0.8917 -1.5762
 5136TIP3   OH239602   0.324   6.843   7.569  0.1021  0.5255  0.4996
 5136TIP3    H139603   0.332   6.862   7.476  0.1600  0.0596  0.4079
 5136TIP3    H239604   0.404   6.879   7.608  1.1894 -1.2597  0.0437
 5137TIP3   OH239605   6.141   6.769   8.498  0.2045  0.4962  0.1324
 5137TIP3    H139606   6.154   6.676   8.517 -0.6701  0.1864 -0.7380
 5137TIP3    H239607   6.230   6.805   8.501  0.3669  0.0964  2.6235
 5138TIP3   OH239608   1.810   5.352   7.680  0.5107  0.0195  0.3557
 5138TIP3    H139609   1.804   5.405   7.600 -0.1647 -0.2233  0.2368
 5138TIP3    H239610   1.827   5.263   7.648 -1.9508 -0.5031  0.3200
 5139TIP3   OH239611   6.016   1.895   7.369 -0.9320  0.0122  0.1018
 5139TIP3    H139612   6.110   1.892   7.351 -0.5132  0.2193  2.0097
 5139TIP3    H239613   5.981   1.816   7.329  0.3774 -1.0185  0.9042
 5140TIP3   OH239614   3.359   1.428   7.158  0.1699  0.3975 -0.3226
 5140TIP3    H139615   3.320   1.386   7.234 -1.2425  0.1286 -1.1515
 5140TIP3    H239616   3.438   1.377   7.140  0.1451  0.0445  0.5340
 5141TIP3   OH239617   1.206   6.686   9.183  0.7850 -0.0636 -0.1585
 5141TIP3    H139618   1.153   6.668   9.261  0.3900  1.6098  0.0093
 5141TIP3    H239619   1.212   6.602   9.138 -0.7832 -0.6178  0.5753
 5142TIP3   OH239620   0.428   4.612   8.787 -0.6046 -0.6920  0.2182
 5142TIP3    H139621   0.424   4.588   8.880 -1.7501 -0.6683  0.1915
 5142TIP3    H239622   0.368   4.686   8.779 -1.1532 -1.2120 -0.6864
 5143TIP3   OH239623   4.711   0.442   6.968 -0.1073  0.0962  0.2817
 5143TIP3    H139624   4.617   0.446   6.950 -0.0665  0.8654  0.1922
 5143TIP3    H239625   4.728   0.519   7.022  0.4402 -0.1469  0.4636
 5144TIP3   OH239626   1.321   1.171   6.529  0.1581  0.2554 -0.1817
 5144TIP3    H139627   1.386   1.170   6.599  0.6480  1.2473 -0.6150
 5144TIP3    H239628   1.301   1.263   6.515 -2.5357 -0.0417  1.0009
 5145TIP3   OH239629   5.739   4.494   8.410  0.6494  0.4361  0.4095
 5145TIP3    H139630   5.777   4.539   8.335  0.9350  0.3626  0.5082
 5145TIP3    H239631   5.646   4.512   8.404  0.8920  2.0716  1.1385
 5146TIP3   OH239632   7.342   1.769   9.173  0.7159  0.0672  0.4675
 5146TIP3    H139633   7.364   1.707   9.243  0.0968  0.0774  0.6862
 5146TIP3    H239634   7.255   1.740   9.143 -0.1195  1.5079  1.3724
 5147TIP3   OH239635   2.497   7.231   7.112  0.0271 -0.3178  0.8298
 5147TIP3    H139636   2.509   7.274   7.027  0.2414  1.8855  1.9154
 5147TIP3    H239637   2.409   7.258   7.139  0.4153 -0.0328  1.8246
 5148TIP3   OH239638   3.808   6.178   7.750 -0.6681 -0.2735 -0.1964
 5148TIP3    H139639   3.891   6.214   7.719 -0.9012 -1.7261 -2.7865
 5148TIP3    H239640   3.832   6.122   7.824  0.8513 -1.4604 -1.5122
 5149TIP3   OH239641   6.617   3.806   7.699  0.5223 -0.0180  0.1969
 5149TIP3    H139642   6.532   3.769   7.723 -0.0121  1.7541  1.2912
 5149TIP3    H239643   6.681   3.756   7.749  0.1549 -1.3946 -0.6618
 5150TIP3   OH239644   5.706   0.083   6.464  0.0607  0.9842 -0.2107
 5150TIP3    H139645   5.718  -0.011   6.452 -3.7775  0.4193 -1.1003
 5150TIP3    H239646   5.720   0.121   6.377  0.5114  1.0890 -0.0949
 5151TIP3   OH239647   0.316   4.934   9.348 -0.3463 -1.1277 -0.0144
 5151TIP3    H139648   0.231   4.954   9.386 -0.5126  0.2297 -1.0211
 5151TIP3    H239649   0.375   4.929   9.423 -1.0498 -0.6010  0.5902
 5152TIP3   OH239650   4.647   1.419   9.495 -0.0971 -0.3328  0.0119
 5152TIP3    H139651   4.722   1.466   9.458  0.5252  1.1001  2.8104
 5152TIP3    H239652   4.676   1.328   9.499  0.2804 -0.3319 -1.6836
 5153TIP3   OH239653   2.567   6.414   6.839  0.6602  0.5315  0.4402
 5153TIP3    H139654   2.479   6.376   6.831  0.1764  1.8895 -1.2183
 5153TIP3    H239655   2.570   6.481   6.771  3.9999 -1.4278 -1.6048
 5154TIP3   OH239656   7.460   7.565   7.960  0.2568 -0.1721 -0.7797
 5154TIP3    H139657   7.470   7.531   8.049  0.0276  1.2228 -0.1986
 5154TIP3    H239658   7.487   7.656   7.965 -0.9649  0.2867 -1.8536
 5155TIP3   OH239659   4.987   6.293   9.333  0.1451  0.2266  0.1773
 5155TIP3    H139660   4.945   6.208   9.342  1.1333 -0.3193 -0.2036
 5155TIP3    H239661   4.978   6.314   9.240  2.6853 -0.9994 -0.4368
 5156TIP3   OH239662   1.476   7.523   8.409 -0.2615 -0.2129  0.2080
 5156TIP3    H139663   1.394   7.551   8.452  0.0807  3.4212 -1.1455
 5156TIP3    H239664   1.448   7.484   8.327 -0.6737 -1.7929  1.0531
 5157TIP3   OH239665   3.371   3.231   9.193  0.3567  0.2839  0.3761
 5157TIP3    H139666   3.299   3.276   9.236  0.7223  0.2878  1.0066
 5157TIP3    H239667   3.365   3.257   9.102 -0.9302 -0.3610  0.2533
 5158TIP3   OH239668   0.439   3.622   8.340  0.0427  0.3612 -0.2053
 5158TIP3    H139669   0.483   3.607   8.424  0.8750 -1.9335 -0.9904
 5158TIP3    H239670   0.348   3.596   8.355 -0.4633  2.3952  0.6272
 5159TIP3   OH239671   6.127   6.387   8.490  0.5093  0.0862  0.0878
 5159TIP3    H139672   6.047   6.435   8.513  0.4282 -0.6088  1.3374
 5159TIP3    H239673   6.139   6.324   8.561  0.9231 -1.3911 -1.2224
 5160TIP3   OH239674   5.328   6.723   8.876  0.1055 -0.1250  0.0990
 5160TIP3    H139675   5.313   6.817   8.866 -0.4798 -0.3452 -1.2624
 5160TIP3    H239676   5.241   6.685   8.879  0.3427 -0.6678  0.1632
 5161TIP3   OH239677   2.228   1.596   9.404 -0.7683 -0.4185  0.0886
 5161TIP3    H139678   2.236   1.636   9.490 -0.9601 -0.1295 -0.0260
 5161TIP3    H239679   2.246   1.503   9.419  0.4652 -0.1786  0.2306
 5162TIP3   OH239680   0.026   3.896   8.417  0.0369  0.5939 -0.1391
 5162TIP3    H139681   0.032   3.937   8.331  1.2404 -0.5703 -0.6623
 5162TIP3    H239682   0.117   3.874   8.439 -0.4678 -1.1498  0.3842
 5163TIP3   OH239683   2.316   7.408   8.021 -0.1361 -0.1988  0.2551
 5163TIP3    H139684   2.358   7.484   8.061  0.4162 -0.6951  0.6407
 5163TIP3    H239685   2.329   7.337   8.085  0.0417 -0.8066 -0.4443
 5164TIP3   OH239686   5.139   2.443   7.892  0.0700 -0.4736  0.0588
 5164TIP3    H139687   5.216   2.457   7.837 -0.4150  1.3718 -0.2173
 5164TIP3    H239688   5.137   2.348   7.906  1.6851 -0.6994 -0.9283
 5165TIP3   OH239689   3.515   3.298   7.953  0.4081 -0.3279  0.8070
 5165TIP3    H139690   3.555   3.368   7.901 -1.2586  0.9199  1.1141
 5165TIP3    H239691   3.588   3.259   8.001  1.4642  0.8988  0.2637
 5166TIP3   OH239692   1.856   7.104   8.482  0.2223  0.1422 -0.6537
 5166TIP3    H139693   1.815   7.069   8.561  0.0778  0.3486 -0.6377
 5166TIP3    H239694   1.910   7.032   8.450  0.0116 -0.0584 -0.5590
 5167TIP3   OH239695   0.901   5.342   8.416 -0.6416 -0.5707 -0.3797
 5167TIP3    H139696   0.831   5.321   8.478 -0.1150  0.0228  0.4368
 5167TIP3    H239697   0.883   5.433   8.390  0.1615 -0.2069  0.3069
 5168TIP3   OH239698   3.533   6.631   8.519  0.0976 -0.1865 -0.3909
 5168TIP3    H139699   3.475   6.682   8.462 -0.8134 -1.2811 -0.4897
 5168TIP3    H239700   3.556   6.691   8.590 -0.2555  0.6227 -0.9481
 5169TIP3   OH239701   2.247   2.430   7.336  0.3227 -0.0551 -0.3166
 5169TIP3    H139702   2.196   2.416   7.416  0.9165 -2.4819 -0.2834
 5169TIP3    H239703   2.224   2.356   7.279  1.1884  0.6987 -1.7098
 5170TIP3   OH239704   1.446   2.653   8.017  0.1794  0.2486  0.0919
 5170TIP3    H139705   1.423   2.724   8.077 -0.5916  0.5683 -0.5580
 5170TIP3    H239706   1.507   2.693   7.955 -0.7318  0.5374 -0.6476
 5171TIP3   OH239707   1.923   3.971   6.746 -0.7629 -0.9187  0.0728
 5171TIP3    H139708   1.913   3.998   6.655  0.1540 -2.7030 -0.6166
 5171TIP3    H239709   1.841   3.996   6.788 -0.4012  1.8299 -0.6837
 5172TIP3   OH239710   5.440   4.439   7.120 -0.1134 -0.8080  0.5794
 5172TIP3    H139711   5.407   4.470   7.037  0.6713 -2.4780 -0.4216
 5172TIP3    H239712   5.427   4.512   7.181  1.1313  1.2194 -1.4502
 5173TIP3   OH239713   4.313   1.083   8.330 -0.1156  0.0068 -0.1483
 5173TIP3    H139714   4.309   1.173   8.363 -0.3139  0.2046 -0.6989
 5173TIP3    H239715   4.312   1.029   8.408 -1.9621  0.4210  0.1611
 5174TIP3   OH239716   5.992   3.407   8.648 -0.1090  0.1650  0.3077
 5174TIP3    H139717   5.919   3.387   8.591  0.1537  1.5329 -0.5655
 5174TIP3    H239718   6.053   3.457   8.593  2.5187 -2.6728  0.3791
 5175TIP3   OH239719   0.651   5.091   9.273 -0.0449 -0.3899 -0.1390
 5175TIP3    H139720   0.575   5.073   9.218 -0.6837  3.9986 -1.0514
 5175TIP3    H239721   0.681   5.177   9.245  3.0699 -0.3567  2.6905
 5176TIP3   OH239722   4.681   4.330   8.427 -0.2317  0.4240 -0.0569
 5176TIP3    H139723   4.731   4.313   8.506  0.6755 -0.7418 -0.8527
 5176TIP3    H239724   4.677   4.426   8.421  0.5939  0.5262  0.8229
 5177TIP3   OH239725   5.369   6.411   7.740  0.0941  0.3720  0.4377
 5177TIP3    H139726   5.378   6.506   7.749 -1.0456  0.4809  0.5374
 5177TIP3    H239727   5.348   6.381   7.829 -0.3742  0.1280  0.2462
 5178TIP3   OH239728   1.468   2.502   6.635 -0.0146  0.4985  0.5992
 5178TIP3    H139729   1.523   2.461   6.702  0.4857  0.8091  0.3835
 5178TIP3    H239730   1.475   2.596   6.653 -1.9629  0.4651  1.7254
 5179TIP3   OH239731   1.678   3.663   7.221 -0.8947  0.2064 -0.0624
 5179TIP3    H139732   1.703   3.708   7.140  3.7536  0.6515  1.2800
 5179TIP3    H239733   1.622   3.726   7.267 -1.9473  0.7721 -2.0190
 5180TIP3   OH239734   0.948   2.140   8.445 -0.0865  0.2602 -0.5377
 5180TIP3    H139735   1.000   2.124   8.523  1.4017 -0.8625 -1.7100
 5180TIP3    H239736   0.898   2.059   8.432  0.8175 -0.1604 -1.5590
 5181TIP3   OH239737   5.438   6.925   7.881  0.0629  0.0765  0.6222
 5181TIP3    H139738   5.526   6.911   7.848  0.2668 -0.8780  1.5387
 5181TIP3    H239739   5.425   7.020   7.874  0.6973  0.0910 -0.6166
 5182TIP3   OH239740   5.712   3.362   7.674 -0.2288 -0.0043  0.2885
 5182TIP3    H139741   5.799   3.325   7.691 -0.2319  0.3455  1.0952
 5182TIP3    H239742   5.666   3.293   7.626  0.0979 -0.6566  0.8938
 5183TIP3   OH239743   2.744   2.990   8.308 -0.5710  0.2558 -0.7542
 5183TIP3    H139744   2.825   3.041   8.305 -0.8729  0.9221  1.2291
 5183TIP3    H239745   2.695   3.027   8.381 -1.2989 -2.1729  0.0721
 5184TIP3   OH239746   1.233   4.945   9.616 -0.1187 -0.3054  0.4356
 5184TIP3    H139747   1.141   4.951   9.641 -0.3962 -2.4719  0.1095
 5184TIP3    H239748   1.240   4.862   9.569  2.1629 -0.6239  1.1998
 5185TIP3   OH239749   0.516   3.395   8.147 -0.7527 -0.3428 -1.1145
 5185TIP3    H139750   0.503   3.473   8.201  0.5829 -0.7032 -0.2176
 5185TIP3    H239751   0.610   3.393   8.130 -0.6332 -2.1378 -0.4646
 5186TIP3   OH239752   0.614   3.744   7.199  0.1331  0.1975 -0.3225
 5186TIP3    H139753   0.617   3.826   7.248 -0.6228  0.0326  0.0081
 5186TIP3    H239754   0.611   3.771   7.107 -2.7245  0.6462 -0.1764
 5187TIP3   OH239755   0.445   5.358   8.804  0.6554  0.1459  0.1128
 5187TIP3    H139756   0.365   5.410   8.811  0.9384  0.8988 -1.6575
 5187TIP3    H239757   0.483   5.361   8.891 -0.3410  1.2750  0.5386
 5188TIP3   OH239758   5.694   6.805   8.465  0.2436 -0.2164 -0.3613
 5188TIP3    H139759   5.765   6.779   8.407  1.7981  0.0320  1.3383
 5188TIP3    H239760   5.662   6.888   8.430  0.1382 -0.7943 -1.6787
 5189TIP3   OH239761   1.211   7.253   8.476 -0.6485  0.6192  0.3326
 5189TIP3    H139762   1.164   7.324   8.431 -1.6818  0.3437  0.9522
 5189TIP3    H239763   1.285   7.233   8.418 -0.1183  2.4520  0.3335
 5190TIP3   OH239764   3.547   2.106   9.558 -0.2952 -0.4777  0.6513
 5190TIP3    H139765   3.540   2.021   9.602 -1.1191  0.0550  1.5626
 5190TIP3    H239766   3.480   2.160   9.598 -1.3864 -0.0903 -1.5705
 5191TIP3   OH239767   1.745   1.682   7.996  0.8369  0.0007 -0.3778
 5191TIP3    H139768   1.693   1.638   8.064  1.4279 -1.2241 -0.6897
 5191TIP3    H239769   1.769   1.612   7.936  3.0885  0.4728 -0.0898
 5192TIP3   OH239770   1.625   6.513   8.522  0.7052 -0.1454  0.2809
 5192TIP3    H139771   1.652   6.446   8.586  0.7097  0.3458  0.8011
 5192TIP3    H239772   1.704   6.562   8.503  0.6227 -0.0510  0.1791
 5193TIP3   OH239773   2.259   3.487   8.034  0.1362  0.4544  0.0836
 5193TIP3    H139774   2.188   3.483   7.969  0.5173 -0.7697 -0.2761
 5193TIP3    H239775   2.228   3.432   8.106  0.2192  0.8740  0.4427
 5194TIP3   OH239776   4.632   4.769   8.357  0.0962 -0.0811 -0.1992
 5194TIP3    H139777   4.577   4.840   8.390  1.3756  0.9568 -0.2167
 5194TIP3    H239778   4.572   4.715   8.305 -0.9411  0.9163 -0.0855
 5195TIP3   OH239779   5.348   1.248   8.164  0.3666 -1.0509 -0.1528
 5195TIP3    H139780   5.384   1.337   8.172  0.1011 -0.7315 -2.0521
 5195TIP3    H239781   5.422   1.190   8.180  0.4510 -0.5332  1.5624
 5196TIP3   OH239782   2.861   5.191   8.678  0.3247  0.7681  0.1140
 5196TIP3    H139783   2.933   5.253   8.690 -0.4122  1.7892 -0.6405
 5196TIP3    H239784   2.793   5.221   8.738  1.0134 -1.0601  1.9370
 5197TIP3   OH239785   5.919   1.291   7.876  0.4238 -0.3580  0.2282
 5197TIP3    H139786   5.856   1.239   7.925  0.3102 -1.9225 -1.4609
 5197TIP3    H239787   5.972   1.335   7.943 -1.3548 -0.3463  1.6875
 5198TIP3   OH239788   3.210   7.270   6.859 -0.1756 -0.1664 -0.5073
 5198TIP3    H139789   3.171   7.344   6.905 -0.4666 -0.9292  0.5067
 5198TIP3    H239790   3.295   7.302   6.830 -1.2277  1.2945 -2.1492
 5199TIP3   OH239791   6.597   2.381   7.736  0.0179  0.5287  0.4191
 5199TIP3    H139792   6.547   2.377   7.817  2.3360 -2.6317  1.9069
 5199TIP3    H239793   6.542   2.338   7.671 -1.6030  2.5396  0.3750
 5200TIP3   OH239794   0.567   1.391   7.651 -0.1032 -0.6998  0.4083
 5200TIP3    H139795   0.636   1.326   7.647  0.6081  0.1029 -2.3022
 5200TIP3    H239796   0.496   1.355   7.598  0.0106  0.3508 -0.5072
 5201TIP3   OH239797   6.076   4.076   6.659  0.4248  0.3167  0.0165
 5201TIP3    H139798   5.981   4.085   6.667  0.5754  1.4388  0.7450
 5201TIP3    H239799   6.096   3.991   6.699 -0.1558  0.5944  0.9310
 5202TIP3   OH239800   3.593   5.897   7.817  0.4020 -0.6875  0.7823
 5202TIP3    H139801   3.588   5.889   7.722  1.6788 -1.2145  0.7383
 5202TIP3    H239802   3.576   5.808   7.849  0.3043 -0.5803  1.0307
 5203TIP3   OH239803   2.076   3.628   9.289  0.3187  0.0625  0.1013
 5203TIP3    H139804   2.029   3.705   9.320 -0.4535  0.6443 -2.2549
 5203TIP3    H239805   2.124   3.595   9.365 -0.0362  2.3480  1.3737
 5204TIP3   OH239806   5.738   7.023   7.215 -0.2150 -0.1613 -0.0169
 5204TIP3    H139807   5.790   7.008   7.293 -2.4646  1.2476  1.8719
 5204TIP3    H239808   5.676   6.950   7.213 -0.2205 -0.1526 -0.4794
 5205TIP3   OH239809   5.293   0.647   8.020  0.0126 -0.0547 -0.1148
 5205TIP3    H139810   5.273   0.727   8.068  1.7232  0.7304 -0.6181
 5205TIP3    H239811   5.246   0.578   8.066 -1.6595  1.2501  0.2148
 5206TIP3   OH239812   4.127   2.702   8.409  0.7257  0.3674 -0.3317
 5206TIP3    H139813   4.061   2.636   8.391 -1.2885  1.9402  0.8629
 5206TIP3    H239814   4.209   2.664   8.376 -0.6264 -1.9258 -1.2692
 5207TIP3   OH239815   3.057   2.695   7.953  0.1785  0.3164  0.1177
 5207TIP3    H139816   3.118   2.769   7.959 -1.6143  1.7904  1.9955
 5207TIP3    H239817   3.095   2.628   8.010  1.2366  0.2345 -0.6649
 5208TIP3   OH239818   2.625   0.666   7.487 -0.5487 -0.3224  0.1469
 5208TIP3    H139819   2.560   0.735   7.496 -1.0345 -0.5649 -1.2517
 5208TIP3    H239820   2.606   0.605   7.558  0.7876  1.6173  2.3072
 5209TIP3   OH239821   2.317   4.368   7.615  0.4916 -0.0466  0.5105
 5209TIP3    H139822   2.332   4.415   7.697 -0.4019  0.6956  0.2610
 5209TIP3    H239823   2.382   4.298   7.616  0.4165 -0.1364  1.9226
 5210TIP3   OH239824   5.211   1.130   8.772 -0.1395  0.0269  0.0162
 5210TIP3    H139825   5.247   1.115   8.860 -1.0576  0.4216  0.4696
 5210TIP3    H239826   5.167   1.049   8.749 -1.9565  0.7011  0.9404
 5211TIP3   OH239827   3.735   0.846   9.125  0.2673 -0.2210 -0.2081
 5211TIP3    H139828   3.700   0.789   9.056 -0.5568  1.3691 -1.1675
 5211TIP3    H239829   3.658   0.870   9.177  0.6121  0.0125  0.2033
 5212TIP3   OH239830   6.197   6.727   9.621 -0.3844  0.4054 -0.0201
 5212TIP3    H139831   6.242   6.759   9.543  1.3034 -0.3605  0.5866
 5212TIP3    H239832   6.171   6.638   9.599  0.4147  0.0599  0.3903
 5213TIP3   OH239833   1.165   0.695   9.186  0.0401 -0.0958  0.6045
 5213TIP3    H139834   1.112   0.618   9.206  1.1464 -1.2609 -0.7247
 5213TIP3    H239835   1.216   0.710   9.266  0.2514 -1.1217  0.6738
 5214TIP3   OH239836   7.034   3.650   7.710 -0.5591 -0.1079 -0.1823
 5214TIP3    H139837   7.065   3.676   7.623 -3.0243  0.4840 -0.9395
 5214TIP3    H239838   7.108   3.669   7.768  1.2070 -0.6544 -2.1321
 5215TIP3   OH239839   2.542   6.189   7.502 -0.0701  0.5696 -0.4096
 5215TIP3    H139840   2.623   6.213   7.458 -0.1807 -0.2101 -1.0589
 5215TIP3    H239841   2.564   6.109   7.550 -0.2971  0.6955 -0.0925
 5216TIP3   OH239842   6.836   4.439   7.383 -0.8599 -0.2072  0.1859
 5216TIP3    H139843   6.785   4.384   7.324 -0.6022 -0.8820  0.5875
 5216TIP3    H239844   6.902   4.381   7.420 -0.6514  0.3425  0.6961
 5217TIP3   OH239845   6.309   2.576   8.379  0.1190 -0.0878  0.1875
 5217TIP3    H139846   6.230   2.560   8.327 -0.6306 -2.2552  1.8504
 5217TIP3    H239847   6.284   2.554   8.468  2.0524  1.1875  1.1173
 5218TIP3   OH239848   6.498   5.010   8.453 -0.8519 -0.3847  0.1329
 5218TIP3    H139849   6.477   4.996   8.546 -0.6619 -1.9351 -0.0168
 5218TIP3    H239850   6.425   4.970   8.406  0.6166 -2.7262 -0.3629
 5219TIP3   OH239851   2.706   1.605   9.411 -0.7028  0.1658 -0.0740
 5219TIP3    H139852   2.718   1.683   9.466 -1.4960  0.2269  0.0293
 5219TIP3    H239853   2.636   1.629   9.350  0.4676  0.2519 -1.4254
 5220TIP3   OH239854   3.580   6.211   8.802 -0.5421  0.2255 -0.1861
 5220TIP3    H139855   3.555   6.289   8.851  1.0496 -0.2130  1.4433
 5220TIP3    H239856   3.593   6.144   8.869  1.5506 -0.4563 -1.1796
 5221TIP3   OH239857   1.139   1.953   9.236  0.2622 -0.2287 -0.8755
 5221TIP3    H139858   1.221   1.906   9.219  0.4281 -0.7108  1.0609
 5221TIP3    H239859   1.089   1.944   9.155  1.1609 -1.9265 -1.2857
 5222TIP3   OH239860   5.198   3.313   7.890 -0.2480 -0.2726  0.0449
 5222TIP3    H139861   5.117   3.287   7.846 -1.6754 -1.8273  3.2802
 5222TIP3    H239862   5.267   3.274   7.836 -1.6727 -0.0821 -2.0376
 5223TIP3   OH239863   0.710   1.462   9.424 -0.3672 -0.0981  0.7728
 5223TIP3    H139864   0.776   1.529   9.410 -0.1777 -0.4004  0.1891
 5223TIP3    H239865   0.671   1.448   9.338 -2.2711  1.1668  1.3598
 5224TIP3   OH239866   3.374   6.450   9.212  0.2446 -0.2729  0.4727
 5224TIP3    H139867   3.445   6.480   9.270  1.5115  0.0903 -1.1848
 5224TIP3    H239868   3.334   6.531   9.180 -0.1048 -0.4587  0.4377
 5225TIP3   OH239869   5.876   7.461   8.373 -0.1596  0.1703  0.5310
 5225TIP3    H139870   5.810   7.432   8.436  0.3036  1.0111  1.4281
 5225TIP3    H239871   5.875   7.393   8.305 -2.4463  0.5072  0.1242
 5226TIP3   OH239872   5.350   7.036   7.143  0.3397 -0.3925 -1.0391
 5226TIP3    H139873   5.417   6.983   7.185  0.9525  1.1307  0.0160
 5226TIP3    H239874   5.352   7.009   7.051  0.2103 -2.5445 -0.4475
 5227TIP3   OH239875   4.851   0.274   8.185  0.3282 -0.3601  0.3642
 5227TIP3    H139876   4.855   0.349   8.246  1.4284 -0.1137 -0.0028
 5227TIP3    H239877   4.799   0.209   8.232  0.0758  0.3050  1.0434
 5228TIP3   OH239878   2.295   6.009   8.475  0.3025 -0.3814 -0.0835
 5228TIP3    H139879   2.282   6.102   8.490 -1.1235 -0.5370 -0.1792
 5228TIP3    H239880   2.277   5.968   8.560 -1.6025 -0.7411 -0.6036
 5229TIP3   OH239881   3.084   2.574   8.933  0.3607 -0.4455  0.1746
 5229TIP3    H139882   3.088   2.662   8.897 -2.2796  0.3693  1.6350
 5229TIP3    H239883   2.996   2.543   8.912  1.1510 -2.6832 -0.1018
 5230TIP3   OH239884   3.008   0.805   8.775  0.6241  0.0619 -0.4500
 5230TIP3    H139885   2.985   0.876   8.835 -0.8384 -0.0435 -0.8317
 5230TIP3    H239886   2.978   0.835   8.689 -0.5551 -1.2066 -0.5350
 5231TIP3   OH239887   7.522   1.161   7.728 -0.5213 -0.0999  0.0639
 5231TIP3    H139888   7.448   1.141   7.786 -1.6508  3.0513 -0.0777
 5231TIP3    H239889   7.488   1.148   7.640 -0.9076  1.1362  0.0057
 5232TIP3   OH239890   1.157   3.461   9.964 -0.2032  0.5060 -0.0654
 5232TIP3    H139891   1.161   3.432  10.055 -0.4741 -1.4906 -0.6460
 5232TIP3    H239892   1.066   3.445   9.938  0.1313  0.0471 -0.9907
 5233TIP3   OH239893   5.287   4.369   8.807 -0.4890 -0.1458 -0.1025
 5233TIP3    H139894   5.312   4.431   8.739 -1.5536 -0.3129 -0.6653
 5233TIP3    H239895   5.222   4.416   8.860 -1.2965 -0.7610 -0.5289
 5234TIP3   OH239896   3.748   2.598   8.671  0.4748 -0.5108  0.0300
 5234TIP3    H139897   3.752   2.691   8.651  0.2361 -0.3499  0.7100
 5234TIP3    H239898   3.794   2.589   8.754 -1.6149 -0.6142  1.2204
 5235TIP3   OH239899   2.576   1.844   9.045 -0.4706  1.3326  0.3602
 5235TIP3    H139900   2.485   1.871   9.060 -0.5603  1.7263 -0.7566
 5235TIP3    H239901   2.618   1.851   9.131 -1.8525 -0.3679  1.2206
 5236TIP3   OH239902   3.325   2.614   8.299 -0.4932 -0.1347  0.1916
 5236TIP3    H139903   3.349   2.703   8.323  0.7952 -0.0856 -1.1283
 5236TIP3    H239904   3.278   2.580   8.376  0.0916  1.2438  1.2031
 5237TIP3   OH239905   2.102   6.155   9.450 -0.4077 -0.1779  0.1127
 5237TIP3    H139906   2.196   6.170   9.459 -0.2645 -0.2118 -1.0961
 5237TIP3    H239907   2.085   6.077   9.503  0.1662  0.0634  0.6629
 5238TIP3   OH239908   5.935   6.471   8.857 -0.0896  0.1236 -0.1665
 5238TIP3    H139909   5.914   6.477   8.764 -1.1350 -0.2303  0.0418
 5238TIP3    H239910   5.869   6.413   8.893  0.9514 -0.6146  0.6132
 5239TIP3   OH239911   5.463   1.819   8.130  0.2252 -0.0734 -0.4519
 5239TIP3    H139912   5.551   1.789   8.153 -0.1810 -1.7480 -0.9424
 5239TIP3    H239913   5.441   1.883   8.198  1.7329  0.2218 -0.2147
 5240TIP3   OH239914   3.953   5.800   7.697  0.0370 -0.1665 -0.6240
 5240TIP3    H139915   3.957   5.828   7.789  0.1901 -1.3201 -0.2704
 5240TIP3    H239916   4.010   5.862   7.651  1.6572 -0.8160  0.3917
 5241TIP3   OH239917   5.663   4.877   9.372 -0.2843  0.8449 -0.0627
 5241TIP3    H139918   5.759   4.881   9.377 -0.2893  0.9220 -0.0233
 5241TIP3    H239919   5.643   4.879   9.279 -0.2078 -0.0812 -0.1063
 5242TIP3   OH239920   5.791   0.872   8.839  0.7151 -0.6293  0.1688
 5242TIP3    H139921   5.865   0.873   8.900  1.3256 -0.3477 -0.5616
 5242TIP3    H239922   5.717   0.901   8.892  1.9410  3.6883 -0.0764
 5243TIP3   OH239923   4.140   0.828   6.981 -0.4593  0.4459 -0.4727
 5243TIP3    H139924   4.137   0.885   6.905  0.3086 -0.3793 -1.1374
 5243TIP3    H239925   4.147   0.740   6.945 -0.6715 -0.0020  0.5473
 5244TIP3   OH239926   3.319   3.868   7.348 -0.4685  0.5502 -0.1797
 5244TIP3    H139927   3.410   3.846   7.329 -0.3897  1.6416 -1.1564
 5244TIP3    H239928   3.300   3.943   7.292 -1.7651  0.7743  0.5228
 5245TIP3   OH239929   0.311   0.697   7.713 -0.3556 -0.2424 -0.3245
 5245TIP3    H139930   0.305   0.623   7.652 -0.9003  0.7937 -1.5800
 5245TIP3    H239931   0.327   0.773   7.657 -1.9348  0.9168  0.6974
 5246TIP3   OH239932   3.247   5.799   8.474  0.3351  0.0733 -0.0256
 5246TIP3    H139933   3.158   5.832   8.464  0.4262  0.3944  0.2265
 5246TIP3    H239934   3.249   5.762   8.562  0.6281  0.6123  0.1977
 5247TIP3   OH239935   6.633   1.124   7.307  0.2431  0.3968 -0.1107
 5247TIP3    H139936   6.647   1.123   7.212 -0.7108 -0.6082 -0.2637
 5247TIP3    H239937   6.721   1.119   7.345  0.5610 -0.6449 -0.9557
 5248TIP3   OH239938   7.418   6.867   7.176  0.1367 -0.4058  0.1539
 5248TIP3    H139939   7.325   6.852   7.158 -0.0450 -0.7751  1.3333
 5248TIP3    H239940   7.463   6.830   7.100 -0.5864 -2.2215  0.5549
 5249TIP3   OH239941   6.896   1.102   7.357 -0.6550 -0.1632  0.1473
 5249TIP3    H139942   6.950   1.095   7.436  0.6408 -1.6387 -0.8392
 5249TIP3    H239943   6.939   1.169   7.304 -1.3323  0.5769  0.5036
 5250TIP3   OH239944   2.806   0.602   9.444 -0.1551  0.1311  0.1428
 5250TIP3    H139945   2.845   0.661   9.509  1.2299 -0.7991  0.1889
 5250TIP3    H239946   2.754   0.660   9.388  1.0568  1.3812  0.2545
 5251TIP3   OH239947   7.164   7.161   7.987 -0.4134 -0.0352  0.2452
 5251TIP3    H139948   7.196   7.109   7.914 -1.6208 -1.1962  0.5149
 5251TIP3    H239949   7.084   7.202   7.954 -0.1766  0.6320  0.4635
 5252TIP3   OH239950   4.323   0.274   9.031  0.2686  0.0394  0.4478
 5252TIP3    H139951   4.345   0.181   9.031 -1.3935 -0.3858  0.1743
 5252TIP3    H239952   4.317   0.297   8.938  2.0796  0.8175  0.4780
 5253TIP3   OH239953   6.187   6.201   9.498  0.2039  0.1182 -0.4146
 5253TIP3    H139954   6.177   6.108   9.480  1.8563 -0.3689  0.9252
 5253TIP3    H239955   6.281   6.218   9.487 -0.0617  1.6364 -0.6309
 5254TIP3   OH239956   4.960   5.775   9.063  0.3702  0.1391 -0.1202
 5254TIP3    H139957   5.012   5.696   9.079  0.2536  0.1011  0.0852
 5254TIP3    H239958   4.870   5.744   9.054  0.1591  0.3437  1.0622
 5255TIP3   OH239959   2.906   4.454   7.504  0.5014 -0.5308 -0.2286
 5255TIP3    H139960   2.940   4.399   7.575  0.8859 -0.1727 -0.1268
 5255TIP3    H239961   2.861   4.393   7.446  1.5769 -1.0815 -0.5170
 5256TIP3   OH239962   2.088   2.584   8.243  0.4646 -0.0455  0.0960
 5256TIP3    H139963   2.068   2.582   8.149 -0.6383 -0.1468  0.3210
 5256TIP3    H239964   2.170   2.534   8.251  0.8752  0.4403 -0.8683
 5257TIP3   OH239965   7.110   7.497   8.906  0.8008  0.0334  0.2187
 5257TIP3    H139966   7.101   7.489   9.001 -0.0819  2.1447  0.3830
 5257TIP3    H239967   7.167   7.425   8.881  1.9968  0.0809  2.5177
 5258TIP3   OH239968   2.209   6.825   9.977  0.1186  0.1237  0.0918
 5258TIP3    H139969   2.280   6.872   9.933  0.6029 -0.3992  0.3060
 5258TIP3    H239970   2.176   6.887  10.043 -0.0974  0.6243 -0.4762
 5259TIP3   OH239971   0.409   2.318   8.877  0.4324 -0.3915  0.0746
 5259TIP3    H139972   0.317   2.297   8.893 -0.3108  2.5993  0.2288
 5259TIP3    H239973   0.414   2.335   8.783  0.2234  1.7323  0.3967
 5260TIP3   OH239974   7.165   7.051   7.699 -0.4245 -0.3674  0.5900
 5260TIP3    H139975   7.223   7.042   7.623  1.6801  0.6092  1.9842
 5260TIP3    H239976   7.129   6.963   7.712 -0.1963 -0.7301 -1.0287
 5261TIP3   OH239977   4.039   4.684   7.333 -0.0898 -0.0322  0.0414
 5261TIP3    H139978   3.975   4.618   7.306  0.1748 -0.4152  0.3396
 5261TIP3    H239979   3.992   4.767   7.325 -1.0674 -0.4009  1.4576
 5262TIP3   OH239980   1.907   3.351   8.368 -0.1639 -0.0854 -0.0667
 5262TIP3    H139981   1.909   3.393   8.454 -1.9309 -1.3014  0.6179
 5262TIP3    H239982   1.971   3.280   8.375  0.5942  0.5686 -0.1975
 5263TIP3   OH239983   4.982   5.710   8.511 -0.1088  0.1388  0.1032
 5263TIP3    H139984   4.934   5.716   8.428  0.1249 -0.1819 -0.0540
 5263TIP3    H239985   5.041   5.786   8.510  0.3194 -0.1914 -0.2963
 5264TIP3   OH239986   4.421   7.022   7.204 -0.3321  0.3619 -0.0405
 5264TIP3    H139987   4.466   6.966   7.267 -0.3097 -0.6648 -0.9285
 5264TIP3    H239988   4.490   7.076   7.165 -0.3024  0.7815  0.5860
 5265TIP3   OH239989   1.161   2.964   8.168  0.2097  0.1058  0.2715
 5265TIP3    H139990   1.086   2.906   8.176  2.0432 -2.5902 -0.8893
 5265TIP3    H239991   1.146   3.011   8.086  0.4237 -1.4638 -0.7011
 5266TIP3   OH239992   2.584   0.110   7.094 -0.2154 -0.0020 -0.1440
 5266TIP3    H139993   2.641   0.044   7.055 -0.4308 -0.5615  0.4696
 5266TIP3    H239994   2.643   0.182   7.116  0.4824 -1.0165  1.4843
 5267TIP3   OH239995   0.544   2.237   7.303 -0.5391 -0.7836 -0.6109
 5267TIP3    H139996   0.458   2.228   7.263 -0.8950 -0.8650  0.1425
 5267TIP3    H239997   0.526   2.267   7.392  0.2493 -0.1729 -0.6478
 5268TIP3   OH239998   5.513   0.638   6.817  0.4215 -0.2223  0.3607
 5268TIP3    H139999   5.563   0.592   6.749 -0.0771 -0.2595  0.0104
 5268TIP3    H240000   5.543   0.729   6.811  0.0532 -0.1263 -0.2415
 5269TIP3   OH240001   5.493   3.346   8.520  0.3142 -0.7935 -0.2253
 5269TIP3    H140002   5.404   3.337   8.555  0.4336  1.1536  0.6670
 5269TIP3    H240003   5.483   3.327   8.426 -0.2386 -4.7577  0.4588
 5270TIP3   OH240004   1.395   2.077   6.360  0.3558  0.1870 -0.5692
 5270TIP3    H140005   1.338   2.020   6.308 -0.6396  0.0551  0.6436
 5270TIP3    H240006   1.481   2.034   6.357 -0.0924 -0.7197 -0.6795
 5271TIP3   OH240007   1.087   0.944   7.026 -0.3147 -0.4249  0.8906
 5271TIP3    H140008   1.000   0.914   7.052 -1.0290 -1.7492 -2.4617
 5271TIP3    H240009   1.145   0.872   7.049 -0.5260 -0.5902  0.9082
 5272TIP3   OH240010   1.550   4.032   9.648 -0.1875 -0.5937 -0.0480
 5272TIP3    H140011   1.557   3.938   9.667 -2.9659 -0.4963  2.1846
 5272TIP3    H240012   1.609   4.073   9.711 -0.5570 -0.7781  0.4265
 5273TIP3   OH240013   5.420   0.807   6.555  0.2999 -0.6118  0.5559
 5273TIP3    H140014   5.446   0.863   6.482  1.4202 -0.1912  1.2491
 5273TIP3    H240015   5.400   0.723   6.515  1.1378 -0.4625 -0.2107
 5274TIP3   OH240016   3.307   7.182   8.551 -0.0264 -0.4225  0.4919
 5274TIP3    H140017   3.246   7.192   8.479 -0.9327 -1.5203  1.0755
 5274TIP3    H240018   3.284   7.098   8.591 -0.0132  0.4564  2.4721
 5275TIP3   OH240019   6.601   2.659   8.354  0.1250  0.0411 -0.1780
 5275TIP3    H140020   6.615   2.697   8.441 -0.0938 -1.0572  0.3546
 5275TIP3    H240021   6.514   2.620   8.358  0.5700 -1.0171 -0.5059
 5276TIP3   OH240022   1.436   1.694   7.409 -0.4744 -0.1738  0.9301
 5276TIP3    H140023   1.489   1.697   7.489  0.8374  1.1220  0.0667
 5276TIP3    H240024   1.380   1.771   7.415 -0.3098 -0.0241  0.5691
 5277TIP3   OH240025   5.991   5.584   9.315 -0.1689 -0.5220 -0.0282
 5277TIP3    H140026   5.912   5.604   9.264  0.2207 -0.8027 -0.7546
 5277TIP3    H240027   5.985   5.641   9.391 -2.3487 -2.2959  1.2448
 5278TIP3   OH240028   6.895   0.768   6.788 -0.1172 -0.1098 -0.4104
 5278TIP3    H140029   6.975   0.719   6.770 -1.3896 -2.4095 -0.2722
 5278TIP3    H240030   6.909   0.854   6.749  2.2766 -0.5376 -0.6267
 5279TIP3   OH240031   0.912   1.526   7.896  0.9349  0.0204  0.3921
 5279TIP3    H140032   0.988   1.468   7.889  0.9076  0.1544 -1.3377
 5279TIP3    H240033   0.908   1.571   7.811 -0.3870  0.8875  0.8835
 5280TIP3   OH240034   1.157   1.137   7.224 -0.2705 -0.6585 -0.2679
 5280TIP3    H140035   1.148   1.089   7.306  0.2982 -0.5770 -0.1533
 5280TIP3    H240036   1.156   1.070   7.156 -2.5515 -0.6209 -0.3615
 5281TIP3   OH240037   1.481   0.022   8.068  0.4474 -0.1205 -0.1527
 5281TIP3    H140038   1.551  -0.040   8.051  0.2652 -0.7115  1.1322
 5281TIP3    H240039   1.418  -0.026   8.122 -0.8396  0.4776 -1.0456
 5282TIP3   OH240040   3.984   2.316   7.315 -0.3340 -0.1382  0.3273
 5282TIP3    H140041   3.970   2.356   7.229 -0.8468 -1.2294 -0.1175
 5282TIP3    H240042   4.013   2.388   7.370 -2.8432  1.2461 -0.0049
 5283TIP3   OH240043   5.742   6.912   9.540  0.1761  0.4853  0.3690
 5283TIP3    H140044   5.744   6.835   9.482 -0.2798  0.1614  0.7769
 5283TIP3    H240045   5.834   6.925   9.564  0.2136 -0.2115  0.6446
 5284TIP3   OH240046   5.384   6.491   9.369 -0.9907 -0.2018  0.1085
 5284TIP3    H140047   5.462   6.476   9.422 -0.2446 -3.5740 -1.6386
 5284TIP3    H240048   5.320   6.427   9.401 -2.6555  1.6032  0.6192
 5285TIP3   OH240049   0.168   3.967   7.477 -0.4712 -0.7734 -0.0683
 5285TIP3    H140050   0.172   4.012   7.561 -0.3963  0.1633 -0.5589
 5285TIP3    H240051   0.253   3.985   7.437 -1.4253  1.0249 -1.4409
 5286TIP3   OH240052   1.446   7.423   7.537 -0.3343 -0.2372 -0.6464
 5286TIP3    H140053   1.500   7.350   7.506  0.6362  0.8124 -1.5151
 5286TIP3    H240054   1.476   7.498   7.486 -0.3977  1.0571  1.1353
 5287TIP3   OH240055   4.507   4.550   8.223  0.6733  0.2347 -0.1051
 5287TIP3    H140056   4.552   4.543   8.140 -0.5720 -0.8483 -0.7262
 5287TIP3    H240057   4.419   4.517   8.206  1.0014 -2.1010  2.1453
 5288TIP3   OH240058   1.410   4.417   9.745  0.3752  0.5089 -0.3374
 5288TIP3    H140059   1.369   4.429   9.659  0.1309  0.7578 -0.1884
 5288TIP3    H240060   1.371   4.485   9.799 -0.7957 -0.7519  0.4485
 5289TIP3   OH240061   2.662   1.635   8.231 -0.2713 -0.4502  0.6076
 5289TIP3    H140062   2.628   1.672   8.150  0.5476  0.9155  0.8622
 5289TIP3    H240063   2.695   1.548   8.206 -1.4889 -0.7211 -0.1639
 5290TIP3   OH240064   6.108   5.781   8.791 -0.0520  0.3618  0.5360
 5290TIP3    H140065   6.028   5.730   8.781 -0.0911  0.6104 -0.5749
 5290TIP3    H240066   6.172   5.720   8.828 -0.4925 -0.0959  0.5413
 5291TIP3   OH240067   7.052   4.916   8.588 -0.2799  0.5553  0.0597
 5291TIP3    H140068   7.019   4.926   8.677  1.2930  1.3154  0.6023
 5291TIP3    H240069   7.026   4.997   8.544 -0.1598  0.6399  0.1426
 5292TIP3   OH240070   1.363   3.428   9.788 -0.0655  0.4285  0.3386
 5292TIP3    H140071   1.315   3.405   9.708  1.9136 -0.0125 -0.7849
 5292TIP3    H240072   1.296   3.428   9.856 -1.9842  1.6436 -1.4248
 5293TIP3   OH240073   4.675   5.610   9.365  0.2733 -0.4327  0.0043
 5293TIP3    H140074   4.674   5.703   9.386 -0.9853  0.2330 -2.5591
 5293TIP3    H240075   4.591   5.577   9.397  0.7951 -0.7480  1.0723
 5294TIP3   OH240076   1.860   5.737   7.584  0.4349  0.4495 -0.2481
 5294TIP3    H140077   1.825   5.797   7.518 -0.8348 -0.3918 -0.3884
 5294TIP3    H240078   1.839   5.650   7.549 -3.2223 -0.0845  2.6698
 5295TIP3   OH240079   3.321   0.195   9.228  0.2868  0.1366 -0.0525
 5295TIP3    H140080   3.275   0.111   9.229 -0.5267  0.5704 -0.3154
 5295TIP3    H240081   3.414   0.171   9.220  0.0087 -0.7097 -0.9917
 5296TIP3   OH240082   4.338   3.259   8.384  0.1670  0.2135 -0.1721
 5296TIP3    H140083   4.354   3.354   8.380 -1.9205  0.6068 -0.4430
 5296TIP3    H240084   4.330   3.240   8.477 -2.1136  0.8958 -0.1476
 5297TIP3   OH240085   6.729   1.656   8.003  0.2013  0.3572  0.6420
 5297TIP3    H140086   6.684   1.572   7.996  3.5890 -1.6373  0.1800
 5297TIP3    H240087   6.724   1.694   7.915 -0.3207  0.0177  0.5254
 5298TIP3   OH240088   4.223   3.787   7.262  0.1070 -0.4096 -0.6198
 5298TIP3    H140089   4.304   3.772   7.214  0.3360 -2.7299  0.3469
 5298TIP3    H240090   4.159   3.728   7.221 -0.1414 -1.1526  0.7682
 5299TIP3   OH240091   5.040   6.567   7.659  0.3117  0.1677 -0.4392
 5299TIP3    H140092   5.086   6.539   7.580  1.4135 -0.8874  0.5295
 5299TIP3    H240093   5.106   6.612   7.710  0.0726 -0.6268  0.6095
 5300TIP3   OH240094   7.365   6.261   7.420 -0.1256  0.1198 -0.1703
 5300TIP3    H140095   7.298   6.328   7.424 -0.0986  0.0873  1.5579
 5300TIP3    H240096   7.442   6.305   7.383 -0.5279  0.6413 -0.3887
 5301TIP3   OH240097   3.629   4.596   7.607 -0.3053 -0.3147  0.0980
 5301TIP3    H140098   3.631   4.691   7.606  1.9397 -0.3195  0.2608
 5301TIP3    H240099   3.559   4.573   7.546  1.2750  1.3993 -2.5470
 5302TIP3   OH240100   5.261   6.802   7.542  0.1940  0.0154 -0.1079
 5302TIP3    H140101   5.270   6.771   7.632  0.9373  1.4861  0.3571
 5302TIP3    H240102   5.244   6.896   7.550  1.3853  0.3953 -1.5134
 5303TIP3   OH240103   7.185   4.067   8.957 -0.0981 -0.3419 -0.3479
 5303TIP3    H140104   7.116   4.098   8.897  0.1198 -0.4534 -0.6549
 5303TIP3    H240105   7.267   4.092   8.915  0.2112 -3.4861 -1.8671
 5304TIP3   OH240106   6.521   0.131   7.409  0.4245 -0.2396 -0.1329
 5304TIP3    H140107   6.576   0.144   7.331  0.4045 -0.0573 -0.1165
 5304TIP3    H240108   6.432   0.148   7.378  0.4630  0.2817  0.0376
 5305TIP3   OH240109   3.025   4.914   7.798  0.2845 -0.0815  0.0900
 5305TIP3    H140110   3.038   4.867   7.880 -1.1091 -1.2406 -0.2952
 5305TIP3    H240111   3.064   5.000   7.812  2.2398 -1.0694  1.0956
 5306TIP3   OH240112   1.386   5.844   6.739  0.7678  0.3094  0.2168
 5306TIP3    H140113   1.456   5.909   6.742  0.1590  1.0062 -0.3475
 5306TIP3    H240114   1.385   5.806   6.827  1.2751  0.9053  0.4882
 5307TIP3   OH240115   2.386   0.195   8.849  0.1312  0.1140  0.3604
 5307TIP3    H140116   2.453   0.126   8.849 -1.3447 -1.4066  0.2580
 5307TIP3    H240117   2.414   0.256   8.917  1.2514 -0.8459  0.7978
 5308TIP3   OH240118   1.655   0.992   9.195  0.8515 -0.1597  0.1184
 5308TIP3    H140119   1.609   0.994   9.279  2.4615 -0.0769  1.0400
 5308TIP3    H240120   1.660   0.899   9.174  0.2804 -0.1695  0.0258
 5309TIP3   OH240121   4.813   0.249   6.634  0.5002  0.2474 -0.7382
 5309TIP3    H140122   4.763   0.200   6.568  1.8525 -0.5772 -1.2071
 5309TIP3    H240123   4.843   0.327   6.588 -0.7197  0.9751 -0.3205
 5310TIP3   OH240124   0.657   4.747   9.488  0.4270  0.4201 -0.0598
 5310TIP3    H140125   0.720   4.797   9.436  0.1713 -0.1059 -0.8904
 5310TIP3    H240126   0.597   4.813   9.522  0.6417  0.7781 -0.3650
 5311TIP3   OH240127   2.416   1.900   8.196 -0.3748  0.3842 -0.0731
 5311TIP3    H140128   2.431   1.953   8.117  0.3475 -2.3945 -1.9768
 5311TIP3    H240129   2.496   1.910   8.247  0.4657 -0.1652 -1.2421
 5312TIP3   OH240130   2.883   4.734   8.008  0.6646  0.5283 -0.6509
 5312TIP3    H140131   2.820   4.669   8.039  1.0258  0.3931 -0.1829
 5312TIP3    H240132   2.886   4.723   7.914  1.5279 -0.8743 -0.4793
 5313TIP3   OH240133   2.356   0.543   9.577  0.1825 -0.2129  0.3305
 5313TIP3    H140134   2.425   0.506   9.522  0.7785  0.2522  0.7511
 5313TIP3    H240135   2.371   0.505   9.664  1.0609  1.3062  0.8715
 5314TIP3   OH240136   2.167   6.304   8.213  0.7558  0.4657 -0.5616
 5314TIP3    H140137   2.073   6.317   8.203  0.4497 -0.4595  0.8325
 5314TIP3    H240138   2.206   6.345   8.135 -0.8196  0.4293 -1.3999
 5315TIP3   OH240139   5.148   1.727   7.326  0.6600 -0.0985 -0.0903
 5315TIP3    H140140   5.112   1.757   7.242  1.1154 -0.6273 -0.4842
 5315TIP3    H240141   5.222   1.672   7.301  0.6022 -0.5195  0.6597
 5316TIP3   OH240142   3.807   2.468   6.815  0.3770  0.2589  0.3238
 5316TIP3    H140143   3.806   2.536   6.747 -0.6925  1.0180  1.0593
 5316TIP3    H240144   3.715   2.442   6.824  0.4979  0.1889  1.4840
 5317TIP3   OH240145   2.958   7.523   7.386 -0.6342 -0.3844  0.2557
 5317TIP3    H140146   3.035   7.482   7.347  0.6107  0.8017  1.3625
 5317TIP3    H240147   2.929   7.587   7.321  1.5579  1.7395  1.1977
 5318TIP3   OH240148   0.941   3.483   9.153 -0.1807 -0.6227  0.4506
 5318TIP3    H140149   0.898   3.563   9.124 -1.7692 -1.4368  0.4517
 5318TIP3    H240150   0.904   3.415   9.097  1.5796 -1.2865  0.0508
 5319TIP3   OH240151   5.283   2.927   7.763 -0.4299 -0.2245  0.4053
 5319TIP3    H140152   5.209   2.936   7.823  0.6422  0.0037  1.7296
 5319TIP3    H240153   5.247   2.950   7.677 -1.5519  1.3118  1.2412
 5320TIP3   OH240154   4.234   1.705   7.581 -0.0190  0.1848 -0.0714
 5320TIP3    H140155   4.156   1.650   7.573  0.6881 -0.8319 -0.2371
 5320TIP3    H240156   4.271   1.706   7.492 -0.0083  0.9071 -0.0602
 5321TIP3   OH240157   0.950   5.588   7.216  0.0374  0.0165 -0.8775
 5321TIP3    H140158   0.886   5.572   7.147 -1.8993 -0.7203  0.9620
 5321TIP3    H240159   0.918   5.536   7.290  1.8741  0.9453  0.6531
 5322TIP3   OH240160   5.432   4.755   7.596 -0.2486  0.1474  0.3399
 5322TIP3    H140161   5.494   4.799   7.654  0.7708 -0.7040 -0.0742
 5322TIP3    H240162   5.397   4.825   7.541  1.4420  0.4637 -0.3961
 5323TIP3   OH240163   2.900   1.507   8.942 -0.4984 -0.6786 -0.1427
 5323TIP3    H140164   2.835   1.442   8.967  0.2576 -0.6840  2.0240
 5323TIP3    H240165   2.983   1.458   8.941 -0.2953 -0.3613 -1.4657
 5324TIP3   OH240166   4.916   6.029   8.609 -0.6651  0.5948 -0.7878
 5324TIP3    H140167   4.911   6.106   8.666 -1.6491  1.3710 -1.8796
 5324TIP3    H240168   4.832   5.984   8.622 -0.8121  0.6672 -1.4691
 5325TIP3   OH240169   5.573   1.428   8.931  0.2228 -0.0230 -0.4299
 5325TIP3    H140170   5.557   1.366   8.860  1.6039 -1.2383  0.2651
 5325TIP3    H240171   5.634   1.492   8.893 -1.1917  0.9709 -1.1400
 5326TIP3   OH240172   5.526   7.460   7.783  0.5660 -0.4089  0.2550
 5326TIP3    H140173   5.552   7.449   7.874  0.0359 -2.4016  0.2141
 5326TIP3    H240174   5.435   7.488   7.787  0.5162 -0.5839  0.3391
 5327TIP3   OH240175   5.890   2.799   8.964  0.2447  0.2203  0.3892
 5327TIP3    H140176   5.856   2.782   9.051 -0.1877 -0.4866  0.0865
 5327TIP3    H240177   5.813   2.813   8.909  0.4159 -1.1873 -0.2544
 5328TIP3   OH240178   1.626   0.890   8.691 -0.3265  0.4465 -0.0659
 5328TIP3    H140179   1.722   0.899   8.685 -0.3713  0.4210 -0.9715
 5328TIP3    H240180   1.602   0.946   8.764  0.2745  1.3571 -0.5418
 5329TIP3   OH240181   1.958   0.230   8.672  0.0050  0.4452 -0.1056
 5329TIP3    H140182   1.995   0.311   8.636  0.8060  0.9482  1.7630
 5329TIP3    H240183   2.035   0.176   8.693 -0.4527  0.1040  0.7082
 5330TIP3   OH240184   1.552   1.015   9.450 -0.4118  0.0470 -0.4010
 5330TIP3    H140185   1.598   1.085   9.496 -0.6589  0.6567 -1.0654
 5330TIP3    H240186   1.605   0.937   9.466  1.0296  0.7825 -1.4086
 5331TIP3   OH240187   0.237   6.004   8.976 -0.1657 -0.0836 -0.5121
 5331TIP3    H140188   0.267   6.093   8.959  0.6115 -0.4853 -1.3060
 5331TIP3    H240189   0.316   5.958   9.006 -0.7972 -0.2285  1.0134
 5332TIP3   OH240190   3.548   5.174   7.704  0.7646 -0.6242 -0.0826
 5332TIP3    H140191   3.610   5.117   7.749 -1.3693 -1.7131  1.7232
 5332TIP3    H240192   3.514   5.231   7.774 -1.4495 -1.2248 -0.5774
 5333TIP3   OH240193   0.029   0.608   8.713  0.3558 -0.0163 -0.6720
 5333TIP3    H140194  -0.047   0.553   8.733 -0.6142  1.4402 -0.1501
 5333TIP3    H240195   0.100   0.570   8.764  0.0482 -1.5037 -1.2897
 5334TIP3   OH240196   4.714   7.407   7.071  0.1164  0.3045 -0.0026
 5334TIP3    H140197   4.632   7.447   7.042 -0.4830 -1.3089 -0.6165
 5334TIP3    H240198   4.780   7.444   7.012  0.2766  3.3103  1.8683
 5335TIP3   OH240199   2.530   1.657   8.802 -0.4115 -0.0968 -0.1292
 5335TIP3    H140200   2.462   1.594   8.777 -1.0947  1.1781 -1.7456
 5335TIP3    H240201   2.501   1.691   8.886  0.1258 -2.0988  0.9238
 5336TIP3   OH240202   0.896   0.642   7.748 -0.5565  0.1565  0.3079
 5336TIP3    H140203   0.811   0.646   7.704 -0.4291  1.4175  0.1254
 5336TIP3    H240204   0.926   0.552   7.736 -1.3846 -0.0186 -0.5336
 5337TIP3   OH240205   1.994   1.686   6.901 -0.2550  0.6686  0.0571
 5337TIP3    H140206   1.978   1.675   6.807 -2.6940 -0.7850  0.5540
 5337TIP3    H240207   2.089   1.683   6.910  0.0797  1.5783 -2.4234
 5338TIP3   OH240208   7.467   2.610   9.614  0.2331  0.0207  0.1080
 5338TIP3    H140209   7.478   2.516   9.626  1.1354  0.1915  0.7918
 5338TIP3    H240210   7.510   2.649   9.691 -0.2167  0.9828 -0.1117
 5339TIP3   OH240211   3.724   4.263   9.508 -0.7229  0.1035  0.5513
 5339TIP3    H140212   3.749   4.339   9.456  0.9356 -0.7226  0.0677
 5339TIP3    H240213   3.654   4.222   9.457  0.7213 -0.5733 -1.0101
 5340TIP3   OH240214   2.001   3.061   8.407 -0.0723  0.1217  0.0130
 5340TIP3    H140215   2.057   2.983   8.409  1.1080  0.9460 -0.1118
 5340TIP3    H240216   1.936   3.043   8.339  1.3044 -0.0113 -1.2994
 5341TIP3   OH240217   4.834   5.058   8.276  0.5282  0.0729 -0.1285
 5341TIP3    H140218   4.929   5.054   8.263  0.9559  1.0561  2.1841
 5341TIP3    H240219   4.821   5.028   8.365 -1.3139  0.3257 -0.2768
 5342TIP3   OH240220   2.277   1.880   7.762 -0.4693  0.0490 -0.5237
 5342TIP3    H140221   2.217   1.917   7.827 -0.8482  1.0358 -1.4124
 5342TIP3    H240222   2.347   1.944   7.752  0.5943 -0.9435  0.2523
 5343TIP3   OH240223   7.509   6.065   9.051  0.0870 -0.0439  0.3465
 5343TIP3    H140224   7.419   6.094   9.066 -0.4525 -1.9752  1.1248
 5343TIP3    H240225   7.501   5.991   8.990  0.9178 -1.3865  1.7728
 5344TIP3   OH240226   2.232   3.213   8.664 -0.8055 -0.1602 -0.7051
 5344TIP3    H140227   2.263   3.295   8.703 -0.5109 -0.5190 -0.1717
 5344TIP3    H240228   2.210   3.236   8.574  3.1640 -0.3221 -1.9133
 5345TIP3   OH240229   1.070   2.920   9.046  0.1174  0.3482  0.4663
 5345TIP3    H140230   1.135   2.973   8.998 -1.1039  1.3561 -0.1447
 5345TIP3    H240231   1.031   2.864   8.979  0.7697 -0.7013  0.9497
 5346TIP3   OH240232   6.573   7.442   9.665 -0.3440 -0.1795  0.1370
 5346TIP3    H140233   6.635   7.488   9.722  0.9566 -1.8459  0.1295
 5346TIP3    H240234   6.612   7.446   9.578 -0.0378 -1.5392  0.1899
 5347TIP3   OH240235   1.869   4.562   9.821  0.0314  0.0481  0.0681
 5347TIP3    H140236   1.785   4.517   9.812 -0.0569  0.1995  0.1459
 5347TIP3    H240237   1.925   4.497   9.864 -0.1498  0.0786  0.3507
 5348TIP3   OH240238   1.194   3.373   9.577  0.6164 -0.2948  0.1236
 5348TIP3    H140239   1.193   3.371   9.481  1.5223 -1.4545  0.1034
 5348TIP3    H240240   1.103   3.359   9.603  0.4010 -0.2007 -0.5737
 5349TIP3   OH240241   2.172   6.400   7.524 -0.4108  0.9305  0.2572
 5349TIP3    H140242   2.190   6.307   7.532  0.5385  1.0880  0.1476
 5349TIP3    H240243   2.077   6.408   7.533 -0.3888  0.0773  1.4282
 5350TIP3   OH240244   1.014   1.602   7.405  0.5346  0.1766  0.1344
 5350TIP3    H140245   1.042   1.569   7.490  0.5776 -0.9676 -0.3051
 5350TIP3    H240246   1.041   1.534   7.343  0.3599  0.9159 -0.7765
 5351TIP3   OH240247   1.017   6.853   7.926  0.2966  0.1035  0.7222
 5351TIP3    H140248   1.051   6.941   7.911 -1.8717  0.9200  0.2959
 5351TIP3    H240249   1.074   6.796   7.875  1.2333  1.3393  0.3414
 5352TIP3   OH240250   0.994   5.124   9.485  0.6168  0.7560  0.0681
 5352TIP3    H140251   1.070   5.088   9.439  0.0985 -0.1165 -0.1308
 5352TIP3    H240252   0.935   5.153   9.415  1.3253  2.7213  0.2178
 5353TIP3   OH240253   1.686   6.153   9.353 -0.2888  0.3085  0.2255
 5353TIP3    H140254   1.724   6.235   9.324 -1.5689  0.6998 -0.4123
 5353TIP3    H240255   1.602   6.147   9.307 -0.4464 -1.1158  0.6318
 5354TIP3   OH240256   7.307   1.920   7.130  0.1713  0.2960 -0.0911
 5354TIP3    H140257   7.316   1.899   7.037  0.6900 -0.5759  0.1355
 5354TIP3    H240258   7.291   2.014   7.133 -1.3558  0.0917 -1.1316
 5355TIP3   OH240259   4.886   2.213   8.781  0.0363 -0.2240  0.1253
 5355TIP3    H140260   4.929   2.194   8.698  1.0836  0.3676  0.5077
 5355TIP3    H240261   4.863   2.128   8.818 -0.8908 -0.4718 -0.9850
 5356TIP3   OH240262   6.388   0.847   8.754 -0.3221  0.6527  0.4488
 5356TIP3    H140263   6.399   0.907   8.680 -0.0273  0.3286  0.2310
 5356TIP3    H240264   6.328   0.893   8.813  0.2286  1.3512  0.4813
 5357TIP3   OH240265   1.749   3.408   6.908  0.5388  0.5769 -0.5276
 5357TIP3    H140266   1.697   3.424   6.829 -0.2463  1.1612  0.0890
 5357TIP3    H240267   1.837   3.439   6.885  0.9854 -1.5467 -1.9963
 5358TIP3   OH240268   1.557   6.755   8.331  0.0685 -0.6908 -0.2088
 5358TIP3    H140269   1.535   6.788   8.418 -1.3400 -1.1042 -0.3806
 5358TIP3    H240270   1.488   6.691   8.311  0.1599 -0.3509 -1.7661
 5359TIP3   OH240271   1.482   5.442   9.105 -0.5627  0.0318 -0.6213
 5359TIP3    H140272   1.526   5.399   9.032 -1.5611 -1.8939 -0.1495
 5359TIP3    H240273   1.508   5.391   9.182  0.9070  2.3401  0.5178
 5360TIP3   OH240274   3.826   2.094   8.226  0.0443  0.4229  0.1186
 5360TIP3    H140275   3.902   2.047   8.192  1.8221  2.7054  0.7230
 5360TIP3    H240276   3.794   2.145   8.152  0.6002  1.2905  0.4676
 5361TIP3   OH240277   5.553   5.451   9.155  0.2161 -0.0694  0.4479
 5361TIP3    H140278   5.487   5.520   9.152  0.3811  0.0831  0.3399
 5361TIP3    H240279   5.520   5.390   9.221 -1.1878 -1.1676 -1.1564
 5362TIP3   OH240280   1.686   3.977   9.018  0.0346 -0.1582  0.8815
 5362TIP3    H140281   1.681   4.072   9.034  0.3260 -0.3567  2.3151
 5362TIP3    H240282   1.604   3.943   9.055 -0.8389 -0.3113 -1.1049
 5363TIP3   OH240283   4.771   2.357   7.257 -0.2121 -0.2864  0.3544
 5363TIP3    H140284   4.812   2.286   7.307  0.8047 -0.7197 -1.0486
 5363TIP3    H240285   4.677   2.344   7.269 -0.0135 -1.2284  0.9765
 5364TIP3   OH240286   5.288   0.026   9.389 -0.6062 -0.1226  0.2488
 5364TIP3    H140287   5.375   0.063   9.378 -0.9500  0.2993 -1.3130
 5364TIP3    H240288   5.295  -0.063   9.355 -0.9143  0.1095 -0.4387
 5365TIP3   OH240289   2.870   2.575   6.688  0.3544 -0.2049 -0.0329
 5365TIP3    H140290   2.862   2.486   6.655  1.9560 -0.6646  0.6788
 5365TIP3    H240291   2.918   2.565   6.771 -1.4785  1.1062  1.2755
 5366TIP3   OH240292   5.915   7.489   7.048 -0.2616  0.1763 -0.5635
 5366TIP3    H140293   5.922   7.559   7.112  1.4468  0.6346 -1.1877
 5366TIP3    H240294   5.849   7.520   6.986 -1.2928  0.1125  0.4696
 5367TIP3   OH240295   1.288   1.623   9.089  0.1230 -0.2473  0.0774
 5367TIP3    H140296   1.318   1.643   9.177 -0.7006  0.3495  0.2291
 5367TIP3    H240297   1.348   1.555   9.058  1.3192  0.5631  0.5450
 5368TIP3   OH240298   5.400   0.887   7.599 -0.5507  0.0322  0.5244
 5368TIP3    H140299   5.315   0.843   7.598 -0.5821  0.0417  1.8105
 5368TIP3    H240300   5.460   0.821   7.634  0.1698 -0.2763 -1.1758
 5369TIP3   OH240301   2.893   3.884   8.744  0.4013  0.0506 -0.0548
 5369TIP3    H140302   2.976   3.899   8.698 -0.1815 -0.4347 -1.2919
 5369TIP3    H240303   2.826   3.900   8.678 -0.4019 -3.6558 -0.3264
 5370TIP3   OH240304   6.276   5.543   8.922 -0.2292 -0.1292 -0.4052
 5370TIP3    H140305   6.249   5.460   8.883 -1.7604 -0.2054  0.6930
 5370TIP3    H240306   6.369   5.532   8.940  0.4796 -0.2105 -3.5790
 5371TIP3   OH240307   1.433   1.133   7.697  0.5352 -0.2870 -0.5174
 5371TIP3    H140308   1.398   1.044   7.693  1.7245 -0.7884 -0.2085
 5371TIP3    H240309   1.411   1.164   7.784 -1.0622  0.2483 -1.0795
 5372TIP3   OH240310   6.293   3.270   8.564 -0.3625  0.0246  1.0536
 5372TIP3    H140311   6.294   3.198   8.627  2.8907  0.6321  1.8922
 5372TIP3    H240312   6.330   3.344   8.611 -2.1223  1.8790 -0.2725
 5373TIP3   OH240313   7.291   7.338   8.492  0.2423  0.1749  0.3489
 5373TIP3    H140314   7.385   7.348   8.507  0.4826 -0.7006 -0.4696
 5373TIP3    H240315   7.275   7.244   8.506 -0.2727  0.0852 -0.7351
 5374TIP3   OH240316   2.282   5.722   8.966  0.4402  0.0575  0.2166
 5374TIP3    H140317   2.236   5.744   9.047 -1.4406  0.9917 -1.0228
 5374TIP3    H240318   2.232   5.768   8.898  1.7110 -1.0351 -1.5157
 5375TIP3   OH240319   3.604   0.180   9.239  0.8203 -0.2069  0.0405
 5375TIP3    H140320   3.690   0.219   9.255  0.2715  1.0098  0.1471
 5375TIP3    H240321   3.608   0.152   9.147  0.3858  2.4870 -0.8768
 5376TIP3   OH240322   3.725   4.673   8.906 -0.6767  0.1300 -0.4840
 5376TIP3    H140323   3.802   4.691   8.961 -0.5775 -2.6285  0.4080
 5376TIP3    H240324   3.679   4.757   8.902  0.1749  0.8861  2.4950
 5377TIP3   OH240325   1.183   6.268   7.896 -0.6512 -0.3136  0.1992
 5377TIP3    H140326   1.213   6.198   7.954  0.5876 -0.3322 -0.4398
 5377TIP3    H240327   1.176   6.227   7.810 -1.7330 -0.0952  0.1686
 5378TIP3   OH240328   4.566   6.404   8.450 -0.3041  0.1590  0.3005
 5378TIP3    H140329   4.501   6.469   8.422 -0.5282 -0.0909  0.2389
 5378TIP3    H240330   4.542   6.382   8.540 -0.0357  0.3995  0.4312
 5379TIP3   OH240331   2.546   4.830   7.823 -0.3002  0.0049 -0.5988
 5379TIP3    H140332   2.482   4.775   7.869  0.2169  0.4496  0.6950
 5379TIP3    H240333   2.590   4.770   7.762  1.1995 -1.4138  1.7194
 5380TIP3   OH240334   5.625   1.998   8.496 -0.0787 -0.3242  0.6127
 5380TIP3    H140335   5.556   1.932   8.505  0.9195 -1.0812  3.7056
 5380TIP3    H240336   5.579   2.076   8.464 -1.7860 -1.6437 -0.3454
 5381TIP3   OH240337   7.250   0.025   8.646 -0.5450  0.3604 -0.4797
 5381TIP3    H140338   7.190   0.003   8.717 -0.1733  0.7153 -0.0501
 5381TIP3    H240339   7.264  -0.058   8.600  1.1058 -0.4096  1.3115
 5382TIP3   OH240340   6.981   3.700   8.074 -0.0181 -0.5055  0.2005
 5382TIP3    H140341   6.930   3.621   8.084 -0.6172 -0.1907 -0.3129
 5382TIP3    H240342   6.936   3.766   8.128  0.5346 -0.5338  0.7105
 5383TIP3   OH240343   2.670   3.166   7.726 -0.2437  0.1960  0.0412
 5383TIP3    H140344   2.655   3.171   7.632 -0.1979  1.0105  0.0677
 5383TIP3    H240345   2.729   3.240   7.744 -1.0681  0.6684  0.8594
 5384TIP3   OH240346   2.789   1.059   8.687  0.0147  0.2549  0.0679
 5384TIP3    H140347   2.757   0.970   8.673  1.6678 -0.2084 -1.1982
 5384TIP3    H240348   2.766   1.079   8.777 -3.5507 -0.0520 -0.6356
 5385TIP3   OH240349   4.311   3.337   7.467  0.2166  0.2913 -0.8870
 5385TIP3    H140350   4.265   3.420   7.472 -0.4603 -0.1356  0.6074
 5385TIP3    H240351   4.330   3.325   7.374 -3.2077  0.2300 -1.7064
 5386TIP3   OH240352   3.000   5.144   8.986 -0.0500 -0.2693  0.2559
 5386TIP3    H140353   3.095   5.144   8.997  0.1284 -0.3123 -1.1445
 5386TIP3    H240354   2.968   5.209   9.049  0.7337 -1.4193  1.9056
 5387TIP3   OH240355   6.374   3.874   6.663 -0.5518  0.3490  0.1196
 5387TIP3    H140356   6.424   3.955   6.672 -0.5123  0.2572  0.8436
 5387TIP3    H240357   6.436   3.805   6.686 -0.0757 -0.0567 -2.1919
 5388TIP3   OH240358   5.496   0.602   8.460 -0.1668 -0.0484 -0.0121
 5388TIP3    H140359   5.478   0.514   8.426  1.6915 -2.1523  3.7619
 5388TIP3    H240360   5.425   0.619   8.522 -0.3140  1.0076 -0.4431
 5389TIP3   OH240361   1.984   5.194   8.150 -0.0961  0.2144 -0.1218
 5389TIP3    H140362   1.983   5.103   8.123  2.0524 -0.2255  1.0208
 5389TIP3    H240363   2.073   5.208   8.183 -0.6810  2.4281  0.6981
 5390TIP3   OH240364   3.815   3.233   9.122  0.3700 -0.0901  0.6480
 5390TIP3    H140365   3.735   3.183   9.138 -0.3438  0.0011 -2.2037
 5390TIP3    H240366   3.883   3.166   9.113  0.0894 -0.3380  0.3401
 5391TIP3   OH240367   3.862   0.227   0.715 -0.1446 -0.2225  0.2604
 5391TIP3    H140368   3.956   0.211   0.716  0.1171  1.1793  1.0179
 5391TIP3    H240369   3.837   0.221   0.623  1.6675  4.2395 -0.7782
 5392TIP3   OH240370   2.506   4.127   3.190 -0.4479 -0.1820 -0.2219
 5392TIP3    H140371   2.479   4.037   3.173  0.1804 -0.4567  0.2005
 5392TIP3    H240372   2.453   4.180   3.130  1.9884 -1.0876 -3.3996
 5393TIP3   OH240373   3.356   6.636   1.477 -0.6663  0.0299 -0.2984
 5393TIP3    H140374   3.397   6.629   1.563 -1.1839  1.8524  0.1443
 5393TIP3    H240375   3.342   6.545   1.450  0.1166 -0.5920  1.2337
 5394TIP3   OH240376   0.187   4.319   2.221 -0.0402  0.6367 -1.1077
 5394TIP3    H140377   0.165   4.255   2.153 -0.4631 -0.8005  0.3265
 5394TIP3    H240378   0.282   4.312   2.230 -0.1354 -0.1640 -0.6292
 5395TIP3   OH240379   2.694   1.236   1.370  0.0941  0.0327  0.4384
 5395TIP3    H140380   2.643   1.316   1.374  0.6411  0.4321 -0.2537
 5395TIP3    H240381   2.781   1.261   1.401  0.7314  0.1225 -1.3163
 5396TIP3   OH240382   0.421   4.060   2.155 -0.3204  0.3318 -0.2024
 5396TIP3    H140383   0.407   3.981   2.207  0.6060  0.5759  0.4484
 5396TIP3    H240384   0.449   4.126   2.218  1.4225  0.4817 -1.0558
 5397TIP3   OH240385   6.503   1.529   1.489 -0.0572 -0.2344  0.4089
 5397TIP3    H140386   6.440   1.469   1.529  1.1134 -0.8034  1.4973
 5397TIP3    H240387   6.459   1.562   1.410 -1.1596 -1.6528  0.3925
 5398TIP3   OH240388   3.102   7.394   2.906 -0.4689  0.0270 -0.0975
 5398TIP3    H140389   3.093   7.432   2.819  1.3514 -1.6494 -1.1035
 5398TIP3    H240390   3.107   7.300   2.890  0.5551 -0.2666  1.7599
 5399TIP3   OH240391   2.990   0.437   1.129  0.3634 -0.0280  0.1104
 5399TIP3    H140392   3.006   0.385   1.208 -3.0770 -1.7279 -0.1055
 5399TIP3    H240393   2.939   0.512   1.159  0.7456  0.3897 -0.2686
 5400TIP3   OH240394   2.043   6.902   1.592 -0.4541 -0.0023 -0.1732
 5400TIP3    H140395   2.095   6.951   1.528 -0.9486  0.7504 -0.0185
 5400TIP3    H240396   2.098   6.827   1.616  0.1827  0.2974 -0.6695
 5401TIP3   OH240397   2.349   0.517   2.439 -0.1288 -0.7062  0.3112
 5401TIP3    H140398   2.304   0.596   2.407  2.5912  0.4093 -1.1543
 5401TIP3    H240399   2.314   0.446   2.385 -0.8653 -0.0802 -0.0561
 5402TIP3   OH240400   7.532   6.168   2.188 -0.1035 -0.0911 -0.1869
 5402TIP3    H140401   7.573   6.249   2.157  1.2687 -0.6251  0.1237
 5402TIP3    H240402   7.446   6.194   2.219  1.3259  1.8027  2.6223
 5403TIP3   OH240403   2.137   6.260   2.320 -0.1044 -0.2460  0.2402
 5403TIP3    H140404   2.126   6.354   2.308  0.2089  0.1190  2.4597
 5403TIP3    H240405   2.048   6.225   2.320 -0.2127 -0.0212 -0.7984
 5404TIP3   OH240406   6.025   4.337   1.874 -0.3097  0.3330  0.1007
 5404TIP3    H140407   6.087   4.398   1.913  1.0128 -0.2722 -0.9606
 5404TIP3    H240408   5.993   4.284   1.947  0.1843  0.8636  0.7103
 5405TIP3   OH240409   3.259   1.788   2.155  0.2268 -0.2448 -0.0800
 5405TIP3    H140410   3.349   1.821   2.154  0.8104 -1.7582  0.0484
 5405TIP3    H240411   3.259   1.721   2.223 -1.0050 -0.3015 -0.1076
 5406TIP3   OH240412   0.291   6.936   2.836  0.5940 -0.2791 -0.0620
 5406TIP3    H140413   0.307   7.016   2.786  0.6305 -0.1142  0.2106
 5406TIP3    H240414   0.209   6.952   2.882  0.9673 -0.1083  0.5633
 5407TIP3   OH240415   4.088   0.151   2.465  0.3640  0.3945 -0.5302
 5407TIP3    H140416   4.007   0.118   2.425  0.0343 -1.5674  1.5055
 5407TIP3    H240417   4.136   0.072   2.489  1.0749  1.4360  1.7446
 5408TIP3   OH240418   4.721   1.148   0.706 -0.1444 -0.6817  0.0254
 5408TIP3    H140419   4.690   1.236   0.689 -0.0108 -0.8140 -0.9309
 5408TIP3    H240420   4.810   1.146   0.670 -0.5279 -1.5112 -0.9207
 5409TIP3   OH240421   2.411   5.169   2.069  0.0670  0.1610 -0.2172
 5409TIP3    H140422   2.470   5.239   2.042 -1.0866  0.3915 -2.3993
 5409TIP3    H240423   2.400   5.181   2.163  4.0479 -0.3858  0.5074
 5410TIP3   OH240424   1.939   3.068   2.029  0.2957  0.1134  0.1922
 5410TIP3    H140425   1.867   3.038   1.974  0.5809 -1.0352  0.4241
 5410TIP3    H240426   1.994   3.120   1.970 -0.6108  0.8459 -0.0299
 5411TIP3   OH240427   2.293   4.893   1.862  0.0742 -0.1655 -0.1383
 5411TIP3    H140428   2.384   4.866   1.867  0.3631  0.8628  0.4501
 5411TIP3    H240429   2.284   4.932   1.775  0.0847 -0.6483 -0.3562
 5412TIP3   OH240430   3.742   6.311   1.917  0.0600 -0.1192 -0.4286
 5412TIP3    H140431   3.690   6.351   1.986 -0.9730 -0.2163 -1.1322
 5412TIP3    H240432   3.810   6.376   1.897 -0.4836  0.5018 -0.2846
 5413TIP3   OH240433   4.548   5.892   1.922 -0.3186 -0.2231 -0.1793
 5413TIP3    H140434   4.559   5.839   1.842 -0.6319  0.3600 -0.6154
 5413TIP3    H240435   4.464   5.936   1.910  1.0203  2.2971 -0.9822
 5414TIP3   OH240436   4.195   6.117   2.543 -0.2220 -1.0442  0.4743
 5414TIP3    H140437   4.116   6.129   2.595 -0.1717  1.2773  0.1263
 5414TIP3    H240438   4.239   6.202   2.546  2.1669 -2.1860  0.4479
 5415TIP3   OH240439   4.663   2.415   0.983 -0.4409 -0.2965 -0.2819
 5415TIP3    H140440   4.635   2.468   1.058  1.0599  0.5263 -0.2653
 5415TIP3    H240441   4.649   2.471   0.907 -1.8138 -1.0728 -0.6362
 5416TIP3   OH240442   1.059   2.602   0.510  0.0366  0.0602 -0.4263
 5416TIP3    H140443   0.988   2.665   0.499  0.5414  0.8168  0.5334
 5416TIP3    H240444   1.115   2.615   0.433  0.5004  1.2952  0.0862
 5417TIP3   OH240445   3.950   0.870   2.592  0.3726  0.2438  0.0749
 5417TIP3    H140446   4.008   0.926   2.541 -1.4186  0.3413 -2.0134
 5417TIP3    H240447   3.919   0.926   2.664  1.5490  0.6723  0.2799
 5418TIP3   OH240448   4.563   0.368   0.823  0.2640  0.0703 -0.1456
 5418TIP3    H140449   4.622   0.442   0.810  0.0100  0.3675  0.3724
 5418TIP3    H240450   4.479   0.397   0.786  0.3006 -0.1545 -0.4083
 5419TIP3   OH240451   3.381   5.093   1.986 -0.0330 -0.3514 -0.1774
 5419TIP3    H140452   3.377   5.031   2.059  1.9634 -0.2787  0.0648
 5419TIP3    H240453   3.400   5.039   1.910  1.4688 -0.1371 -0.0043
 5420TIP3   OH240454   2.975   5.150   1.881 -0.0430  0.3418  0.5462
 5420TIP3    H140455   3.039   5.080   1.870 -1.2708 -0.7190 -0.1251
 5420TIP3    H240456   2.913   5.116   1.945 -0.8983  0.6360 -0.1088
 5421TIP3   OH240457   5.066   6.116   1.510 -0.5050  0.0863 -0.1598
 5421TIP3    H140458   5.059   6.178   1.438  0.4685 -0.6885 -0.9624
 5421TIP3    H240459   4.979   6.076   1.516  0.0706 -1.9174 -2.8929
 5422TIP3   OH240460   6.877   7.110   3.208  0.0185  0.3430  0.1331
 5422TIP3    H140461   6.961   7.140   3.175  0.3368 -1.0868 -0.4120
 5422TIP3    H240462   6.875   7.140   3.299  1.5224 -0.3991  0.4377
 5423TIP3   OH240463   1.422   4.512   2.699 -0.0260 -0.1153  0.2179
 5423TIP3    H140464   1.476   4.573   2.749 -1.5135  0.5877  1.0294
 5423TIP3    H240465   1.400   4.443   2.761 -1.7512  0.6820  0.5569
 5424TIP3   OH240466   6.370   0.697   2.094  0.8901  0.4394 -0.2512
 5424TIP3    H140467   6.405   0.752   2.164  0.6534  2.1520 -1.4248
 5424TIP3    H240468   6.445   0.679   2.038  0.8260  0.1274 -0.2373
 5425TIP3   OH240469   6.366   6.904   2.157  0.6294  0.8830  0.3501
 5425TIP3    H140470   6.329   6.831   2.208 -0.1599  1.0538  0.0409
 5425TIP3    H240471   6.453   6.916   2.193  1.3500 -1.1784 -0.5535
 5426TIP3   OH240472   7.384   5.897   1.283 -0.1064 -0.2371  0.5357
 5426TIP3    H140473   7.427   5.932   1.205 -1.6365 -2.8046 -1.6193
 5426TIP3    H240474   7.368   5.973   1.338  1.0555  1.6903 -1.6235
 5427TIP3   OH240475   4.400   3.500   0.332 -0.0743 -0.3207 -0.0775
 5427TIP3    H140476   4.309   3.472   0.323  0.4223 -1.8598 -0.5817
 5427TIP3    H240477   4.395   3.596   0.336 -1.8534 -0.4113  1.6919
 5428TIP3   OH240478   0.126   4.497   1.550 -0.5021  0.4360 -0.2949
 5428TIP3    H140479   0.126   4.453   1.635  0.4610  0.4984 -0.2590
 5428TIP3    H240480   0.054   4.561   1.557 -0.1361  0.7672  0.6429
 5429TIP3   OH240481   7.025   1.150   0.373 -0.1639  0.3967 -0.2611
 5429TIP3    H140482   6.945   1.109   0.405 -0.2352  1.2276  0.6615
 5429TIP3    H240483   6.997   1.236   0.340 -0.0616 -0.3233 -2.4151
 5430TIP3   OH240484   0.467   2.817   0.492 -0.1277 -0.0024 -0.2160
 5430TIP3    H140485   0.493   2.726   0.506 -1.2471 -0.3612 -0.3182
 5430TIP3    H240486   0.541   2.868   0.523  0.2253 -0.9296  0.5311
 5431TIP3   OH240487   1.216   5.682   2.141 -0.0689 -0.6416 -0.3821
 5431TIP3    H140488   1.181   5.692   2.230  0.2546 -2.0422 -0.0646
 5431TIP3    H240489   1.214   5.770   2.104 -1.2741 -0.2242  0.6120
 5432TIP3   OH240490   3.409   5.653   0.577 -0.5148  0.0468 -0.3258
 5432TIP3    H140491   3.485   5.679   0.630 -0.4402  0.8412 -0.7918
 5432TIP3    H240492   3.353   5.731   0.576 -1.1231 -0.3874 -0.3540
 5433TIP3   OH240493   2.736   4.277   1.543 -0.2618 -0.1297 -0.1909
 5433TIP3    H140494   2.719   4.308   1.633  1.3124  0.5080 -0.0869
 5433TIP3    H240495   2.663   4.313   1.492  1.3817  3.8507 -0.0751
 5434TIP3   OH240496   7.471   2.144   0.940 -0.2070 -0.3772 -0.0799
 5434TIP3    H140497   7.502   2.101   0.860 -0.2383 -0.1480 -0.2166
 5434TIP3    H240498   7.376   2.131   0.938 -0.0827 -1.5308  0.6026
 5435TIP3   OH240499   6.176   1.858   2.793  0.2693  0.1299 -0.6725
 5435TIP3    H140500   6.138   1.791   2.736  1.0224 -1.5578  0.7046
 5435TIP3    H240501   6.104   1.883   2.852  0.7634 -1.9662  0.9556
 5436TIP3   OH240502   4.449   5.117   1.385 -0.4949 -0.0898 -0.2829
 5436TIP3    H140503   4.397   5.046   1.347  0.1251 -1.5427  1.4487
 5436TIP3    H240504   4.539   5.096   1.361 -0.2833 -0.0380  0.4368
 5437TIP3   OH240505   5.979   1.874   1.341  0.4225  0.3116  0.6950
 5437TIP3    H140506   6.066   1.853   1.374 -0.2614  0.7077  2.9535
 5437TIP3    H240507   5.995   1.922   1.260  2.3046  0.3385  1.0323
 5438TIP3   OH240508   2.955   0.015   0.432  0.0251 -0.2017 -0.1878
 5438TIP3    H140509   2.891   0.085   0.440  1.2470  0.9133  0.1022
 5438TIP3    H240510   2.909  -0.054   0.383 -1.4989  0.3977  0.3403
 5439TIP3   OH240511   5.060   0.249   2.104  0.3904 -0.1792  0.4369
 5439TIP3    H140512   5.154   0.263   2.095  0.2399  1.0847  0.7433
 5439TIP3    H240513   5.037   0.295   2.184 -0.4488 -0.7548  0.5367
 5440TIP3   OH240514   0.908   1.838   0.716 -0.0025 -0.1057 -0.1632
 5440TIP3    H140515   0.998   1.854   0.688 -0.0596  3.2670  1.1305
 5440TIP3    H240516   0.854   1.877   0.647 -0.4341 -0.6699 -0.1507
 5441TIP3   OH240517   5.516   5.081   1.162  0.6755 -0.4720  0.0862
 5441TIP3    H140518   5.561   4.996   1.165 -1.0754 -1.4300  0.4996
 5441TIP3    H240519   5.558   5.128   1.089  0.0743 -2.6548 -1.7948
 5442TIP3   OH240520   1.866   6.787   1.425  0.1011 -0.3362  0.0296
 5442TIP3    H140521   1.788   6.749   1.464  1.2575 -1.2555  1.5521
 5442TIP3    H240522   1.931   6.787   1.495  1.9419 -1.0064 -1.5877
 5443TIP3   OH240523   0.088   0.406   1.681 -0.7754 -0.0037 -0.5088
 5443TIP3    H140524   0.107   0.364   1.597 -1.0519  1.1293 -1.1580
 5443TIP3    H240525   0.173   0.414   1.723 -0.4958  0.2718 -1.1026
 5444TIP3   OH240526   0.700   5.331   0.905 -0.0650 -0.1224  0.2957
 5444TIP3    H140527   0.630   5.366   0.850 -1.4768  0.4267  2.3271
 5444TIP3    H240528   0.763   5.402   0.914 -0.5171  0.2480  0.5179
 5445TIP3   OH240529   3.328   2.171   1.260 -0.3440 -0.0508 -0.4604
 5445TIP3    H140530   3.267   2.240   1.233  0.9762  0.9201 -1.0685
 5445TIP3    H240531   3.287   2.131   1.336 -0.5576  2.3167  0.7661
 5446TIP3   OH240532   3.414   2.455   0.951  0.1730 -0.2302  0.5958
 5446TIP3    H140533   3.359   2.388   0.910  0.7576 -0.5049  0.2556
 5446TIP3    H240534   3.503   2.422   0.942  0.3814  0.0935  1.3651
 5447TIP3   OH240535   5.827   0.300   0.348  0.1423  0.6121  0.2265
 5447TIP3    H140536   5.794   0.294   0.259 -1.1505 -0.5490  0.7403
 5447TIP3    H240537   5.922   0.306   0.339 -0.0088  1.0668 -1.2260
 5448TIP3   OH240538   4.613   3.933   1.978 -0.0524 -0.4045 -0.1179
 5448TIP3    H140539   4.633   3.994   1.907 -1.4821  0.9815  0.6010
 5448TIP3    H240540   4.589   3.851   1.934  0.1004  0.1106 -1.1902
 5449TIP3   OH240541   2.713   7.265   2.906  0.2627 -0.2454 -0.4136
 5449TIP3    H140542   2.642   7.328   2.898  0.7059  0.2635 -0.4274
 5449TIP3    H240543   2.739   7.269   2.998  0.7724  0.1392 -0.5658
 5450TIP3   OH240544   7.045   3.858   2.173 -0.2368  0.5735 -0.9575
 5450TIP3    H140545   7.051   3.799   2.099  0.4327 -0.0360 -0.4405
 5450TIP3    H240546   7.012   3.804   2.245  1.3886  0.5076 -0.1988
 5451TIP3   OH240547   5.765   2.753   1.493  0.0232 -0.5618 -0.1599
 5451TIP3    H140548   5.691   2.813   1.496 -0.5692 -1.2725 -0.3323
 5451TIP3    H240549   5.763   2.716   1.405  0.6054 -0.5597 -0.1764
 5452TIP3   OH240550   5.080   5.542   2.151 -0.3790 -0.3059 -0.7974
 5452TIP3    H140551   5.133   5.568   2.226  0.3072 -2.3346 -0.5328
 5452TIP3    H240552   4.989   5.552   2.182 -0.1100 -1.2558  0.3951
 5453TIP3   OH240553   0.840   5.909   1.663 -0.0849 -0.3215 -0.3583
 5453TIP3    H140554   0.803   5.922   1.751 -0.6928 -1.6417 -0.4044
 5453TIP3    H240555   0.901   5.982   1.652 -0.3953  0.1609  0.9506
 5454TIP3   OH240556   1.576   2.217   1.031  0.4931 -0.3064 -0.0783
 5454TIP3    H140557   1.658   2.185   0.991  0.7308 -1.6368  1.3773
 5454TIP3    H240558   1.507   2.177   0.978  0.8022 -1.4240  0.3337
 5455TIP3   OH240559   1.186   7.408   2.680 -0.2306  0.1244 -0.4871
 5455TIP3    H140560   1.161   7.406   2.772  0.2758 -0.0788 -0.3517
 5455TIP3    H240561   1.226   7.494   2.668  0.3490 -0.1231 -0.3436
 5456TIP3   OH240562   1.820   5.776   0.601  0.1549  0.2490  0.5828
 5456TIP3    H140563   1.807   5.866   0.633  1.9269  0.4789  0.7429
 5456TIP3    H240564   1.842   5.787   0.509  2.4623  0.1970  1.0665
 5457TIP3   OH240565   2.644   4.841   1.175 -0.8889 -0.4993 -0.5507
 5457TIP3    H140566   2.619   4.893   1.099 -0.5594 -1.3162 -1.2391
 5457TIP3    H240567   2.577   4.859   1.241 -1.0575  0.3853 -0.9561
 5458TIP3   OH240568   0.306   6.321   2.690 -0.2453 -0.9669 -0.2183
 5458TIP3    H140569   0.225   6.356   2.653  0.2344 -2.4974 -2.9822
 5458TIP3    H240570   0.280   6.281   2.773 -1.9067  0.3192 -0.0803
 5459TIP3   OH240571   4.914   7.113   0.975  0.3796 -0.6223 -0.2611
 5459TIP3    H140572   4.938   7.022   0.994 -0.0486 -0.6296  0.2652
 5459TIP3    H240573   4.907   7.155   1.060  2.0047  0.3074 -0.5412
 5460TIP3   OH240574   0.725   3.677   2.914  0.3036  0.2245  0.2292
 5460TIP3    H140575   0.737   3.727   2.834  0.9979  1.2822  0.9534
 5460TIP3    H240576   0.633   3.689   2.937  0.1415  0.0435 -0.3081
 5461TIP3   OH240577   6.435   3.919   1.511 -0.0282  0.0098 -0.4005
 5461TIP3    H140578   6.467   3.993   1.562  1.9705 -1.0388 -0.0420
 5461TIP3    H240579   6.352   3.949   1.475 -1.0600  1.1884  2.5939
 5462TIP3   OH240580   3.342   3.299   2.026  0.2579  0.3578 -0.7235
 5462TIP3    H140581   3.427   3.259   2.042 -0.4120 -0.3372  1.3792
 5462TIP3    H240582   3.360   3.370   1.963  2.2464 -0.1977 -0.8334
 5463TIP3   OH240583   4.131   5.996   1.164 -0.0247 -0.2640  0.4256
 5463TIP3    H140584   4.060   5.932   1.169 -1.0150  0.9038  2.4242
 5463TIP3    H240585   4.120   6.050   1.242  2.3491  0.7313  0.1438
 5464TIP3   OH240586   1.940   4.402   1.931  0.1082 -0.0230 -0.2781
 5464TIP3    H140587   1.986   4.336   1.983  0.8616 -1.3206 -2.4921
 5464TIP3    H240588   2.010   4.455   1.892 -0.4198  0.5453 -0.4737
 5465TIP3   OH240589   0.288   3.363   2.811  0.2695 -0.1558 -0.4881
 5465TIP3    H140590   0.196   3.389   2.810  0.6108  1.1318 -0.0895
 5465TIP3    H240591   0.300   3.322   2.897  0.2481  0.4146 -0.2051
 5466TIP3   OH240592   7.075   0.878   0.352  0.6720 -0.3988 -0.2743
 5466TIP3    H140593   7.091   0.965   0.388  0.5675  0.0550 -1.2650
 5466TIP3    H240594   6.980   0.876   0.337  0.9002  0.0970 -2.0771
 5467TIP3   OH240595   2.087   2.055   2.358  0.2355 -0.5813 -0.0001
 5467TIP3    H140596   2.108   2.142   2.323  0.4318 -0.1468  1.1439
 5467TIP3    H240597   2.008   2.069   2.411  0.0846 -1.1700 -0.0647
 5468TIP3   OH240598   5.017   2.634   1.014  0.2636  0.0076  0.3645
 5468TIP3    H140599   5.098   2.675   1.044 -0.7177  1.7637  0.7708
 5468TIP3    H240600   4.971   2.704   0.967 -0.6790 -1.1673 -0.5314
 5469TIP3   OH240601   5.696   1.172   1.282  0.0515 -0.4533 -0.5038
 5469TIP3    H140602   5.672   1.083   1.257 -0.2777 -0.8969  1.2805
 5469TIP3    H240603   5.791   1.168   1.296  0.0400 -0.5120 -0.4434
 5470TIP3   OH240604   1.337   1.460   2.900 -0.2433  0.3548 -0.1106
 5470TIP3    H140605   1.295   1.546   2.894  2.1905  1.9098  2.6562
 5470TIP3    H240606   1.266   1.401   2.926 -1.7918  1.6566 -1.1847
 5471TIP3   OH240607   1.558   4.638   1.349 -0.2825 -0.3078  0.1418
 5471TIP3    H140608   1.530   4.547   1.342  2.3104 -1.1505 -0.1031
 5471TIP3    H240609   1.630   4.636   1.412  0.1961  1.4856 -0.3059
 5472TIP3   OH240610   2.106   4.762   2.156  0.1159  0.0491 -0.5210
 5472TIP3    H140611   2.054   4.711   2.218 -1.4314  0.9960 -0.9733
 5472TIP3    H240612   2.058   4.755   2.073  1.6114 -0.3688 -1.3768
 5473TIP3   OH240613   2.243   6.139   1.039  0.3301  0.4112 -0.5590
 5473TIP3    H140614   2.195   6.115   1.118 -0.7685  0.7943 -1.0895
 5473TIP3    H240615   2.305   6.068   1.026  1.4300  0.9505  1.3593
 5474TIP3   OH240616   2.939   1.294   1.455  0.0487  0.4848 -0.0221
 5474TIP3    H140617   3.027   1.256   1.451 -0.1265 -0.2367  1.8242
 5474TIP3    H240618   2.923   1.306   1.549 -1.5465  1.2660 -0.3677
 5475TIP3   OH240619   0.775   7.223   2.552  0.0725 -0.1887 -0.9810
 5475TIP3    H140620   0.830   7.226   2.474  1.4274 -0.3391 -0.0833
 5475TIP3    H240621   0.717   7.299   2.545  1.3456  0.7831 -1.3197
 5476TIP3   OH240622   0.929   2.301   2.301  0.0004 -0.6167  0.0055
 5476TIP3    H140623   0.925   2.212   2.334  0.1377 -0.9393 -0.8304
 5476TIP3    H240624   1.014   2.334   2.329 -0.3303 -0.5086  0.9034
 5477TIP3   OH240625   4.073   3.671   2.285  0.4773  0.3448  0.5683
 5477TIP3    H140626   4.094   3.609   2.215 -0.0041 -1.4017  1.8831
 5477TIP3    H240627   4.157   3.710   2.308  0.8658 -0.1147 -0.0364
 5478TIP3   OH240628   4.465   3.973   2.661 -0.4529  0.2826  0.2541
 5478TIP3    H140629   4.381   4.013   2.683 -0.3726 -0.0447  1.1753
 5478TIP3    H240630   4.505   4.035   2.601 -0.9161  0.9302  0.5975
 5479TIP3   OH240631   0.313   4.026   2.570  0.2562 -0.0012  0.5690
 5479TIP3    H140632   0.385   4.058   2.515  2.0636 -2.8240  1.0676
 5479TIP3    H240633   0.340   4.048   2.659  0.2014 -0.5244  0.7144
 5480TIP3   OH240634   3.463   7.134   0.830 -0.3974 -0.3946 -0.5979
 5480TIP3    H140635   3.548   7.173   0.812  0.1066  0.8147  3.4928
 5480TIP3    H240636   3.409   7.207   0.860 -1.7739 -1.6901  0.2219
 5481TIP3   OH240637   1.745   2.259   2.034 -0.4441  0.6777 -1.0151
 5481TIP3    H140638   1.698   2.208   1.969 -4.7623  0.5678  1.8050
 5481TIP3    H240639   1.779   2.194   2.095 -0.0750  0.9385 -0.9389
 5482TIP3   OH240640   6.146   6.243   3.113  0.0000  0.5809 -0.1786
 5482TIP3    H140641   6.129   6.300   3.039 -0.3156  2.9065  1.5723
 5482TIP3    H240642   6.070   6.184   3.116 -0.0275  0.5166 -1.5901
 5483TIP3   OH240643   3.925   2.223   2.313 -0.4787 -0.5252 -0.3079
 5483TIP3    H140644   3.941   2.280   2.388 -1.8182  0.9172 -1.0593
 5483TIP3    H240645   4.012   2.198   2.282  0.2140  2.1755 -0.7277
 5484TIP3   OH240646   1.880   2.494   3.364 -0.1119  0.1579  0.3951
 5484TIP3    H140647   1.804   2.527   3.316  0.7001  1.8443  0.2024
 5484TIP3    H240648   1.894   2.557   3.434  0.7657 -0.4494  0.7893
 5485TIP3   OH240649   4.808   5.578   1.438  0.4850  0.0069  0.1541
 5485TIP3    H140650   4.870   5.510   1.464  2.2762  1.1263 -0.9683
 5485TIP3    H240651   4.821   5.587   1.343  0.1348  1.7530  0.2400
 5486TIP3   OH240652   5.922   0.415   2.733  0.2046 -0.3583 -0.2180
 5486TIP3    H140653   5.852   0.472   2.763 -0.5416 -1.3786  0.0572
 5486TIP3    H240654   5.961   0.380   2.813  2.5591  1.8918 -0.2590
 5487TIP3   OH240655   4.414   4.014   2.146 -0.3046  0.3750 -0.4075
 5487TIP3    H140656   4.479   3.951   2.115 -0.8390 -0.7230  0.5815
 5487TIP3    H240657   4.434   4.095   2.099  1.2544 -0.1557 -0.7294
 5488TIP3   OH240658   7.368   1.270   2.443  0.3164 -0.1366  0.3685
 5488TIP3    H140659   7.448   1.320   2.430 -0.6854  1.7614  1.1285
 5488TIP3    H240660   7.396   1.178   2.442  2.4265  0.4649  0.3316
 5489TIP3   OH240661   7.039   5.013   1.338 -0.4094  0.0663 -0.1871
 5489TIP3    H140662   7.071   4.986   1.424 -1.2172  1.5146  0.6182
 5489TIP3    H240663   7.107   4.987   1.277  2.0374  2.3464  1.3332
 5490TIP3   OH240664   6.199   6.784   2.722  0.1161  0.3932  0.2097
 5490TIP3    H140665   6.201   6.873   2.688 -1.0108  0.1003 -0.6497
 5490TIP3    H240666   6.111   6.774   2.758  0.1217 -0.4859 -0.0114
 5491TIP3   OH240667   3.918   3.470   1.702 -0.3211 -0.2675 -0.1461
 5491TIP3    H140668   3.854   3.533   1.735  0.2161  0.3325 -0.2270
 5491TIP3    H240669   4.003   3.509   1.724  0.0265 -0.4979 -1.0605
 5492TIP3   OH240670   3.679   1.259   2.175 -0.0606 -0.3965  0.0420
 5492TIP3    H140671   3.727   1.287   2.097 -1.4017 -1.4662 -1.2462
 5492TIP3    H240672   3.701   1.166   2.184  1.2137  0.0479  1.8416
 5493TIP3   OH240673   5.391   0.650   1.210  0.3538  0.3143  0.2306
 5493TIP3    H140674   5.397   0.585   1.141 -0.8512  2.5603 -2.1732
 5493TIP3    H240675   5.302   0.643   1.243 -0.4021  1.8471 -1.3323
 5494TIP3   OH240676   2.306   5.676   3.107 -0.3081 -0.2902  0.2010
 5494TIP3    H140677   2.300   5.766   3.137 -3.1095 -0.7291  1.3181
 5494TIP3    H240678   2.377   5.637   3.158  1.5589  1.4270 -0.9498
 5495TIP3   OH240679   5.709   3.549   0.776 -0.1092  0.0669  0.1051
 5495TIP3    H140680   5.769   3.508   0.713 -1.0321 -1.5827  0.2544
 5495TIP3    H240681   5.742   3.522   0.862 -0.6938 -0.3070  0.2113
 5496TIP3   OH240682   2.914   1.335   1.149 -0.4507 -0.0200 -0.5347
 5496TIP3    H140683   2.963   1.265   1.106 -1.6493 -0.1312 -1.7973
 5496TIP3    H240684   2.941   1.330   1.241  0.5015 -1.2469 -0.8473
 5497TIP3   OH240685   6.050   4.432   2.700  0.1383  0.5105  0.0426
 5497TIP3    H140686   5.994   4.371   2.748  0.8943 -0.4900 -0.3072
 5497TIP3    H240687   6.068   4.502   2.763 -0.0590 -0.0490  0.7366
 5498TIP3   OH240688   5.971   3.835   1.496 -0.4327  0.2925  0.2707
 5498TIP3    H140689   5.952   3.908   1.437 -0.0019  0.4689  0.3492
 5498TIP3    H240690   5.912   3.765   1.467 -0.6036  0.5558 -0.0238
 5499TIP3   OH240691   6.622   1.073   3.440 -0.1072 -0.4147  0.1966
 5499TIP3    H140692   6.684   1.070   3.367 -0.8374  2.1153 -0.6208
 5499TIP3    H240693   6.583   0.985   3.440  1.8030 -1.3316 -0.7056
 5500TIP3   OH240694   6.569   0.640   1.907  0.4870 -0.3163 -0.0056
 5500TIP3    H140695   6.635   0.588   1.953  0.1554 -2.4471 -1.7916
 5500TIP3    H240696   6.538   0.583   1.836 -1.2428  1.6711 -0.9576
 5501TIP3   OH240697   4.983   6.703   3.463 -0.4492 -0.2395  0.2623
 5501TIP3    H140698   4.969   6.761   3.538  0.2839  1.1627 -0.6364
 5501TIP3    H240699   4.925   6.738   3.395 -0.9139 -1.3349  0.0805
 5502TIP3   OH240700   2.979   5.729   2.562  0.5004 -0.0205 -0.1797
 5502TIP3    H140701   3.053   5.754   2.506 -1.7426 -0.4011 -3.5681
 5502TIP3    H240702   2.914   5.797   2.547 -0.6399 -0.7812  1.1304
 5503TIP3   OH240703   4.500   6.827   2.275  0.0483  0.1088  0.6170
 5503TIP3    H140704   4.409   6.798   2.279 -0.0668  0.4448  0.4798
 5503TIP3    H240705   4.545   6.759   2.226 -0.7808  1.5051 -2.2946
 5504TIP3   OH240706   2.771   4.486   1.212 -0.2340  0.0804 -0.6413
 5504TIP3    H140707   2.788   4.527   1.127 -1.1868  0.8851 -0.4609
 5504TIP3    H240708   2.810   4.546   1.276  1.1646 -0.9087 -0.5302
 5505TIP3   OH240709   4.259   2.767   2.280  0.8650 -0.5088 -1.1647
 5505TIP3    H140710   4.338   2.769   2.335 -0.1265 -0.8384  0.3601
 5505TIP3    H240711   4.210   2.691   2.312 -0.1108 -0.2563 -2.0069
 5506TIP3   OH240712   3.136   4.241   3.085 -0.0862 -0.3595 -0.2695
 5506TIP3    H140713   3.078   4.194   3.025  0.6624 -1.2082 -0.3465
 5506TIP3    H240714   3.083   4.252   3.164 -0.8472  0.1758 -0.8458
 5507TIP3   OH240715   4.465   0.124   2.717 -0.1522  0.1294  0.1744
 5507TIP3    H140716   4.494   0.038   2.686  3.6491  0.4170  2.2601
 5507TIP3    H240717   4.436   0.109   2.806 -2.2849  0.6570 -0.3796
 5508TIP3   OH240718   5.916   3.920   0.503 -0.0734 -0.2710 -0.4682
 5508TIP3    H140719   5.934   3.886   0.416  2.1493 -0.4184 -0.0185
 5508TIP3    H240720   5.910   3.843   0.559  3.5267 -0.1598  0.2980
 5509TIP3   OH240721   1.296   5.905   2.687 -0.0105 -0.1686 -0.7094
 5509TIP3    H140722   1.386   5.934   2.672  0.0228  0.4983  0.6302
 5509TIP3    H240723   1.280   5.926   2.779 -0.7526 -2.4066 -0.2755
 5510TIP3   OH240724   0.250   6.951   0.533 -0.3380 -0.0167 -0.0065
 5510TIP3    H140725   0.237   6.943   0.628 -2.4414  0.8943 -0.1695
 5510TIP3    H240726   0.283   7.040   0.521  1.4190 -0.6391 -0.0423
 5511TIP3   OH240727   6.647   2.350   2.063  0.6528 -0.3308  0.1640
 5511TIP3    H140728   6.665   2.259   2.086  2.7938 -0.6851 -2.3903
 5511TIP3    H240729   6.585   2.345   1.990  0.7851  0.2482  0.0031
 5512TIP3   OH240730   0.015   7.552   2.819 -0.4554 -0.1508  0.3530
 5512TIP3    H140731   0.089   7.539   2.878  0.5288  0.9623 -0.5725
 5512TIP3    H240732  -0.033   7.626   2.856 -0.5781 -0.2877  0.4654
 5513TIP3   OH240733   4.035   3.844   1.976  0.4139  0.0804 -0.0781
 5513TIP3    H140734   4.063   3.864   2.066 -0.6841 -0.3249  0.3684
 5513TIP3    H240735   3.986   3.921   1.949  0.8241  0.2413 -0.3811
 5514TIP3   OH240736   3.638   3.350   2.603  0.2976 -0.3461 -0.0797
 5514TIP3    H140737   3.567   3.339   2.541  0.9025  0.9631 -1.0683
 5514TIP3    H240738   3.631   3.442   2.631  0.6193 -0.6514  1.0547
 5515TIP3   OH240739   0.970   0.336   0.760  0.0902  0.3695 -0.2127
 5515TIP3    H140740   1.031   0.366   0.693 -0.3773  0.3423 -0.6631
 5515TIP3    H240741   1.018   0.343   0.842  0.4095  1.1556 -0.4582
 5516TIP3   OH240742   5.057   1.992   3.164  0.5708  0.3025 -0.6389
 5516TIP3    H140743   5.100   1.917   3.204  0.0101  0.2888 -0.0414
 5516TIP3    H240744   5.056   1.972   3.070  1.7316  0.2554 -0.6550
 5517TIP3   OH240745   1.455   5.732   8.512  0.4519  0.2533  0.0658
 5517TIP3    H140746   1.515   5.804   8.528  0.9042 -0.3387  1.1686
 5517TIP3    H240747   1.486   5.691   8.431  0.7613  0.7184 -0.0522
 5518TIP3   OH240748   6.801   0.408   1.747  0.9352  0.1406 -0.2320
 5518TIP3    H140749   6.841   0.492   1.724 -0.6698  0.6309 -1.3793
 5518TIP3    H240750   6.772   0.419   1.838  1.3087  0.5858 -0.1608
 5519TIP3   OH240751   2.347   6.123   2.437 -0.1613 -0.0338  0.1456
 5519TIP3    H140752   2.275   6.146   2.379  1.1006  0.4495 -1.2698
 5519TIP3    H240753   2.356   6.199   2.495  0.3042  0.6366 -0.7921
 5520TIP3   OH240754   6.505   7.431   1.073  0.4299 -0.2644 -0.4585
 5520TIP3    H140755   6.534   7.453   1.162 -0.0806  1.7643 -0.7361
 5520TIP3    H240756   6.417   7.469   1.067 -0.8173 -3.0118 -0.8705
 5521TIP3   OH240757   1.496   5.501   2.937  0.0504 -0.5275 -0.7103
 5521TIP3    H140758   1.465   5.419   2.900  2.1809 -1.8277  0.2112
 5521TIP3    H240759   1.542   5.545   2.865  0.5132 -1.0380 -0.7302
 5522TIP3   OH240760   1.674   2.592   2.800  0.5943 -0.4284  0.3595
 5522TIP3    H140761   1.607   2.637   2.851 -0.2758 -0.3568 -0.7913
 5522TIP3    H240762   1.755   2.603   2.849  0.3005  1.8928  0.3966
 5523TIP3   OH240763   2.291   4.051   1.577  0.2438  0.2146  0.0159
 5523TIP3    H140764   2.307   4.074   1.485  0.9476 -0.8124 -0.1290
 5523TIP3    H240765   2.345   4.113   1.626 -0.9006  1.4334 -0.1970
 5524TIP3   OH240766   4.215   0.628   0.909  0.5334 -0.4958  0.1316
 5524TIP3    H140767   4.309   0.645   0.901  1.0085 -2.6000  0.7857
 5524TIP3    H240768   4.208   0.557   0.973 -1.4898 -0.7118 -0.2457
 5525TIP3   OH240769   1.249   1.577   1.593  0.2503  0.0393  0.1379
 5525TIP3    H140770   1.314   1.580   1.522 -1.3229  0.6834 -1.3710
 5525TIP3    H240771   1.165   1.589   1.548 -1.0813 -2.1395  1.8219
 5526TIP3   OH240772   2.571   3.307   1.195 -0.0513  0.5910 -0.7236
 5526TIP3    H140773   2.649   3.264   1.158 -0.3878 -2.2089  1.4662
 5526TIP3    H240774   2.606   3.371   1.257  0.5124  0.2829 -0.7169
 5527TIP3   OH240775   5.169   5.113   0.383  0.8278 -0.3311 -0.3199
 5527TIP3    H140776   5.084   5.128   0.342  1.7793  0.1877 -2.2708
 5527TIP3    H240777   5.169   5.020   0.404  0.4635 -0.7915 -2.1277
 5528TIP3   OH240778   6.686   5.738   0.735  0.0211  0.2777 -0.1310
 5528TIP3    H140779   6.697   5.646   0.758 -0.1880  0.4781  0.7925
 5528TIP3    H240780   6.591   5.753   0.739  0.0054  0.4099 -0.7993
 5529TIP3   OH240781   7.131   2.910   9.465  0.5835  0.5515  0.7135
 5529TIP3    H140782   7.171   2.908   9.379 -1.1143  0.4795 -0.1121
 5529TIP3    H240783   7.136   3.002   9.491 -0.2782  0.8650 -0.1658
 5530TIP3   OH240784   0.472   2.011   2.542  0.5005  0.1394 -0.1992
 5530TIP3    H140785   0.406   2.063   2.587 -0.9814 -1.6320 -0.2255
 5530TIP3    H240786   0.536   1.990   2.609  0.7246  1.3013 -0.0184
 5531TIP3   OH240787   0.358   3.065   1.056  0.1669  0.0015 -0.7490
 5531TIP3    H140788   0.300   3.061   0.980 -0.6174 -1.8485 -0.1133
 5531TIP3    H240789   0.403   2.981   1.057  0.7752  0.3120  0.3784
 5532TIP3   OH240790   0.543   6.074   1.723  0.3071 -0.5495  0.2921
 5532TIP3    H140791   0.604   6.097   1.794  0.3479  0.6194 -0.1074
 5532TIP3    H240792   0.547   6.148   1.663 -0.3032 -1.1924 -0.5605
 5533TIP3   OH240793   0.634   5.995   0.943  0.2441  0.1637 -0.4295
 5533TIP3    H140794   0.586   5.970   1.022  2.0846 -2.1235  0.0636
 5533TIP3    H240795   0.565   6.021   0.881 -1.2505  2.1094  1.8501
 5534TIP3   OH240796   7.510   5.690   2.044  0.7208  0.0642  0.2959
 5534TIP3    H140797   7.473   5.744   1.974  1.5560  0.0634 -0.1572
 5534TIP3    H240798   7.589   5.737   2.072  0.9698 -0.4678  0.5105
 5535TIP3   OH240799   5.506   0.025   1.800 -0.3052  0.0012 -0.5174
 5535TIP3    H140800   5.483  -0.044   1.862 -1.9149  0.0849 -0.9652
 5535TIP3    H240801   5.453   0.006   1.723  1.0151  0.3922 -1.5444
 5536TIP3   OH240802   0.963   2.880   2.514  0.7403 -0.0712  0.0634
 5536TIP3    H140803   0.880   2.872   2.468  1.0957  2.2788 -1.1590
 5536TIP3    H240804   1.011   2.946   2.464  2.3000  0.5249  2.2325
 5537TIP3   OH240805   2.605   3.894   2.580  0.0438  0.4233 -0.2878
 5537TIP3    H140806   2.655   3.887   2.498  0.9941 -0.1947  0.3158
 5537TIP3    H240807   2.560   3.978   2.574  0.6321  0.6932 -1.1579
 5538TIP3   OH240808   2.944   0.697   0.794 -0.7376 -0.3945 -0.8487
 5538TIP3    H140809   2.990   0.631   0.743  0.8728 -1.3363  1.6912
 5538TIP3    H240810   2.884   0.648   0.850 -0.9451  0.4285 -0.3236
 5539TIP3   OH240811   3.236   5.217   0.642  0.1817  0.2083  0.2240
 5539TIP3    H140812   3.219   5.311   0.642 -1.1424 -0.0035  1.3549
 5539TIP3    H240813   3.291   5.202   0.719  2.5395  0.3505 -1.3258
 5540TIP3   OH240814   4.243   6.844   0.784 -0.4423 -0.2165  0.5391
 5540TIP3    H140815   4.234   6.789   0.707  0.7017  0.5953 -0.2063
 5540TIP3    H240816   4.256   6.932   0.749 -0.8520  0.3221  1.6860
 5541TIP3   OH240817   6.060   3.353   0.504  0.2797  0.3331 -0.1620
 5541TIP3    H140818   6.084   3.432   0.456  0.1673  0.2990 -0.2759
 5541TIP3    H240819   6.123   3.287   0.474  0.2810  0.3413 -0.1779
 5542TIP3   OH240820   0.892   1.528   1.059 -0.3208  0.0616  0.2048
 5542TIP3    H140821   0.910   1.621   1.043  4.9325 -0.5599  0.5710
 5542TIP3    H240822   0.864   1.524   1.150 -1.6317  1.3133 -0.1161
 5543TIP3   OH240823   5.264   5.830   1.214 -0.3291  0.2305  0.0431
 5543TIP3    H140824   5.230   5.762   1.273  0.6240  0.7653  1.2564
 5543TIP3    H240825   5.214   5.818   1.133 -1.0560 -1.1087  0.6437
 5544TIP3   OH240826   3.373   0.310   0.885  0.1404  0.1600  0.2658
 5544TIP3    H140827   3.350   0.391   0.931  0.6004 -0.0903  0.9463
 5544TIP3    H240828   3.407   0.340   0.800  0.2809  0.6779  0.5012
 5545TIP3   OH240829   0.064   0.738   0.685 -0.1941  0.2468 -0.1595
 5545TIP3    H140830   0.134   0.803   0.686 -1.6437  1.9083  1.7081
 5545TIP3    H240831   0.004   0.768   0.617  0.8794 -1.2507 -1.8544
 5546TIP3   OH240832   6.480   1.624   2.236 -0.0370 -0.0896  0.6934
 5546TIP3    H140833   6.419   1.561   2.275 -1.4656  0.7660 -0.0600
 5546TIP3    H240834   6.541   1.570   2.187 -1.3981 -0.9243 -0.1624
 5547TIP3   OH240835   4.434   0.112   2.987  0.0154  0.4786 -0.0032
 5547TIP3    H140836   4.343   0.084   2.983  0.0198  0.5422 -0.7004
 5547TIP3    H240837   4.434   0.187   3.045 -0.3447  0.3545  0.1599
 5548TIP3   OH240838   4.898   2.413   0.746  0.0203 -0.2305 -0.0374
 5548TIP3    H140839   4.839   2.349   0.786  0.0551 -1.5200 -1.9260
 5548TIP3    H240840   4.982   2.399   0.790 -0.3992 -0.2506  0.7772
 5549TIP3   OH240841   3.231   6.153   0.471  0.3423  0.3577 -0.0160
 5549TIP3    H140842   3.266   6.213   0.406 -1.4668  1.1901 -0.2774
 5549TIP3    H240843   3.169   6.205   0.522 -1.3273 -1.2587 -0.2789
 5550TIP3   OH240844   5.904   4.710   0.371  0.1187  0.3507 -0.2644
 5550TIP3    H140845   5.911   4.712   0.275  0.0676 -0.6709 -0.3001
 5550TIP3    H240846   5.993   4.727   0.401  1.1584 -3.5641 -0.5950
 5551TIP3   OH240847   3.189   2.853   1.850 -0.1225  0.2405  0.2803
 5551TIP3    H140848   3.266   2.909   1.839 -0.1149 -0.0364 -1.3767
 5551TIP3    H240849   3.175   2.814   1.763 -0.0745 -2.3990  1.3710
 5552TIP3   OH240850   6.690   6.085   1.022  0.2315  0.2361 -0.2515
 5552TIP3    H140851   6.784   6.103   1.013  0.4340 -0.5976  0.1403
 5552TIP3    H240852   6.685   6.003   1.070 -0.6988 -0.0256 -0.7709
 5553TIP3   OH240853   7.428   2.350   2.128  0.4030  0.3556 -0.3374
 5553TIP3    H140854   7.367   2.417   2.096 -1.2257 -1.6084 -1.5615
 5553TIP3    H240855   7.511   2.373   2.087  0.6342  3.1196  1.3958
 5554TIP3   OH240856   4.111   0.514   0.565 -0.1562 -0.5930  0.4730
 5554TIP3    H140857   4.114   0.429   0.610 -2.2034 -1.4545 -0.8378
 5554TIP3    H240858   4.020   0.542   0.573 -0.6025 -0.6790 -2.7333
 5555TIP3   OH240859   3.999   2.096   0.933 -0.0623  0.0018 -0.0864
 5555TIP3    H140860   3.943   2.040   0.879 -2.3387  1.6422  0.4275
 5555TIP3    H240861   4.009   2.048   1.015 -1.1806 -0.1083 -0.0011
 5556TIP3   OH240862   4.746   4.294   2.184 -0.1381 -0.2472  0.7884
 5556TIP3    H140863   4.768   4.204   2.162 -0.0322 -0.0713  0.1552
 5556TIP3    H240864   4.656   4.304   2.152  0.4120  0.3602 -0.6818
 5557TIP3   OH240865   1.709   6.318   0.609  0.3395  0.3604  0.5682
 5557TIP3    H140866   1.641   6.334   0.544  0.8665  2.3053  0.4305
 5557TIP3    H240867   1.662   6.283   0.685 -0.7231  1.0784  0.2566
 5558TIP3   OH240868   0.833   6.858   1.497 -0.2672  0.3025 -0.1828
 5558TIP3    H140869   0.814   6.803   1.422  0.3922  0.2175 -0.2984
 5558TIP3    H240870   0.776   6.934   1.488  0.1970  0.5526 -1.0651
 5559TIP3   OH240871   3.676   5.867   1.398 -0.4037  0.0349  0.4356
 5559TIP3    H140872   3.619   5.943   1.412 -0.2308  0.2346  0.0521
 5559TIP3    H240873   3.683   5.827   1.485  2.7511  2.7182  1.6152
 5560TIP3   OH240874   2.351   1.741   1.659  0.1627  0.1424  0.1208
 5560TIP3    H140875   2.380   1.832   1.654 -0.6933  0.3642 -1.7769
 5560TIP3    H240876   2.257   1.746   1.680  0.2985 -0.3636  0.9239
 5561TIP3   OH240877   6.897   0.664   1.698 -0.1552 -0.2781 -0.3107
 5561TIP3    H140878   6.928   0.616   1.621 -0.2402  0.4372 -0.7929
 5561TIP3    H240879   6.925   0.754   1.683  1.5258 -0.4555  1.3778
 5562TIP3   OH240880   1.739   0.782   1.654  0.5894 -0.1667 -0.4070
 5562TIP3    H140881   1.693   0.699   1.661 -0.7580  0.5950  0.0438
 5562TIP3    H240882   1.750   0.812   1.744 -0.8217  1.1203 -0.6226
 5563TIP3   OH240883   1.856   3.649   2.766  0.3403 -0.0604 -0.1035
 5563TIP3    H140884   1.810   3.600   2.834 -2.1124  1.7111 -0.3892
 5563TIP3    H240885   1.900   3.719   2.812  0.1092  0.1240 -0.1633
 5564TIP3   OH240886   4.296   3.936   3.095 -0.7092 -0.1774 -0.7623
 5564TIP3    H140887   4.217   3.886   3.119 -0.3389 -0.6618 -0.5396
 5564TIP3    H240888   4.263   4.023   3.074 -1.2626 -0.2563 -0.2598
 5565TIP3   OH240889   3.257   3.055   0.804 -0.2666 -0.0661  0.5212
 5565TIP3    H140890   3.328   3.086   0.861 -1.4243 -0.4045  2.2371
 5565TIP3    H240891   3.277   3.092   0.718  0.8629  1.5871  1.4301
 5566TIP3   OH240892   1.778   5.660   1.167  0.2734  0.3530 -0.4920
 5566TIP3    H140893   1.864   5.625   1.189  0.5102  0.6605 -0.9084
 5566TIP3    H240894   1.788   5.696   1.079 -0.4933 -0.3391 -0.8846
 5567TIP3   OH240895   0.591   1.620   0.818 -0.2221 -0.1622 -0.0513
 5567TIP3    H140896   0.559   1.603   0.730 -0.3911 -1.4533  0.2337
 5567TIP3    H240897   0.639   1.541   0.842  0.8120  0.6307  0.5879
 5568TIP3   OH240898   4.692   2.917   1.950 -0.2791  0.0188 -0.2172
 5568TIP3    H140899   4.603   2.894   1.924 -0.6114  0.5588  0.4163
 5568TIP3    H240900   4.745   2.900   1.873 -1.1923  1.3330 -1.1749
 5569TIP3   OH240901   3.995   1.136   1.532  0.4016 -0.4994 -0.3674
 5569TIP3    H140902   3.906   1.172   1.534  1.0379  1.1613 -0.7295
 5569TIP3    H240903   4.026   1.154   1.444  0.7029 -2.1441 -0.6295
 5570TIP3   OH240904   1.864   7.191   0.462 -0.6872  0.0255 -0.3581
 5570TIP3    H140905   1.925   7.150   0.400 -0.6264 -0.0822 -0.2281
 5570TIP3    H240906   1.890   7.283   0.463 -1.3173  0.2219 -1.2312
 5571TIP3   OH240907   3.735   3.150   0.971  0.4053  0.2759  0.4364
 5571TIP3    H140908   3.695   3.205   1.039  1.0239  1.9149 -0.4768
 5571TIP3    H240909   3.710   3.191   0.889 -1.0342 -2.1601 -0.4462
 5572TIP3   OH240910   0.100   0.602   3.012  0.3370 -0.0174  0.1793
 5572TIP3    H140911   0.031   0.660   2.979  0.9618 -0.0405 -1.2506
 5572TIP3    H240912   0.059   0.515   3.015  0.9077 -0.5318 -3.0949
 5573TIP3   OH240913   3.628   0.642   3.473  0.4118  0.1111  0.1014
 5573TIP3    H140914   3.637   0.653   3.378 -0.4204 -1.3089 -0.1658
 5573TIP3    H240915   3.557   0.579   3.483  0.0880  0.7002  1.7002
 5574TIP3   OH240916   0.524   1.096   1.746  0.1875 -0.1618  0.6642
 5574TIP3    H140917   0.575   1.166   1.705 -1.2316  1.0448  0.8663
 5574TIP3    H240918   0.585   1.053   1.806  0.6102  2.3325  2.1906
 5575TIP3   OH240919   6.793   1.106   0.539  0.3166 -0.6218  0.0953
 5575TIP3    H140920   6.852   1.106   0.614 -0.9038 -0.6956  1.0897
 5575TIP3    H240921   6.724   1.044   0.562 -0.1634 -0.5428 -1.0306
 5576TIP3   OH240922   6.254   5.632   1.327 -0.1279 -0.0072 -0.6356
 5576TIP3    H140923   6.159   5.641   1.319 -0.3870 -2.0436 -0.2954
 5576TIP3    H240924   6.282   5.713   1.370 -1.8713  0.0719  0.4395
 5577TIP3   OH240925   6.408   0.929   0.569  0.4220  0.6501  0.3746
 5577TIP3    H140926   6.322   0.902   0.601  1.1968 -0.4384  1.6844
 5577TIP3    H240927   6.403   0.919   0.474 -0.7350  0.1010  0.4808
 5578TIP3   OH240928   1.051   4.635   0.572 -0.2224  0.0325  0.2539
 5578TIP3    H140929   1.078   4.557   0.523  0.8566 -0.2020  1.1813
 5578TIP3    H240930   1.069   4.708   0.512  0.3077 -0.3056 -0.0066
 5579TIP3   OH240931   7.515   1.038   2.725 -0.2721  0.5721 -0.0591
 5579TIP3    H140932   7.503   1.021   2.631 -0.0335 -0.8342  0.1455
 5579TIP3    H240933   7.587   1.102   2.728  0.7519 -0.5050 -0.7958
 5580TIP3   OH240934   4.257   4.512   0.432  0.4399 -0.5916 -0.6710
 5580TIP3    H140935   4.193   4.560   0.484  0.5364  0.5970 -1.6066
 5580TIP3    H240936   4.266   4.428   0.477 -0.0553  0.0926  0.7649
 5581TIP3   OH240937   2.079   4.315   2.454 -0.3441 -0.0288  0.3137
 5581TIP3    H140938   2.140   4.264   2.400  2.3741  1.3601  1.8427
 5581TIP3    H240939   2.033   4.250   2.507  0.5302 -1.1120 -0.2084
 5582TIP3   OH240940   7.392   7.378   0.576 -0.2940  0.1419 -0.3201
 5582TIP3    H140941   7.370   7.430   0.499 -0.0394 -1.0464 -1.2165
 5582TIP3    H240942   7.344   7.297   0.565  0.4270 -0.3910  0.3427
 5583TIP3   OH240943   1.404   1.564   0.723 -0.3075 -0.1974  0.5898
 5583TIP3    H140944   1.328   1.556   0.781  0.5869  0.9844  2.0018
 5583TIP3    H240945   1.368   1.558   0.634 -2.3387  2.1977  1.1588
 5584TIP3   OH240946   4.806   1.695   0.812 -0.1670  0.5875 -0.0897
 5584TIP3    H140947   4.855   1.671   0.891  1.9049  1.3047 -1.0816
 5584TIP3    H240948   4.772   1.612   0.778  0.4059  0.0530  0.6179
 5585TIP3   OH240949   3.342   4.712   0.702  0.5075  0.2131 -0.0743
 5585TIP3    H140950   3.299   4.724   0.786 -0.6940  0.1672 -0.6706
 5585TIP3    H240951   3.436   4.710   0.723  0.2014 -0.2878  1.3018
 5586TIP3   OH240952   6.868   4.849   1.535 -0.4247  0.3148 -0.0089
 5586TIP3    H140953   6.907   4.779   1.588  1.7016  1.7696  0.4712
 5586TIP3    H240954   6.871   4.926   1.592 -2.3054  0.9373 -0.6870
 5587TIP3   OH240955   5.159   2.521   0.647  0.2599 -0.3694  0.6811
 5587TIP3    H140956   5.159   2.615   0.665 -0.9251 -0.0753 -0.7006
 5587TIP3    H240957   5.072   2.503   0.610  0.7892 -1.8226  0.0587
 5588TIP3   OH240958   2.961   6.890   1.080  0.2910 -0.0234  0.2773
 5588TIP3    H140959   2.937   6.982   1.094 -0.7516 -0.0035 -1.2828
 5588TIP3    H240960   3.052   6.893   1.052  0.8335  0.3407  1.9893
 5589TIP3   OH240961   4.973   7.053   1.675  0.4054 -0.4378 -0.1188
 5589TIP3    H140962   4.939   7.138   1.647  0.0792 -0.8532 -0.9955
 5589TIP3    H240963   5.068   7.062   1.667  0.3707 -0.1699 -0.2496
 5590TIP3   OH240964   0.686   1.222   1.147  0.7088 -0.2793 -0.3777
 5590TIP3    H140965   0.632   1.146   1.169  1.2936 -0.0030  2.3499
 5590TIP3    H240966   0.776   1.189   1.149  0.8453 -0.1281 -2.1863
 5591TIP3   OH240967   4.341   6.273   1.880  0.3464  0.7602 -0.4676
 5591TIP3    H140968   4.335   6.179   1.865  1.6848  1.0177 -3.5432
 5591TIP3    H240969   4.409   6.283   1.947 -0.6759 -0.4509  0.7972
 5592TIP3   OH240970   1.133   1.230   2.806 -0.0502 -0.5916  0.3918
 5592TIP3    H140971   1.160   1.259   2.719 -0.6736  0.5502  0.5605
 5592TIP3    H240972   1.043   1.261   2.815 -1.1531 -3.4612  0.2325
 5593TIP3   OH240973   2.566   6.798   0.714 -0.2386  0.6435 -0.0222
 5593TIP3    H140974   2.586   6.743   0.790 -1.1626  1.8709  1.1857
 5593TIP3    H240975   2.610   6.881   0.732  0.1969  0.6923 -1.2432
 5594TIP3   OH240976   0.225   6.290   2.265  0.0945 -0.1123  0.8739
 5594TIP3    H140977   0.195   6.333   2.345  2.4362  1.1464  1.1764
 5594TIP3    H240978   0.256   6.362   2.209  0.7589 -1.1449 -0.1429
 5595TIP3   OH240979   0.875   2.232   1.538 -0.2657 -0.4311 -0.5881
 5595TIP3    H140980   0.879   2.288   1.615 -2.6793 -0.7142 -0.1764
 5595TIP3    H240981   0.864   2.293   1.465 -0.3312 -0.2463 -0.4253
 5596TIP3   OH240982   3.475   0.596   2.446  0.2521  0.3636  0.3781
 5596TIP3    H140983   3.525   0.576   2.367  1.2532  2.8838  0.2670
 5596TIP3    H240984   3.489   0.520   2.503  1.3740 -0.5065 -0.9870
 5597TIP3   OH240985   3.694   6.813   1.158  0.3272 -0.0636  0.1204
 5597TIP3    H140986   3.676   6.898   1.197 -1.3699  0.1819 -1.0900
 5597TIP3    H240987   3.765   6.830   1.096 -1.9744  1.2136 -2.3368
 5598TIP3   OH240988   6.470   0.894   1.867  0.6646 -0.1447  0.0576
 5598TIP3    H140989   6.451   0.952   1.941  0.8723 -1.0961  0.8726
 5598TIP3    H240990   6.539   0.836   1.899  0.3837 -0.9198 -0.7086
 5599TIP3   OH240991   4.120   0.575   2.267  0.3202  0.3153  0.4681
 5599TIP3    H140992   4.143   0.484   2.282 -1.5807 -0.5130 -1.2502
 5599TIP3    H240993   4.054   0.596   2.333 -1.6104 -0.6156 -1.0738
 5600TIP3   OH240994   6.457   5.151   1.368 -0.5464 -0.0097 -0.1874
 5600TIP3    H140995   6.524   5.211   1.399  0.5780 -0.7308 -1.1278
 5600TIP3    H240996   6.453   5.166   1.273 -0.8247 -0.8441 -0.3151
 5601TIP3   OH240997   7.149   6.676   1.085 -0.0118 -0.1355  0.1563
 5601TIP3    H140998   7.150   6.729   1.005 -1.5139  0.3662  0.4368
 5601TIP3    H240999   7.198   6.728   1.149  1.0800 -0.4766 -0.3801
 5602TIP3   OH241000   2.282   4.172   0.955 -0.1649 -0.0815 -0.7786
 5602TIP3    H141001   2.193   4.153   0.984  0.5104  0.3085  1.8279
 5602TIP3    H241002   2.334   4.172   1.036  2.3713 -1.1443 -2.2704
 5603TIP3   OH241003   2.433   6.022   1.650 -0.3367  0.1632 -0.3424
 5603TIP3    H141004   2.439   5.983   1.563  0.6199  0.3385 -0.3669
 5603TIP3    H241005   2.383   5.959   1.702  1.2004 -1.1258 -0.3677
 5604TIP3   OH241006   4.185   4.695   2.043  0.0709  0.4888 -0.3296
 5604TIP3    H141007   4.162   4.722   1.954  0.8142 -0.1462 -0.7306
 5604TIP3    H241008   4.239   4.767   2.077  1.0401  0.0708 -0.9514
 5605TIP3   OH241009   0.358   3.311   1.378 -0.0767 -0.0773 -0.8359
 5605TIP3    H141010   0.360   3.326   1.472 -1.3279 -1.1750 -0.6087
 5605TIP3    H241011   0.445   3.277   1.357  0.8451  1.9249 -0.4271
 5606TIP3   OH241012   4.906   1.913   2.712  0.1596 -0.0618 -0.1571
 5606TIP3    H141013   4.816   1.918   2.681 -0.0279  2.4800  0.5429
 5606TIP3    H241014   4.952   1.983   2.664  1.4294 -0.4124  0.4879
 5607TIP3   OH241015   2.475   6.229   1.830  0.2054 -0.4080  0.2400
 5607TIP3    H141016   2.481   6.167   1.758  2.2610 -1.3411  1.1279
 5607TIP3    H241017   2.407   6.193   1.887 -1.1826  0.1541 -1.0250
 5608TIP3   OH241018   0.090   0.311   1.262 -0.0615  0.3736  0.3830
 5608TIP3    H141019   0.159   0.339   1.201 -0.5145  0.7632  0.0397
 5608TIP3    H241020   0.069   0.389   1.312  1.3285 -0.2842  2.0929
 5609TIP3   OH241021   2.024   1.465   1.852 -0.5880 -0.2349  0.1846
 5609TIP3    H141022   2.035   1.382   1.805 -0.6501  0.9616 -2.0785
 5609TIP3    H241023   2.113   1.489   1.878 -0.8174 -2.2463  3.2992
 5610TIP3   OH241024   0.426   4.636   2.722 -0.3520  0.3923  0.2490
 5610TIP3    H141025   0.460   4.698   2.786  0.9390  0.4929 -0.4997
 5610TIP3    H241026   0.331   4.640   2.732 -0.1745 -0.4668  2.9638
 5611TIP3   OH241027   5.098   7.519   2.773 -0.4117  0.0765 -0.4330
 5611TIP3    H141028   5.136   7.598   2.811 -1.4394  0.8247 -0.9005
 5611TIP3    H241029   5.173   7.463   2.754  0.2620  0.4624  0.9334
 5612TIP3   OH241030   1.338   7.173   1.210 -0.0147  0.5197 -0.3343
 5612TIP3    H141031   1.343   7.094   1.264  3.9846  0.5121 -0.3835
 5612TIP3    H241032   1.323   7.140   1.121  0.3743 -0.1170 -0.1765
 5613TIP3   OH241033   2.382   4.740   2.192  0.0960  0.4457  0.5720
 5613TIP3    H141034   2.288   4.754   2.176  0.6625  2.2051 -1.9860
 5613TIP3    H241035   2.405   4.803   2.260 -0.3158  1.1716  0.0536
 5614TIP3   OH241036   0.228   1.418   0.712  0.1313 -0.1712 -0.1021
 5614TIP3    H141037   0.193   1.329   0.716  0.3157 -0.2318  0.2069
 5614TIP3    H241038   0.215   1.453   0.800  1.3267 -0.3817  0.1796
 5615TIP3   OH241039   7.322   0.091   0.523 -0.2991 -0.2060 -0.2854
 5615TIP3    H141040   7.235   0.053   0.520  0.6538 -2.4921 -2.1600
 5615TIP3    H241041   7.307   0.186   0.527 -2.8495 -0.4826 -1.4204
 5616TIP3   OH241042   7.340   5.532   1.253  0.2038 -0.2188 -0.0691
 5616TIP3    H141043   7.348   5.468   1.323  1.0105 -0.8290 -0.6932
 5616TIP3    H241044   7.259   5.580   1.272 -1.6656 -2.8921 -0.7683
 5617TIP3   OH241045   3.983   6.791   1.335 -0.5842 -0.4760  0.0511
 5617TIP3    H141046   3.897   6.767   1.368 -0.9208 -0.3455 -0.7013
 5617TIP3    H241047   4.041   6.721   1.365 -1.2030 -1.2529 -0.5315
 5618TIP3   OH241048   5.131   1.564   3.091  0.2980 -0.9150  0.1506
 5618TIP3    H141049   5.216   1.576   3.134  0.0096 -1.4402  0.8836
 5618TIP3    H241050   5.133   1.624   3.016  0.6873  0.2358  1.0636
 5619TIP3   OH241051   5.586   0.936   2.545  0.1185 -0.4169  0.4574
 5619TIP3    H141052   5.676   0.911   2.570 -0.0028 -0.4205  0.9040
 5619TIP3    H241053   5.533   0.909   2.620 -0.2395 -0.3084  0.2405
 5620TIP3   OH241054   4.914   2.904   1.746 -0.5780  0.0617 -0.6874
 5620TIP3    H141055   4.963   2.848   1.807 -0.7732 -0.3989 -0.9479
 5620TIP3    H241056   4.973   2.915   1.671 -0.5206  0.2420 -0.6149
 5621TIP3   OH241057   2.934   0.343   2.283 -0.2895  0.1071  0.0851
 5621TIP3    H141058   2.893   0.413   2.334  0.6628 -0.9913  2.5569
 5621TIP3    H241059   2.867   0.317   2.220 -2.2325  0.5017  1.8628
 5622TIP3   OH241060   4.287   7.038   1.497 -0.0220  0.3268  0.0534
 5622TIP3    H141061   4.192   7.026   1.494  0.1479 -1.2268 -0.2784
 5622TIP3    H241062   4.301   7.110   1.558 -1.3971  0.3975  0.3086
 5623TIP3   OH241063   2.238   0.982   2.512  0.4057 -0.4692  0.2630
 5623TIP3    H141064   2.273   1.070   2.504 -0.6495 -0.1696 -1.6163
 5623TIP3    H241065   2.250   0.960   2.605  1.3513  1.3376  0.6166
 5624TIP3   OH241066   1.970   0.475   1.008 -0.0278  0.5446  0.4474
 5624TIP3    H141067   1.932   0.390   1.029 -0.3558  0.0307 -2.0020
 5624TIP3    H241068   2.026   0.495   1.083 -2.5804 -0.1739  2.6735
 5625TIP3   OH241069   2.884   6.145   3.632  0.1913  0.0836 -0.3455
 5625TIP3    H141070   2.934   6.224   3.616  0.2762 -0.0786 -0.8952
 5625TIP3    H241071   2.831   6.133   3.554 -0.7179  0.2534  0.2274
 5626TIP3   OH241072   4.936   5.753   0.787  0.0462  0.6967 -0.5287
 5626TIP3    H141073   4.869   5.686   0.803  0.2919  0.9625  2.1458
 5626TIP3    H241074   4.999   5.711   0.729 -0.0147 -1.2979  0.7438
 5627TIP3   OH241075   3.416   7.010   0.435 -0.1698 -0.1303 -0.2020
 5627TIP3    H141076   3.380   6.934   0.481 -1.2388 -0.4078 -1.4412
 5627TIP3    H241077   3.342   7.070   0.426  0.6105  0.9834  0.5662
 5628TIP3   OH241078   3.299   4.260   0.888 -0.2250 -0.1191  0.6038
 5628TIP3    H141079   3.302   4.241   0.794  0.0748  1.2512  0.3097
 5628TIP3    H241080   3.352   4.192   0.928  0.5953 -0.0615 -0.3440
 5629TIP3   OH241081   2.192   5.540   1.629 -0.8215  0.0350  0.5839
 5629TIP3    H141082   2.286   5.548   1.646 -0.7482 -0.3363  0.3603
 5629TIP3    H241083   2.151   5.544   1.716 -0.4252 -2.3115  0.9628
 5630TIP3   OH241084   0.396   2.606   0.978 -0.2361  0.2352  0.2906
 5630TIP3    H141085   0.346   2.688   0.981 -1.3434 -0.3988 -0.2337
 5630TIP3    H241086   0.335   2.542   0.942  1.0316 -0.5270 -0.5834
 5631TIP3   OH241087   5.537   7.465   1.149 -0.2961  0.6941  0.1722
 5631TIP3    H141088   5.529   7.517   1.069  1.8278  1.5829  0.4757
 5631TIP3    H241089   5.555   7.376   1.119 -1.5399  0.5867 -0.3228
 5632TIP3   OH241090   1.902   6.806   1.899 -0.4886  0.0690  0.2551
 5632TIP3    H141091   1.972   6.741   1.909 -0.6968 -0.6131 -2.0785
 5632TIP3    H241092   1.948   6.889   1.887 -0.0154 -0.4145 -1.5455
 5633TIP3   OH241093   7.070   7.388   0.865 -0.6176 -0.1566 -0.0025
 5633TIP3    H141094   7.138   7.321   0.866 -0.5593 -0.1049 -0.4236
 5633TIP3    H241095   7.047   7.400   0.957  1.0193  0.9240  0.3041
 5634TIP3   OH241096   6.053   2.034   3.168 -0.1647 -0.0558 -0.4067
 5634TIP3    H141097   6.109   1.961   3.194 -0.9722 -0.3914  0.4331
 5634TIP3    H241098   6.109   2.088   3.111  0.7775 -0.7520 -0.1658
 5635TIP3   OH241099   5.531   6.234   3.515 -0.3395 -0.0939 -0.1667
 5635TIP3    H141100   5.462   6.234   3.449 -1.4209 -0.7538  0.9136
 5635TIP3    H241101   5.486   6.255   3.597  1.1942  2.1310  0.1813
 5636TIP3   OH241102   4.216   7.552   2.885  0.0998  0.0642 -0.4441
 5636TIP3    H141103   4.134   7.521   2.926  0.6628 -0.0307  0.6540
 5636TIP3    H241104   4.223   7.501   2.804  0.9853 -2.8148  1.2661
 5637TIP3   OH241105   1.917   7.460   1.819 -0.2790 -0.2089  0.8525
 5637TIP3    H141106   1.870   7.379   1.797 -0.4267  0.2024 -0.3832
 5637TIP3    H241107   1.947   7.495   1.736 -1.2185  1.6238  1.2297
 5638TIP3   OH241108   6.649   5.735   1.089 -0.1571  0.3410 -0.2793
 5638TIP3    H141109   6.579   5.683   1.128  1.6795 -0.2106  2.5903
 5638TIP3    H241110   6.607   5.819   1.070 -1.6195  0.1201  1.5585
 5639TIP3   OH241111   3.176   5.281   2.050 -0.3458  0.4082 -0.2114
 5639TIP3    H141112   3.244   5.222   2.017 -0.6730 -0.9922  1.5189
 5639TIP3    H241113   3.106   5.274   1.985  0.2145  0.0319 -0.7901
 5640TIP3   OH241114   2.809   4.620   0.972  0.1161 -0.2136 -0.0099
 5640TIP3    H141115   2.894   4.610   0.931  0.7750  1.7935  0.7595
 5640TIP3    H241116   2.763   4.685   0.918 -0.1426  0.2032  0.6922
 5641TIP3   OH241117   4.757   3.169   2.551 -0.2662  0.0762  0.8381
 5641TIP3    H141118   4.821   3.193   2.484 -1.1036  0.2667  0.0912
 5641TIP3    H241119   4.802   3.104   2.604 -0.0445 -1.0741 -0.6986
 5642TIP3   OH241120   4.035   6.712   2.149 -0.2021 -0.5335 -0.5016
 5642TIP3    H141121   4.071   6.624   2.135 -0.2702 -0.5819 -0.3759
 5642TIP3    H241122   4.046   6.756   2.065  0.5042 -0.4214 -0.3586
 5643TIP3   OH241123   6.240   1.939   2.302  0.4834  0.1899 -0.3641
 5643TIP3    H141124   6.176   1.890   2.354 -0.1089  0.9503 -0.3696
 5643TIP3    H241125   6.256   1.884   2.225 -1.0791  0.5473 -0.9628
 5644TIP3   OH241126   0.030   4.164   2.717  0.0662  0.1630  0.2495
 5644TIP3    H141127   0.075   4.160   2.632  0.2529  0.3122  0.3402
 5644TIP3    H241128   0.081   4.227   2.768  0.1208 -0.1358  0.5693
 5645TIP3   OH241129   3.665   7.318   0.736 -0.1894 -0.2276  0.0400
 5645TIP3    H141130   3.738   7.369   0.702 -0.7401 -0.8903 -2.2935
 5645TIP3    H241131   3.594   7.382   0.745 -0.0309 -0.0386 -0.0460
 5646TIP3   OH241132   6.911   6.165   0.756  0.1636 -0.2151  0.4822
 5646TIP3    H141133   6.911   6.118   0.839 -0.9086 -0.6120  0.2723
 5646TIP3    H241134   6.914   6.095   0.690 -0.9527  0.0027  0.1741
 5647TIP3   OH241135   2.084   6.718   0.976  0.1976  0.3502 -0.1161
 5647TIP3    H141136   1.989   6.703   0.973 -0.0288  1.8429 -1.6668
 5647TIP3    H241137   2.105   6.713   1.070 -1.0672 -1.7378  0.1426
 5648TIP3   OH241138   7.556   7.338   1.135 -0.0206  0.2872 -0.0220
 5648TIP3    H141139   7.475   7.291   1.113  0.0261 -1.2387  2.6239
 5648TIP3    H241140   7.526   7.423   1.167 -0.4901  0.1388 -0.0524
 5649TIP3   OH241141   3.591   6.461   0.771 -0.0620 -0.5985  0.0282
 5649TIP3    H141142   3.616   6.470   0.863  0.5349 -2.3592  0.0915
 5649TIP3    H241143   3.625   6.374   0.746 -0.7934 -0.4350 -1.6602
 5650TIP3   OH241144   7.074   5.572   0.803  0.2212  0.1698  0.2428
 5650TIP3    H141145   7.167   5.590   0.815  0.2071 -0.0261  0.6775
 5650TIP3    H241146   7.036   5.582   0.891 -0.1330  0.0636  0.1040
 5651TIP3   OH241147   5.055   6.859   2.173  0.3510 -0.2132  0.0311
 5651TIP3    H141148   5.135   6.845   2.123  0.8524  1.3032  0.3593
 5651TIP3    H241149   5.057   6.952   2.196 -1.3062 -0.2364  0.3918
 5652TIP3   OH241150   2.931   3.138   0.883 -0.5270 -0.1631  0.2847
 5652TIP3    H141151   2.947   3.065   0.823 -0.7874  0.8875 -1.1192
 5652TIP3    H241152   2.924   3.214   0.826  0.2614  1.0599  1.7584
 5653TIP3   OH241153   5.552   2.147   2.439  0.5141  0.0956  0.3967
 5653TIP3    H141154   5.624   2.208   2.459  0.8503 -0.4676  0.9191
 5653TIP3    H241155   5.500   2.143   2.519  1.1092 -1.1345  0.7427
 5654TIP3   OH241156   6.943   3.462   2.310 -0.3577  0.5951 -0.2598
 5654TIP3    H141157   6.937   3.412   2.391 -1.0407  0.3134 -0.4810
 5654TIP3    H241158   6.904   3.547   2.330 -1.0078  0.3406 -0.4389
 5655TIP3   OH241159   6.836   5.734   1.327 -0.3984  0.3305 -0.2957
 5655TIP3    H141160   6.765   5.698   1.379 -1.4374  1.9724 -0.4826
 5655TIP3    H241161   6.801   5.735   1.237  1.7608 -3.5029 -1.3784
 5656TIP3   OH241162   4.303   4.273   1.512 -0.3461  0.4461 -0.2936
 5656TIP3    H141163   4.272   4.269   1.602 -0.1203  0.9768 -0.1914
 5656TIP3    H241164   4.343   4.359   1.503  1.1707 -0.2330 -0.3900
 5657TIP3   OH241165   7.203   2.666   3.429 -0.2133  0.4751  0.4698
 5657TIP3    H141166   7.235   2.577   3.415  0.0600  0.2233  2.4273
 5657TIP3    H241167   7.128   2.674   3.371  0.3823 -0.6522 -0.5114
 5658TIP3   OH241168   4.855   5.911   0.297  0.8269  0.3353 -0.1563
 5658TIP3    H141169   4.887   5.897   0.208  1.7195  0.0181  0.2080
 5658TIP3    H241170   4.807   5.832   0.318 -1.7225  1.4644 -1.3135
 5659TIP3   OH241171   2.723   3.203   1.886  0.2348  0.5670 -0.1754
 5659TIP3    H141172   2.763   3.239   1.966  0.9256  0.7105 -0.5741
 5659TIP3    H241173   2.783   3.228   1.816  0.7194 -1.2941 -0.4831
 5660TIP3   OH241174   2.497   3.580   2.471 -0.1222 -0.0109 -0.2414
 5660TIP3    H141175   2.578   3.624   2.446 -0.5177  1.2451  0.5768
 5660TIP3    H241176   2.512   3.554   2.562 -0.6811  0.3847 -0.0292
 5661TIP3   OH241177   3.744   0.806   2.357  0.2994 -0.2010  0.2570
 5661TIP3    H141178   3.722   0.721   2.318  1.6584 -0.1444 -0.6735
 5661TIP3    H241179   3.788   0.784   2.439  0.2394 -0.3787  0.2423
 5662TIP3   OH241180   4.905   3.241   3.036  0.2590  0.0559 -0.4414
 5662TIP3    H141181   4.911   3.155   3.076  0.8744  0.3155  0.0354
 5662TIP3    H241182   4.814   3.268   3.050  0.4562  0.1402  0.7965
 5663TIP3   OH241183   3.499   0.396   2.666 -0.0376 -0.3130  0.2252
 5663TIP3    H141184   3.547   0.434   2.740  1.5599 -2.1845  0.2148
 5663TIP3    H241185   3.408   0.419   2.683  0.5730  1.3466  1.4986
 5664TIP3   OH241186   5.374   1.932   3.218 -0.1251 -0.3286 -0.0844
 5664TIP3    H141187   5.423   1.960   3.141  0.0790  0.2771  0.2506
 5664TIP3    H241188   5.341   2.014   3.256 -1.5905 -0.7266 -0.4163
 5665TIP3   OH241189   1.698   0.311   1.608 -0.0872  0.1347  0.0262
 5665TIP3    H141190   1.676   0.404   1.618  0.9207  0.4407 -0.4486
 5665TIP3    H241191   1.788   0.305   1.638 -0.2631 -0.7701  0.3972
 5666TIP3   OH241192   7.154   6.851   0.868  0.1600  0.0390  0.3346
 5666TIP3    H141193   7.187   6.902   0.794  1.4846  0.7092  1.3312
 5666TIP3    H241194   7.077   6.806   0.834 -1.1471  2.7490 -0.6161
 5667TIP3   OH241195   2.786   2.416   2.016 -0.1647  0.3092 -0.3791
 5667TIP3    H141196   2.877   2.396   1.995 -0.2006 -0.7849  0.4470
 5667TIP3    H241197   2.758   2.345   2.074 -2.3148 -0.7894 -2.5859
 5668TIP3   OH241198   7.388   1.959   2.556 -0.2683 -0.6652  0.2018
 5668TIP3    H141199   7.471   1.981   2.514 -0.1419  0.7772  1.1305
 5668TIP3    H241200   7.399   1.986   2.647 -0.4871 -3.7903  1.2912
 5669TIP3   OH241201   5.052   2.206   1.468  0.0247  0.1436  0.0446
 5669TIP3    H141202   5.049   2.150   1.546  2.5856 -0.4492 -0.1911
 5669TIP3    H241203   5.037   2.145   1.395 -1.1364  0.4927 -0.0343
 5670TIP3   OH241204   7.566   1.526   0.982 -0.1736  0.0804 -0.2727
 5670TIP3    H141205   7.658   1.500   0.990 -0.5035 -1.2151 -0.4877
 5670TIP3    H241206   7.518   1.444   0.971 -1.4041  0.7071  0.1631
 5671TIP3   OH241207   5.136   2.381   2.313  0.3359 -0.1768 -0.4361
 5671TIP3    H141208   5.206   2.316   2.306  0.4909  0.0083 -0.5976
 5671TIP3    H241209   5.106   2.393   2.223  1.5165  1.3074 -0.6641
 5672TIP3   OH241210   6.240   5.622   0.646  0.0926  0.4192 -0.0795
 5672TIP3    H141211   6.308   5.679   0.682  1.7769 -1.2165 -0.4858
 5672TIP3    H241212   6.234   5.647   0.554 -0.7709  1.3938  0.2291
 5673TIP3   OH241213   0.793   6.843   1.998 -0.0576  0.6679  0.1094
 5673TIP3    H141214   0.848   6.807   1.929 -0.7681 -1.1075  0.4102
 5673TIP3    H241215   0.714   6.872   1.953 -0.2010  0.2201  0.0646
 5674TIP3   OH241216   6.917   3.706   2.404  0.5565 -0.1426  0.4133
 5674TIP3    H141217   6.982   3.698   2.474  2.4576  3.7573 -0.5985
 5674TIP3    H241218   6.841   3.746   2.447  1.1600  0.8643  0.5838
 5675TIP3   OH241219   5.770   2.981   3.088  0.4337 -0.4335 -0.9048
 5675TIP3    H141220   5.834   2.910   3.080  2.0397  0.9152 -0.5594
 5675TIP3    H241221   5.812   3.056   3.046 -0.1957  0.9419  0.8069
 5676TIP3   OH241222   0.532   6.663   1.130  0.0174  0.0105  0.5733
 5676TIP3    H141223   0.612   6.654   1.182 -0.6163 -2.8078  1.2067
 5676TIP3    H241224   0.558   6.636   1.042 -0.0628 -0.1530  0.6000
 5677TIP3   OH241225   3.272   3.426   0.570 -0.2910 -0.1977  0.0946
 5677TIP3    H141226   3.192   3.401   0.525  0.5474 -1.4101 -0.8059
 5677TIP3    H241227   3.253   3.512   0.607 -1.6908 -0.0546 -0.8687
 5678TIP3   OH241228   2.623   3.012   0.908 -0.4667 -0.5117 -0.4374
 5678TIP3    H141229   2.689   3.081   0.913  0.2796 -1.2688  0.7835
 5678TIP3    H241230   2.597   3.010   0.816  1.1373 -0.1261 -0.9284
 5679TIP3   OH241231   0.387   4.436   1.892 -0.0797  0.1940 -0.2688
 5679TIP3    H141232   0.386   4.409   1.983 -0.6949  0.6769 -0.1267
 5679TIP3    H241233   0.435   4.366   1.847  0.1375 -0.0970  0.4000
 5680TIP3   OH241234   4.574   3.222   2.772  0.2725 -0.0624 -0.1847
 5680TIP3    H141235   4.638   3.214   2.702 -0.0686 -0.5450 -0.4518
 5680TIP3    H241236   4.517   3.145   2.761  0.0517  0.0032  0.4503
 5681TIP3   OH241237   3.852   5.092   2.465  0.0818 -0.6674 -0.3786
 5681TIP3    H141238   3.901   5.029   2.413 -1.1799 -1.1859 -0.9985
 5681TIP3    H241239   3.804   5.144   2.399  1.7676  1.5835  0.0333
 5682TIP3   OH241240   3.897   0.681   3.558 -0.4980 -0.1252 -0.2225
 5682TIP3    H141241   3.930   0.761   3.518  0.0100 -0.3109 -0.1743
 5682TIP3    H241242   3.802   0.688   3.550 -0.4151  0.0201 -1.1048
 5683TIP3   OH241243   0.662   0.050   0.519  0.4185 -0.0636 -0.1425
 5683TIP3    H141244   0.567   0.061   0.510  0.3398  1.0240  1.5808
 5683TIP3    H241245   0.695   0.139   0.535  1.5659 -0.5971  0.5517
 5684TIP3   OH241246   0.956   5.390   1.888 -0.1555 -0.4554  0.5039
 5684TIP3    H141247   1.024   5.452   1.860  1.0561 -1.1202  1.8542
 5684TIP3    H241248   0.990   5.304   1.862 -1.8805 -0.6156 -1.4840
 5685TIP3   OH241249   2.486   4.564   0.571 -0.0813  0.1252  0.0614
 5685TIP3    H141250   2.398   4.555   0.534  0.0089  1.1368 -0.4248
 5685TIP3    H241251   2.535   4.492   0.533 -0.0013  1.1132 -1.8145
 5686TIP3   OH241252   4.401   1.676   2.213  0.2884  0.0769  0.4992
 5686TIP3    H141253   4.406   1.759   2.260  0.7158  1.3859 -1.7019
 5686TIP3    H241254   4.368   1.700   2.126 -3.0005 -2.5586  0.8349
 5687TIP3   OH241255   5.848   6.592   1.664  0.4785 -0.1148 -0.1541
 5687TIP3    H141256   5.874   6.617   1.752  0.6774  0.2472 -0.3153
 5687TIP3    H241257   5.809   6.505   1.675 -0.6560  0.4612  0.4677
 5688TIP3   OH241258   0.711   4.709   2.080 -0.7897 -0.1200  0.8660
 5688TIP3    H141259   0.720   4.713   1.985  1.2893 -0.6065  1.0073
 5688TIP3    H241260   0.726   4.799   2.109  0.5237 -0.3131  0.8432
 5689TIP3   OH241261   0.436   1.673   1.695 -0.0708 -0.4080 -0.1393
 5689TIP3    H141262   0.371   1.607   1.669 -1.0230  0.9215 -1.2920
 5689TIP3    H241263   0.518   1.643   1.656 -0.1059 -1.7283  0.7233
 5690TIP3   OH241264   3.307   4.323   2.260  0.1192 -0.2262  0.1663
 5690TIP3    H141265   3.355   4.378   2.199  0.5881 -1.7675 -0.9277
 5690TIP3    H241266   3.294   4.378   2.337  0.8115  1.2887 -0.7497
 5691TIP3   OH241267   1.762   4.683   0.528 -0.0539  0.8257  0.2859
 5691TIP3    H141268   1.798   4.641   0.605  0.1027  3.4306  1.7320
 5691TIP3    H241269   1.668   4.690   0.547 -0.1202  0.9132 -0.0688
 5692TIP3   OH241270   5.717   5.960   2.931 -0.0939  0.0092 -0.8818
 5692TIP3    H141271   5.754   5.879   2.965  0.2514  0.5429  0.0694
 5692TIP3    H241272   5.632   5.967   2.974 -0.3406 -0.0983 -1.3484
 5693TIP3   OH241273   0.282   0.776   0.935 -0.2836  0.3698  0.0667
 5693TIP3    H141274   0.297   0.801   0.844 -1.7879  1.3836  0.0426
 5693TIP3    H241275   0.343   0.704   0.951 -0.4242 -0.2723 -1.9310
 5694TIP3   OH241276   4.537   3.871   3.163 -0.0569 -0.4331  0.2086
 5694TIP3    H141277   4.459   3.917   3.131 -1.0419 -0.6458  2.1720
 5694TIP3    H241278   4.506   3.820   3.238  2.0025 -0.3247  1.2026
 5695TIP3   OH241279   7.316   4.275   1.394 -0.3862 -0.0204  0.3769
 5695TIP3    H141280   7.316   4.214   1.320  0.5231  0.8148 -0.3288
 5695TIP3    H241281   7.407   4.279   1.422 -0.5123  0.6816  0.6949
 5696TIP3   OH241282   6.967   6.435   3.511  0.3356 -0.2463 -0.6892
 5696TIP3    H141283   6.993   6.343   3.514  0.6638 -0.1445 -0.3693
 5696TIP3    H241284   7.023   6.474   3.444 -0.1133 -0.3713 -1.1465
 5697TIP3   OH241285   0.431   5.582   2.976 -0.4635  0.0254 -0.2194
 5697TIP3    H141286   0.391   5.510   3.025 -0.6961  0.5100  0.3125
 5697TIP3    H241287   0.520   5.588   3.012 -0.1182 -0.6148 -0.9355
 5698TIP3   OH241288   5.379   4.963   2.382 -0.5793  0.4705 -0.3133
 5698TIP3    H141289   5.419   5.001   2.460  0.7369 -0.3086 -0.5782
 5698TIP3    H241290   5.298   5.013   2.370 -0.6747  0.7868  1.3774
 5699TIP3   OH241291   2.051   7.054   1.870 -0.0148 -0.4835 -0.3543
 5699TIP3    H141292   2.111   7.064   1.796  0.4573 -1.6406 -0.1609
 5699TIP3    H241293   1.973   7.102   1.844  0.3561 -0.3943 -1.3629
 5700TIP3   OH241294   1.189   3.090   0.418  0.0651 -0.1637 -0.4642
 5700TIP3    H141295   1.200   3.042   0.499 -1.5059  1.4888  0.8179
 5700TIP3    H241296   1.277   3.117   0.393  0.3847  2.5915  2.8929
 5701TIP3   OH241297   1.335   2.060   1.436  0.3820  0.5108 -0.4464
 5701TIP3    H141298   1.378   2.071   1.521  0.9293  0.6118 -0.7326
 5701TIP3    H241299   1.376   1.981   1.400  0.5465  0.7851 -0.8560
 5702TIP3   OH241300   3.693   7.061   0.452  0.3116  0.2383  0.4657
 5702TIP3    H141301   3.684   7.054   0.547 -0.7089  1.1381  0.4514
 5702TIP3    H241302   3.603   7.067   0.419  0.6867  1.6750 -0.3956
 5703TIP3   OH241303   2.587   2.551   2.143 -0.1908  0.4740 -0.0685
 5703TIP3    H141304   2.660   2.518   2.091  1.1655  0.8718  1.4744
 5703TIP3    H241305   2.528   2.592   2.079 -0.0659 -1.5680 -1.5684
 5704TIP3   OH241306   1.428   7.440   1.439  1.0322 -0.0137 -0.2208
 5704TIP3    H141307   1.460   7.529   1.423 -0.4993  0.5402 -0.3691
 5704TIP3    H241308   1.341   7.439   1.400 -0.2583 -0.6289  2.4482
 5705TIP3   OH241309   3.610   7.545   2.352  0.1220 -0.5911  0.4419
 5705TIP3    H141310   3.573   7.513   2.269 -0.4830 -1.2067  0.9392
 5705TIP3    H241311   3.553   7.617   2.377 -0.3375 -1.0881  0.8521
 5706TIP3   OH241312   3.422   4.064   1.831  0.0916 -0.0104  0.0230
 5706TIP3    H141313   3.430   4.070   1.926  0.0847 -1.9772  0.1887
 5706TIP3    H241314   3.334   4.032   1.816  0.4653 -0.7957 -0.5782
 5707TIP3   OH241315   2.187   5.363   1.906 -0.5989  0.1928 -0.0980
 5707TIP3    H141316   2.262   5.327   1.858 -0.5649  0.0708  0.0487
 5707TIP3    H241317   2.225   5.427   1.965 -0.5673 -0.1663  0.2711
 5708TIP3   OH241318   4.210   3.501   2.111 -0.4492 -0.1205 -0.8185
 5708TIP3    H141319   4.215   3.419   2.160 -1.9152  0.2113 -0.0366
 5708TIP3    H241320   4.294   3.544   2.128  0.5300 -1.6490 -1.6464
 5709TIP3   OH241321   5.800   5.793   1.082  0.3163 -0.3676 -0.2423
 5709TIP3    H141322   5.895   5.793   1.096  0.3761 -0.2869 -0.6551
 5709TIP3    H241323   5.765   5.744   1.157  0.5157  1.3331  1.0263
 5710TIP3   OH241324   1.241   5.060   2.111 -0.2979  0.9280 -0.6310
 5710TIP3    H141325   1.239   5.097   2.023 -0.0075  1.2592 -0.4998
 5710TIP3    H241326   1.325   5.013   2.116 -0.2743  0.9824 -0.5037
 5711TIP3   OH241327   2.789   2.031   2.477 -0.1209  0.3667 -0.0314
 5711TIP3    H141328   2.757   1.944   2.456 -2.3917  0.9450  0.6939
 5711TIP3    H241329   2.798   2.031   2.572 -3.9064  1.9307  0.5171
 5712TIP3   OH241330   4.442   1.662   1.918 -0.8114  0.4485  0.0478
 5712TIP3    H141331   4.505   1.720   1.874  0.4573  0.0374  1.2683
 5712TIP3    H241332   4.469   1.574   1.893 -1.9057  0.3048 -0.6981
 5713TIP3   OH241333   6.990   4.404   0.423  0.1979  0.0455 -0.1128
 5713TIP3    H141334   7.080   4.370   0.422 -0.4947 -1.8858  0.1849
 5713TIP3    H241335   6.936   4.331   0.394 -1.3856  0.9239  0.4881
 5714TIP3   OH241336   3.699   3.292   0.724  0.0025 -0.1189 -0.6899
 5714TIP3    H141337   3.763   3.363   0.719 -1.9072  1.6346 -2.3271
 5714TIP3    H241338   3.618   3.335   0.751 -1.3838 -1.5463 -2.3682
 5715TIP3   OH241339   4.301   7.507   0.801  0.4351 -0.1186  0.1221
 5715TIP3    H141340   4.314   7.578   0.738  0.0624 -0.4496 -0.3429
 5715TIP3    H241341   4.255   7.440   0.751 -0.3567 -0.1715  0.9029
 5716TIP3   OH241342   6.311   0.880   0.319  0.1475  0.2581 -0.3763
 5716TIP3    H141343   6.272   0.918   0.240  0.8393  0.4684 -0.6316
 5716TIP3    H241344   6.238   0.842   0.367 -0.5569  1.7147 -0.2232
 5717TIP3   OH241345   3.926   7.381   2.172 -0.4758  0.2541  0.1807
 5717TIP3    H141346   3.982   7.457   2.158 -0.8928  0.3261 -1.2586
 5717TIP3    H241347   3.979   7.322   2.225  0.1790  1.1738  0.5788
 5718TIP3   OH241348   3.217   3.890   0.859 -0.0360 -0.1394  0.2322
 5718TIP3    H141349   3.160   3.847   0.923  1.9891 -1.9990  0.9027
 5718TIP3    H241350   3.292   3.921   0.909  0.1966  1.0884 -0.8175
 5719TIP3   OH241351   2.783   2.725   0.544 -0.2672 -0.4576  0.3629
 5719TIP3    H141352   2.848   2.699   0.478  1.3730 -1.3965  2.2452
 5719TIP3    H241353   2.823   2.799   0.589 -0.4714 -1.0727  1.5782
 5720TIP3   OH241354   3.651   2.190   0.631 -0.4419 -0.0230  0.1617
 5720TIP3    H141355   3.621   2.109   0.589 -2.4898  0.5353  0.4461
 5720TIP3    H241356   3.621   2.182   0.721 -1.1436  1.2559  0.0660
 5721TIP3   OH241357   0.595   0.091   1.522  0.1744  0.6562  0.3525
 5721TIP3    H141358   0.516   0.059   1.566  0.4666 -0.4578  0.1009
 5721TIP3    H241359   0.667   0.043   1.563  0.3011 -2.1619 -2.7620
 5722TIP3   OH241360   0.663   7.067   1.450  0.3362 -0.4613 -0.1694
 5722TIP3    H141361   0.701   7.155   1.451  0.2385 -0.4099  0.8963
 5722TIP3    H241362   0.586   7.075   1.394 -0.3995  0.4687  0.9150
 5723TIP3   OH241363   0.733   2.517   1.663 -0.1275  0.4001 -0.0620
 5723TIP3    H141364   0.783   2.556   1.592 -0.6345  1.6022  0.2094
 5723TIP3    H241365   0.788   2.527   1.741  0.3020 -0.6489 -0.2131
 5724TIP3   OH241366   5.446   0.389   3.577  0.3187 -1.1148  0.2457
 5724TIP3    H141367   5.435   0.323   3.508 -0.6165 -0.7651  0.0467
 5724TIP3    H241368   5.372   0.448   3.565  1.9788  0.9231 -0.5923
 5725TIP3   OH241369   2.395   1.879   0.823  0.0361 -0.3411 -0.1988
 5725TIP3    H141370   2.474   1.826   0.814 -0.1411 -0.5497 -0.5510
 5725TIP3    H241371   2.391   1.931   0.743  1.2020  1.6000  0.9420
 5726TIP3   OH241372   6.833   0.377   1.462  0.0320  0.1490  0.0421
 5726TIP3    H141373   6.768   0.443   1.440  0.0131  0.0524 -0.1956
 5726TIP3    H241374   6.848   0.388   1.556 -1.1659 -0.5636  0.3515
 5727TIP3   OH241375   1.998   0.941   2.016  0.0927 -0.0723  0.1581
 5727TIP3    H141376   2.044   0.898   2.088  0.4215 -0.3151 -0.1922
 5727TIP3    H241377   2.067   0.980   1.962 -0.1318 -0.1098 -0.1615
 5728TIP3   OH241378   0.243   7.079   2.261  0.3747  0.3844 -0.3268
 5728TIP3    H141379   0.207   7.130   2.189 -0.2614 -0.2470 -0.4714
 5728TIP3    H241380   0.327   7.121   2.282 -0.8096  2.4464  0.6011
 5729TIP3   OH241381   3.114   3.199   2.148 -0.2286  0.2311  0.0948
 5729TIP3    H141382   3.187   3.224   2.091  0.0999 -0.0465  0.3842
 5729TIP3    H241383   3.118   3.103   2.151  0.6181  0.2719  1.6700
 5730TIP3   OH241384   7.506   1.616   3.091 -0.1889 -0.4828 -0.2424
 5730TIP3    H141385   7.526   1.523   3.080 -0.2119 -0.4534 -0.5532
 5730TIP3    H241386   7.581   1.661   3.053 -0.7664 -0.3751 -1.2890
 5731TIP3   OH241387   7.063   5.292   1.325 -0.1529 -0.0689 -0.6131
 5731TIP3    H141388   7.158   5.297   1.312 -0.2757 -0.2675 -1.6742
 5731TIP3    H241389   7.046   5.202   1.353 -0.1096 -0.2551 -1.1825
 5732TIP3   OH241390   0.095   6.553   0.453  0.4266  0.6177 -0.2144
 5732TIP3    H141391   0.070   6.489   0.520 -0.5220 -0.0036 -1.1418
 5732TIP3    H241392   0.106   6.635   0.501  0.9093 -0.0638  0.8795
 5733TIP3   OH241393   6.629   4.612   0.688 -0.3582  0.2442  0.6121
 5733TIP3    H141394   6.647   4.521   0.664 -1.4018  0.7580 -2.5459
 5733TIP3    H241395   6.534   4.622   0.678 -0.0356  2.1631 -1.2293
 5734TIP3   OH241396   5.610   0.965   2.927  0.0929 -0.4468 -0.4886
 5734TIP3    H141397   5.533   0.908   2.926 -0.3851  0.1310  0.6265
 5734TIP3    H241398   5.658   0.939   3.006  0.1442  0.3193 -0.2571
 5735TIP3   OH241399   6.236   2.163   2.979 -0.6658  0.0622  0.4367
 5735TIP3    H141400   6.208   2.161   2.887 -0.4657 -0.4536  0.3803
 5735TIP3    H241401   6.331   2.158   2.975 -0.6874 -0.7327  0.6859
 5736TIP3   OH241402   2.947   2.789   2.448  0.5351 -0.2636  0.4323
 5736TIP3    H141403   2.886   2.758   2.381 -0.2556  2.9717 -0.5708
 5736TIP3    H241404   3.033   2.784   2.406  0.1887  0.6062 -0.4404
 5737TIP3   OH241405   5.516   6.674   0.849  0.7702 -0.6549 -0.0108
 5737TIP3    H141406   5.517   6.629   0.764  0.8995  0.5223 -0.6514
 5737TIP3    H241407   5.441   6.637   0.895  0.2463 -0.7653 -0.9390
 5738TIP3   OH241408   1.800   4.324   0.385 -0.3281 -0.7650  0.0626
 5738TIP3    H141409   1.836   4.392   0.329 -1.5254  0.3729  0.6321
 5738TIP3    H241410   1.756   4.371   0.455 -0.9634 -2.1357  0.6234
 5739TIP3   OH241411   7.481   7.384   1.625  0.2264  0.3347 -0.4854
 5739TIP3    H141412   7.418   7.320   1.658  0.6378  0.2834  0.2232
 5739TIP3    H241413   7.550   7.331   1.584 -0.2243  0.3936 -1.3408
 5740TIP3   OH241414   3.051   6.360   1.697 -0.6303 -0.0599 -0.4394
 5740TIP3    H141415   3.032   6.267   1.691 -1.6035  0.1463 -0.7106
 5740TIP3    H241416   3.146   6.365   1.706 -0.6998 -1.1640  1.4263
 5741TIP3   OH241417   1.649   1.933   2.303  0.4057 -0.6365 -0.1902
 5741TIP3    H141418   1.623   1.906   2.216 -0.5129 -2.6890  0.6671
 5741TIP3    H241419   1.587   2.003   2.326 -0.8211 -1.6583 -0.3185
 5742TIP3   OH241420   3.391   1.624   2.582 -0.2557  0.5275  0.1718
 5742TIP3    H141421   3.480   1.589   2.584 -0.7592 -0.9336 -1.1256
 5742TIP3    H241422   3.389   1.689   2.652  1.4202 -0.4004  1.1322
 5743TIP3   OH241423   1.410   0.371   9.213 -0.3118  0.0276  0.3190
 5743TIP3    H141424   1.415   0.418   9.296  0.8669 -0.5391  0.5855
 5743TIP3    H241425   1.393   0.439   9.148  2.2437  1.0037  0.5695
 5744TIP3   OH241426   0.815   3.673   2.202  0.0238 -0.3910 -0.1256
 5744TIP3    H141427   0.793   3.765   2.217  1.0324 -0.1836  0.1180
 5744TIP3    H241428   0.869   3.648   2.277  1.2711 -0.6575 -1.0895
 5745TIP3   OH241429   6.843   2.749   2.835  0.2598  0.1775  0.0153
 5745TIP3    H141430   6.819   2.783   2.921  0.2200  1.0384 -0.3280
 5745TIP3    H241431   6.798   2.806   2.773  0.1753 -0.5248 -0.5785
 5746TIP3   OH241432   1.951   2.448   2.066  0.1987 -0.3503  0.0358
 5746TIP3    H141433   1.881   2.388   2.039  1.2126 -1.6939  0.2973
 5746TIP3    H241434   1.909   2.534   2.068 -1.2638 -1.0162 -0.5014
 5747TIP3   OH241435   1.816   3.348   0.396 -0.3183 -0.0695 -0.7892
 5747TIP3    H141436   1.809   3.442   0.382  1.3063  0.2371  0.1294
 5747TIP3    H241437   1.731   3.313   0.371 -0.1919  1.3136 -3.5972
 5748TIP3   OH241438   6.349   1.039   2.078  0.3004 -0.2823  0.3303
 5748TIP3    H141439   6.302   0.979   2.135  1.3161 -0.9699  0.4626
 5748TIP3    H241440   6.320   1.126   2.106  0.7565 -0.6001  1.8743
 5749TIP3   OH241441   6.352   4.927   0.682 -0.1194 -0.2158 -0.5902
 5749TIP3    H141442   6.310   4.965   0.760  1.2696  0.1824  0.0071
 5749TIP3    H241443   6.325   4.984   0.610 -0.2014  0.3189 -0.1434
 5750TIP3   OH241444   4.461   1.446   0.955 -0.5062 -0.0759 -0.4314
 5750TIP3    H141445   4.485   1.394   1.032  1.8328 -1.2866 -1.8450
 5750TIP3    H241446   4.417   1.384   0.897 -0.8858  0.4266 -0.6863
 5751TIP3   OH241447   4.810   3.662   1.045  0.0189 -0.0429 -0.2754
 5751TIP3    H141448   4.754   3.739   1.049  0.1701  0.2322 -2.5650
 5751TIP3    H241449   4.825   3.639   1.137 -1.6525  1.4424  0.4272
 5752TIP3   OH241450   5.244   1.472   0.606 -0.3693 -0.0332 -0.3526
 5752TIP3    H141451   5.189   1.394   0.606  2.7680 -2.4744  1.0505
 5752TIP3    H241452   5.317   1.449   0.548  0.8286  1.7111  0.3926
 5753TIP3   OH241453   1.462   3.944   1.471 -0.1238  0.0851 -0.6984
 5753TIP3    H141454   1.527   3.986   1.528 -1.5835  2.0990 -0.4120
 5753TIP3    H241455   1.504   3.864   1.442  1.5108  0.0617  1.4980
 5754TIP3   OH241456   0.745   3.929   2.255  0.1923 -0.2921 -0.1029
 5754TIP3    H141457   0.743   4.018   2.219  2.6775 -0.1528 -0.1207
 5754TIP3    H241458   0.805   3.935   2.329  0.1854 -1.8905  0.0679
 5755TIP3   OH241459   5.854   3.300   0.697  0.5362  0.6457  0.4979
 5755TIP3    H141460   5.887   3.235   0.758 -1.6218 -0.7557  0.2882
 5755TIP3    H241461   5.923   3.310   0.631  2.6203  1.6862  2.6904
 5756TIP3   OH241462   2.449   3.790   1.642 -0.0565 -0.7280 -0.2081
 5756TIP3    H141463   2.394   3.856   1.683  1.0169  0.6505 -0.9028
 5756TIP3    H241464   2.529   3.788   1.695  1.1609  0.7502 -1.8714
 5757TIP3   OH241465   5.350   3.570   2.191 -0.4040 -0.0214 -0.1369
 5757TIP3    H141466   5.325   3.530   2.274 -1.0280 -1.3535 -0.9262
 5757TIP3    H241467   5.417   3.512   2.155 -0.9311 -0.0781 -1.0623
 5758TIP3   OH241468   1.782   0.130   2.185 -0.1471 -0.4619  0.1991
 5758TIP3    H141469   1.769   0.144   2.092  1.0141  0.7231  0.1865
 5758TIP3    H241470   1.870   0.092   2.191  0.1580  0.3219  0.8555
 5759TIP3   OH241471   0.722   2.778   2.459 -0.2097 -0.2913 -0.1603
 5759TIP3    H141472   0.762   2.694   2.481  2.2334  0.4566 -1.3189
 5759TIP3    H241473   0.677   2.762   2.376 -0.2467 -0.5922 -0.0825
 5760TIP3   OH241474   4.732   5.593   0.867 -0.3235 -0.9452  0.5731
 5760TIP3    H141475   4.707   5.512   0.822  0.7598 -0.1301 -1.6290
 5760TIP3    H241476   4.659   5.653   0.851  0.4265 -0.3882 -0.8945
 5761TIP3   OH241477   5.425   1.637   2.379  0.2301  0.4313  0.2765
 5761TIP3    H141478   5.395   1.546   2.381 -2.5560  1.2666  0.4781
 5761TIP3    H241479   5.417   1.663   2.287  2.4482  0.1279 -0.0732
 5762TIP3   OH241480   5.542   0.542   2.038 -0.3525 -0.8167 -0.0571
 5762TIP3    H141481   5.464   0.569   1.989 -0.3271  0.9840  0.8118
 5762TIP3    H241482   5.614   0.547   1.974 -0.2660  1.7847  0.1303
 5763TIP3   OH241483   5.215   6.089   1.883  0.4729  0.3395  0.3311
 5763TIP3    H141484   5.158   6.164   1.899  1.1571  0.9418  0.0267
 5763TIP3    H241485   5.189   6.056   1.797  0.6599  0.6884  0.1386
 5764TIP3   OH241486   0.077   4.952   1.735 -0.4715 -0.1386 -0.3147
 5764TIP3    H141487   0.137   5.026   1.745 -1.8453  0.9872 -0.1185
 5764TIP3    H241488   0.121   4.880   1.781 -0.8944  1.5944  3.1429
 5765TIP3   OH241489   6.234   1.841   3.194  0.2867 -0.8136  0.0014
 5765TIP3    H141490   6.306   1.860   3.133 -0.1253  1.4803  0.1131
 5765TIP3    H241491   6.221   1.747   3.188  2.5007 -1.1128 -0.9184
 5766TIP3   OH241492   2.697   1.849   0.762  0.4729 -0.5781 -0.0859
 5766TIP3    H141493   2.768   1.789   0.787  1.3832  1.3065  2.2727
 5766TIP3    H241494   2.736   1.906   0.696  1.4842  0.8537  1.6517
 5767TIP3   OH241495   4.012   1.700   0.886  0.3057  0.3414  0.4498
 5767TIP3    H141496   4.050   1.685   0.973 -0.5030  0.7497  0.8837
 5767TIP3    H241497   3.963   1.782   0.895  0.7965  0.7575 -0.5932
 5768TIP3   OH241498   1.606   2.717   2.306  0.1897  0.3845  0.0961
 5768TIP3    H141499   1.655   2.646   2.265 -0.2671 -0.0530  0.2946
 5768TIP3    H241500   1.555   2.756   2.235  0.2582  0.3589  0.0337
 5769TIP3   OH241501   5.337   6.295   0.568 -0.0710  0.3872 -0.0098
 5769TIP3    H141502   5.374   6.207   0.558  0.6047  0.1860  3.1788
 5769TIP3    H241503   5.256   6.293   0.517  0.7805 -1.4807 -1.4116
 5770TIP3   OH241504   7.283   6.499   0.552 -0.3426 -0.6434  0.4868
 5770TIP3    H141505   7.319   6.412   0.533 -1.5074 -0.6665 -1.9062
 5770TIP3    H241506   7.194   6.481   0.584 -0.5166 -0.3446  0.1726
 5771TIP3   OH241507   6.040   1.664   2.658 -0.2140  0.5149 -0.0419
 5771TIP3    H141508   6.067   1.572   2.663  0.3369  0.6661 -0.1664
 5771TIP3    H241509   5.954   1.666   2.700  0.2302  0.1281  0.9143
 5772TIP3   OH241510   6.174   2.885   0.904  0.1541 -0.1241  0.1685
 5772TIP3    H141511   6.200   2.793   0.903  0.1090 -0.1374  0.2290
 5772TIP3    H241512   6.154   2.905   0.812  0.4542 -0.0906  0.1115
 5773TIP3   OH241513   5.742   6.653   2.424  0.2587 -0.2996  0.6789
 5773TIP3    H141514   5.688   6.626   2.499 -0.7979 -0.3119 -0.0562
 5773TIP3    H241515   5.800   6.720   2.459  2.3348 -2.7727  2.3553
 5774TIP3   OH241516   0.074   3.537   2.554 -0.0820 -0.2701  0.1567
 5774TIP3    H141517   0.033   3.506   2.635 -1.0630 -1.9050 -0.9083
 5774TIP3    H241518   0.093   3.629   2.571 -2.6444  0.1467  1.3489
 5775TIP3   OH241519   6.906   1.167   1.395 -0.7030 -0.0053  0.2629
 5775TIP3    H141520   6.925   1.086   1.348  1.2465 -0.8210  2.3093
 5775TIP3    H241521   6.870   1.138   1.479 -2.2506  1.3534  0.1216
 5776TIP3   OH241522   0.314   4.149   2.833 -0.2612  0.1817  0.4352
 5776TIP3    H141523   0.297   4.225   2.777 -0.5306 -0.5970 -0.5636
 5776TIP3    H241524   0.278   4.174   2.918  0.5612  1.5678  0.4279
 5777TIP3   OH241525   3.364   0.539   0.387 -0.9168 -0.2427  0.1533
 5777TIP3    H141526   3.351   0.629   0.419  0.6727 -0.4868  1.6917
 5777TIP3    H241527   3.278   0.510   0.359 -1.7838  1.2036  1.1857
 5778TIP3   OH241528   6.909   5.043   2.912 -0.0990 -0.1977 -0.1513
 5778TIP3    H141529   6.972   5.097   2.960  0.7784 -0.3282 -1.0975
 5778TIP3    H241530   6.963   4.982   2.862 -0.9295  0.1043 -1.4957
 5779TIP3   OH241531   2.756   0.535   3.003  0.1745  0.0008  0.2221
 5779TIP3    H141532   2.792   0.624   3.009  1.6908 -0.4818 -0.9553
 5779TIP3    H241533   2.746   0.519   2.909 -2.1077 -0.3490  0.4612
 5780TIP3   OH241534   3.293   5.372   3.273  0.0468 -0.1050  0.1321
 5780TIP3    H141535   3.230   5.444   3.263 -0.1214  0.3849  3.5242
 5780TIP3    H241536   3.378   5.415   3.276  0.2914 -0.4500 -1.1029
 5781TIP3   OH241537   0.707   5.750   0.337 -0.5217 -0.2107  0.5998
 5781TIP3    H141538   0.687   5.787   0.251 -1.0673 -1.3449  0.2096
 5781TIP3    H241539   0.630   5.770   0.390 -0.9435 -0.9824  0.3054
 5782TIP3   OH241540   1.605   1.080   2.439  0.1573 -0.0545  0.1128
 5782TIP3    H141541   1.662   1.010   2.471  0.0655 -0.3507 -0.3651
 5782TIP3    H241542   1.516   1.049   2.458  0.1351  0.2530  0.5429
 5783TIP3   OH241543   3.919   5.829   1.177  0.0935 -0.6737 -0.5332
 5783TIP3    H141544   3.929   5.753   1.235 -1.0197  0.1235  0.7856
 5783TIP3    H241545   3.824   5.840   1.169  0.2015  1.0916  0.0772
 5784TIP3   OH241546   4.483   0.777   1.150  0.0572 -0.1028 -0.4679
 5784TIP3    H141547   4.484   0.748   1.059  0.1963 -1.1354 -0.1539
 5784TIP3    H241548   4.487   0.696   1.201  1.2412  0.4927  0.4491
 5785TIP3   OH241549   5.887   3.259   1.474 -0.3064  0.1146 -0.0229
 5785TIP3    H141550   5.808   3.288   1.427 -0.3092 -1.5841 -1.1410
 5785TIP3    H241551   5.854   3.209   1.548 -0.2824  0.5624  0.2919
 5786TIP3   OH241552   6.741   3.404   0.485  0.5679  0.2058  0.0941
 5786TIP3    H141553   6.654   3.418   0.524  0.0812 -1.7174 -0.1576
 5786TIP3    H241554   6.733   3.320   0.440  1.7946  1.2338 -2.2230
 5787TIP3   OH241555   2.083   1.892   1.317  0.1600 -0.2717  0.0427
 5787TIP3    H141556   2.098   1.862   1.228  0.9552 -0.5505  0.2595
 5787TIP3    H241557   2.064   1.813   1.367  0.2788 -0.1847  0.2285
 5788TIP3   OH241558   3.819   1.042   3.173  0.7945 -0.5030  0.6650
 5788TIP3    H141559   3.744   1.096   3.198  0.0147 -1.6102  0.8008
 5788TIP3    H241560   3.891   1.104   3.165 -0.1822  0.6370  0.2821
 5789TIP3   OH241561   2.275   1.323   2.154  0.1752  0.1058 -0.1656
 5789TIP3    H141562   2.244   1.411   2.174 -1.2428  0.1693 -2.2241
 5789TIP3    H241563   2.197   1.268   2.164  0.7252 -0.6809 -0.1546
 5790TIP3   OH241564   1.681   7.251   2.328  0.0810  0.1896  0.1655
 5790TIP3    H141565   1.775   7.235   2.316  0.1137 -1.3441  1.9645
 5790TIP3    H241566   1.674   7.343   2.350  1.4606 -0.1255  2.1787
 5791TIP3   OH241567   2.869   5.384   0.487  0.3306 -0.1830 -0.1003
 5791TIP3    H141568   2.926   5.333   0.429 -0.1676  0.1590 -0.9095
 5791TIP3    H241569   2.783   5.379   0.446  0.3273  1.5931 -0.4123
 5792TIP3   OH241570   1.448   1.071   0.972 -0.3338 -0.1624 -0.5029
 5792TIP3    H141571   1.380   1.011   0.941 -1.0537  0.7364 -0.6773
 5792TIP3    H241572   1.454   1.053   1.066 -0.4097 -0.6436 -0.5868
 5793TIP3   OH241573   6.648   2.524   2.255 -0.5256 -0.2019 -0.3305
 5793TIP3    H141574   6.637   2.451   2.194 -0.6523 -0.1296 -0.3953
 5793TIP3    H241575   6.578   2.514   2.319  0.4352 -1.0787  0.6307
 5794TIP3   OH241576   2.455   1.147   0.692 -0.7748  0.2076 -0.1989
 5794TIP3    H141577   2.506   1.068   0.710  0.3301  0.9291 -0.0249
 5794TIP3    H241578   2.364   1.119   0.698 -0.4085 -1.0123  0.0079
 5795TIP3   OH241579   7.007   0.654   2.866  0.9118  0.0637 -0.4599
 5795TIP3    H141580   7.091   0.674   2.824  0.8065  1.3103 -0.1143
 5795TIP3    H241581   6.959   0.737   2.864 -0.2155 -0.5776 -0.4302
 5796TIP3   OH241582   1.148   1.440   1.190  0.1900  0.1340 -0.2351
 5796TIP3    H141583   1.158   1.508   1.123 -0.5789 -0.8975 -1.4361
 5796TIP3    H241584   1.078   1.473   1.246  0.2072  0.5907 -0.4696
 5797TIP3   OH241585   5.162   1.969   2.098 -0.2604  0.0054  0.6193
 5797TIP3    H141586   5.200   1.967   2.010  0.9004  2.0245  1.0036
 5797TIP3    H241587   5.108   2.048   2.099 -2.6408 -1.5295  0.8662
 5798TIP3   OH241588   5.909   7.362   1.495  0.1075 -0.3306 -0.7627
 5798TIP3    H141589   5.993   7.386   1.535  1.0419 -1.8806 -1.6838
 5798TIP3    H241590   5.900   7.422   1.420  0.3540 -0.1058 -0.6147
 5799TIP3   OH241591   1.188   4.682   1.426  0.4802  0.3311 -0.6028
 5799TIP3    H141592   1.094   4.698   1.425  0.6473  1.5108  0.1686
 5799TIP3    H241593   1.222   4.736   1.355  0.6530  0.5175 -0.3805
 5800TIP3   OH241594   0.213   6.155   1.581  0.0519  0.4765  0.0048
 5800TIP3    H141595   0.279   6.103   1.535 -0.6055 -0.8634  0.5156
 5800TIP3    H241596   0.226   6.244   1.549  1.2877  0.0270 -0.8262
 5801TIP3   OH241597   3.639   0.592   2.219 -0.2660  0.5273 -0.4285
 5801TIP3    H141598   3.602   0.608   2.132 -0.6246 -1.2025 -0.6261
 5801TIP3    H241599   3.724   0.551   2.202  0.0002  0.8740  0.0463
 5802TIP3   OH241600   6.572   2.827   0.628  0.3661 -0.3463 -0.0829
 5802TIP3    H141601   6.517   2.901   0.602  1.0173 -0.2634 -1.2838
 5802TIP3    H241602   6.658   2.847   0.591  0.8387 -1.1625  0.5533
 5803TIP3   OH241603   3.681   0.748   2.642  0.7184  0.7188  0.4486
 5803TIP3    H141604   3.716   0.819   2.697  0.2474 -0.0064  1.7338
 5803TIP3    H241605   3.718   0.668   2.680 -0.7473  0.0879  0.6146
 5804TIP3   OH241606   7.527   3.770   2.154  0.1473  0.0115  0.7676
 5804TIP3    H141607   7.450   3.773   2.210  0.1865 -0.6473  0.8633
 5804TIP3    H241608   7.530   3.680   2.122  2.1517 -0.6418  2.5771
 5805TIP3   OH241609   6.492   2.756   0.883  0.1642 -0.1819  0.5192
 5805TIP3    H141610   6.408   2.726   0.849  0.9026 -0.4922 -1.1235
 5805TIP3    H241611   6.542   2.781   0.806  0.4331  3.2497  1.6076
 5806TIP3   OH241612   3.490   1.796   1.876 -0.4233  0.2029 -0.5408
 5806TIP3    H141613   3.437   1.797   1.796 -0.2519  2.2221 -0.6867
 5806TIP3    H241614   3.580   1.793   1.844 -0.3760 -0.2357 -0.3748
 5807TIP3   OH241615   0.617   1.441   2.825  0.6210 -0.4223 -0.5155
 5807TIP3    H141616   0.556   1.390   2.879 -0.6368  1.1355 -0.3630
 5807TIP3    H241617   0.602   1.532   2.852  0.9021  0.2885 -2.5465
 5808TIP3   OH241618   1.773   4.612   2.556 -0.3491  0.0862  0.1794
 5808TIP3    H141619   1.801   4.567   2.636 -1.6081  0.0200  0.6118
 5808TIP3    H241620   1.785   4.547   2.487 -2.2294 -1.0192  0.8084
 5809TIP3   OH241621   1.998   0.017   1.574 -0.4226  0.8264  0.5073
 5809TIP3    H141622   2.049   0.097   1.563  0.1087  0.4525  0.1862
 5809TIP3    H241623   1.941   0.014   1.497  0.6061  0.1537 -0.2618
 5810TIP3   OH241624   7.276   0.983   2.900  0.3030  0.0821  0.1210
 5810TIP3    H141625   7.362   1.005   2.864  0.4848 -0.2231  0.3518
 5810TIP3    H241626   7.217   1.049   2.865  1.0578  1.8235  1.8666
 5811TIP3   OH241627   3.753   0.782   3.258  0.2179  0.2744  0.1424
 5811TIP3    H141628   3.780   0.849   3.196  0.5312  1.0927  1.1312
 5811TIP3    H241629   3.782   0.815   3.343  0.9717 -1.4166  0.5924
 5812TIP3   OH241630   5.350   3.346   1.572  0.3509 -0.1078  0.7409
 5812TIP3    H141631   5.264   3.370   1.535  0.1571  0.1951  1.3808
 5812TIP3    H241632   5.373   3.266   1.526  0.9321  1.1641 -1.3144
 5813TIP3   OH241633   7.197   4.201   1.633 -0.2166  0.2913  0.2412
 5813TIP3    H141634   7.267   4.226   1.693 -0.9768  0.1417  1.2055
 5813TIP3    H241635   7.229   4.229   1.547  0.5746  1.1598  0.7945
 5814TIP3   OH241636   1.749   5.736   3.021 -0.0467  0.5930 -0.1797
 5814TIP3    H141637   1.759   5.830   3.036  1.9227  0.1745  1.6885
 5814TIP3    H241638   1.821   5.714   2.961  0.4516  0.0785  0.5805
 5815TIP3   OH241639   6.978   3.437   2.623 -0.6469  0.0038  0.4768
 5815TIP3    H141640   6.891   3.402   2.641 -1.4445  1.4385 -0.3638
 5815TIP3    H241641   6.983   3.517   2.676 -0.2046  0.4085 -0.1540
 5816TIP3   OH241642   5.554   0.456   3.168 -0.8929 -0.0958  0.0220
 5816TIP3    H141643   5.472   0.458   3.119 -1.4122  0.6250  0.9050
 5816TIP3    H241644   5.533   0.497   3.252  0.1112 -0.8348  0.6551
 5817TIP3   OH241645   6.099   7.467   1.686 -0.5430 -0.1191  0.6928
 5817TIP3    H141646   6.039   7.517   1.741 -0.8666  0.7798 -0.4320
 5817TIP3    H241647   6.147   7.534   1.636  0.2012 -0.8818  0.3686
 5818TIP3   OH241648   2.584   5.053   0.879 -0.5001  0.0289 -0.3429
 5818TIP3    H141649   2.610   5.062   0.787 -1.0232 -1.1210 -0.6188
 5818TIP3    H241650   2.666   5.059   0.928 -0.4356  3.2483 -0.6345
 5819TIP3   OH241651   3.416   4.915   1.751  0.0347  0.5137  0.2169
 5819TIP3    H141652   3.485   4.895   1.814  0.8199 -0.1470 -0.8226
 5819TIP3    H241653   3.449   4.882   1.667 -0.4890  2.4026 -0.7791
 5820TIP3   OH241654   1.776   6.665   2.184 -0.0965 -0.0356  0.1731
 5820TIP3    H141655   1.834   6.603   2.228  1.0749  0.9649  0.1076
 5820TIP3    H241656   1.835   6.723   2.136 -1.2239  0.3973 -0.7286
 5821TIP3   OH241657   4.083   1.174   1.277  0.3150 -0.1667 -0.6710
 5821TIP3    H141658   4.037   1.099   1.240 -1.1533  1.1587 -1.6722
 5821TIP3    H241659   4.174   1.163   1.248  0.1611 -1.5872 -0.6988
 5822TIP3   OH241660   5.870   3.675   1.901 -0.3100  0.4557  0.4769
 5822TIP3    H141661   5.899   3.734   1.832  0.4263  0.9755  1.2145
 5822TIP3    H241662   5.787   3.639   1.869 -0.2815  1.1544 -0.4028
 5823TIP3   OH241663   0.504   3.030   1.994  0.1315  0.3252  0.6101
 5823TIP3    H141664   0.577   3.011   2.054  0.9800 -0.6658 -0.6721
 5823TIP3    H241665   0.529   3.113   1.953 -0.2868  0.8329  1.3623
 5824TIP3   OH241666   1.702   3.279   1.874 -0.1691 -0.0597  0.3793
 5824TIP3    H141667   1.665   3.366   1.856 -0.7940 -0.1826  1.0405
 5824TIP3    H241668   1.665   3.254   1.959  0.9488 -0.4595  0.7678
 5825TIP3   OH241669   3.145   0.213   2.492 -0.8223 -0.1028  0.3548
 5825TIP3    H141670   3.075   0.225   2.428 -0.4269  0.5354  0.0417
 5825TIP3    H241671   3.165   0.301   2.524  0.4870 -0.1467 -0.2546
 5826TIP3   OH241672   3.040   3.299   0.497  0.6791  0.3763  0.6376
 5826TIP3    H141673   3.054   3.213   0.458  3.5618  0.4077  1.3587
 5826TIP3    H241674   2.950   3.322   0.475  0.9813 -1.1891 -2.7658
 5827TIP3   OH241675   2.821   0.682   2.163 -0.0863 -0.0228 -0.2090
 5827TIP3    H141676   2.842   0.673   2.070 -2.8173  1.0174 -1.0375
 5827TIP3    H241677   2.860   0.767   2.187 -0.8323  0.5363 -0.9073
 5828TIP3   OH241678   3.458   1.383   2.284 -0.1983 -0.1747 -0.1300
 5828TIP3    H141679   3.521   1.345   2.223  0.8889  1.9896 -0.4385
 5828TIP3    H241680   3.456   1.321   2.357  0.1574 -1.6823 -1.3453
 5829TIP3   OH241681   3.620   2.230   1.244  0.6232 -0.0381 -0.2250
 5829TIP3    H141682   3.527   2.241   1.267  0.7934 -0.7947  0.9419
 5829TIP3    H241683   3.630   2.135   1.232  1.3176  0.0080 -0.0211
 5830TIP3   OH241684   3.615   7.028   2.085  0.1923  0.6278 -0.0481
 5830TIP3    H141685   3.609   6.940   2.124  0.8771  0.4201 -0.4012
 5830TIP3    H241686   3.529   7.042   2.046 -0.0207  0.2345  0.2608
 5831TIP3   OH241687   1.899   3.460   1.040  0.8385  0.0388  0.2039
 5831TIP3    H141688   1.957   3.462   0.964  1.9600  0.1144  1.0343
 5831TIP3    H241689   1.958   3.451   1.115 -0.0945  1.7650  1.2142
 5832TIP3   OH241690   4.371   5.448   3.088  0.0258  0.3113 -0.3256
 5832TIP3    H141691   4.349   5.369   3.039  2.7156  0.4119 -1.9002
 5832TIP3    H241692   4.327   5.438   3.172 -0.8777 -2.1582 -1.0200
 5833TIP3   OH241693   7.494   4.297   0.590  0.3680  0.4059  0.4692
 5833TIP3    H141694   7.565   4.333   0.643  0.4074 -0.4269  0.9973
 5833TIP3    H241695   7.465   4.219   0.638 -0.2788  0.2115 -0.2178
 5834TIP3   OH241696   6.625   2.548   0.647  0.5110 -0.8754  0.4216
 5834TIP3    H141697   6.541   2.509   0.670 -0.1782  1.6988  2.7316
 5834TIP3    H241698   6.606   2.641   0.633  2.5300 -0.7041 -2.0333
 5835TIP3   OH241699   1.823   2.721   1.986  0.4899  0.0500 -0.2598
 5835TIP3    H141700   1.763   2.796   1.986 -0.5884 -0.7786 -0.8122
 5835TIP3    H241701   1.815   2.685   1.897  1.3687 -0.4201 -0.1521
 5836TIP3   OH241702   5.133   2.372   2.573  0.3193  0.1912  0.2099
 5836TIP3    H141703   5.160   2.398   2.485  0.3418 -0.2590  0.0778
 5836TIP3    H241704   5.189   2.422   2.632  0.0045  0.8232 -0.0197
 5837TIP3   OH241705   2.950   5.462   1.429  0.8058  0.4560  0.1441
 5837TIP3    H141706   2.972   5.401   1.358 -0.7090 -0.3442  0.3266
 5837TIP3    H241707   2.904   5.408   1.493  0.4660  1.5704  0.8528
 5838TIP3   OH241708   0.384   0.005   1.119  0.1500 -0.4217 -0.3971
 5838TIP3    H141709   0.340   0.037   1.041 -0.4252  0.9968  0.4627
 5838TIP3    H241710   0.392  -0.090   1.106 -1.0911 -0.3855 -1.5901
 5839TIP3   OH241711   3.326   6.295   1.669  0.0340 -0.1922 -0.1044
 5839TIP3    H141712   3.347   6.206   1.695 -1.2446 -0.0937  1.4076
 5839TIP3    H241713   3.406   6.345   1.687  0.9536 -1.1008 -1.5132
 5840TIP3   OH241714   4.885   7.360   2.052 -0.3631 -0.2123 -0.1316
 5840TIP3    H141715   4.901   7.267   2.039 -0.5013 -0.4857  1.4874
 5840TIP3    H241716   4.862   7.368   2.144  0.1490  1.4959 -0.1187
 5841TIP3   OH241717   4.814   6.038   1.517  0.2321 -0.3649 -0.0201
 5841TIP3    H141718   4.731   6.005   1.484  0.5624 -0.1294 -1.1220
 5841TIP3    H241719   4.850   5.966   1.568 -1.2057 -0.0471  1.5560
 5842TIP3   OH241720   1.430   6.915   0.651 -0.1412  0.5821  0.1452
 5842TIP3    H141721   1.520   6.929   0.621 -0.4881  0.4786 -0.9919
 5842TIP3    H241722   1.435   6.923   0.747  1.2633 -0.4147  0.1946
 5843TIP3   OH241723   2.079   3.125   1.493 -0.3685 -0.2790 -0.2478
 5843TIP3    H141724   2.062   3.058   1.427 -0.3534 -0.1133 -0.4188
 5843TIP3    H241725   2.001   3.179   1.494  0.2710  0.6903 -1.2828
 5844TIP3   OH241726   5.723   7.075   2.840  0.6261 -0.2121 -0.5771
 5844TIP3    H141727   5.773   7.157   2.843 -0.6309  0.5524  0.9246
 5844TIP3    H241728   5.769   7.017   2.901 -0.1294  0.4090  0.6199
 5845TIP3   OH241729   1.542   0.533   1.657 -0.0230 -0.5077 -0.0879
 5845TIP3    H141730   1.537   0.529   1.753 -0.8901  2.3532  0.0563
 5845TIP3    H241731   1.478   0.468   1.627 -0.8699 -0.3616  1.3102
 5846TIP3   OH241732   1.832   0.735   1.402  0.8150  0.6292  0.3826
 5846TIP3    H141733   1.791   0.765   1.483  1.1798 -1.4565  1.4103
 5846TIP3    H241734   1.759   0.711   1.345  0.5468 -0.5264  1.1790
 5847TIP3   OH241735   7.511   0.939   1.320 -0.1647  0.6256 -0.2725
 5847TIP3    H141736   7.584   0.882   1.343 -0.1874 -0.4396 -2.4791
 5847TIP3    H241737   7.551   1.018   1.284  0.0040 -0.3549 -2.3941
 5848TIP3   OH241738   1.304   4.238   1.324  0.1712  0.6797  0.0796
 5848TIP3    H141739   1.225   4.283   1.356  0.0591 -0.6475  1.7868
 5848TIP3    H241740   1.376   4.284   1.367  0.5062  2.5292 -2.2235
 5849TIP3   OH241741   1.492   0.027   1.713 -0.5161  0.3557  0.0424
 5849TIP3    H141742   1.468  -0.063   1.735 -1.0227  0.6921  0.8933
 5849TIP3    H241743   1.503   0.026   1.618 -0.3110 -0.6472  0.0624
 5850TIP3   OH241744   6.199   6.044   1.791 -0.3987  0.0828 -0.2074
 5850TIP3    H141745   6.287   6.025   1.758 -0.8399  0.4096 -1.6528
 5850TIP3    H241746   6.165   5.958   1.816 -0.3060 -0.3068 -1.3339
 5851TIP3   OH241747   4.232   1.126   2.226 -0.1936 -0.3224 -0.1724
 5851TIP3    H141748   4.175   1.146   2.300 -0.7010  0.9996 -0.8983
 5851TIP3    H241749   4.316   1.103   2.266 -0.8751 -1.1388  0.8543
 5852TIP3   OH241750   0.486   1.898   1.830  0.1342 -0.1461 -0.0398
 5852TIP3    H141751   0.418   1.910   1.896  0.6874  2.0298  0.1881
 5852TIP3    H241752   0.458   1.819   1.782 -0.7410 -1.2545  2.1637
 5853TIP3   OH241753   5.553   6.175   1.621  0.4868 -0.2093  0.0869
 5853TIP3    H141754   5.632   6.229   1.622  0.5416 -0.2981  0.7271
 5853TIP3    H241755   5.584   6.086   1.637  0.2361 -0.2121  0.5751
 5854TIP3   OH241756   1.374   3.906   2.654  0.4971  0.5737 -0.2261
 5854TIP3    H141757   1.394   3.905   2.748  0.9783  1.4921 -0.3070
 5854TIP3    H241758   1.456   3.878   2.612  0.5370  0.9474 -0.4016
 5855TIP3   OH241759   5.111   7.317   1.061 -0.2429 -0.3252 -0.4357
 5855TIP3    H141760   5.049   7.332   1.133  1.0448  2.0259  0.2950
 5855TIP3    H241761   5.180   7.263   1.100 -0.3495 -0.4126 -0.3677
 5856TIP3   OH241762   1.655   1.513   0.861 -0.1377  0.0345  0.3416
 5856TIP3    H141763   1.571   1.521   0.816  0.9127 -0.8892 -1.9569
 5856TIP3    H241764   1.671   1.600   0.897 -1.4248  0.6102 -0.3934
 5857TIP3   OH241765   0.075   4.871   0.948 -0.2949  0.3638 -0.1982
 5857TIP3    H141766   0.002   4.905   0.897 -0.6333  1.0405  0.6965
 5857TIP3    H241767   0.033   4.826   1.022  0.1743 -0.8970 -0.6758
 5858TIP3   OH241768   6.328   1.067   1.546  0.2529  0.1671  0.0295
 5858TIP3    H141769   6.321   1.107   1.633 -2.7181 -0.3792  0.1317
 5858TIP3    H241770   6.371   0.983   1.562 -0.0670  0.1679  0.9306
 5859TIP3   OH241771   6.294   4.079   2.387 -0.0502  0.1407  0.0449
 5859TIP3    H141772   6.317   4.113   2.474 -0.9404 -1.1335  0.8050
 5859TIP3    H241773   6.259   4.155   2.341 -0.5550  0.6217  1.1711
 5860TIP3   OH241774   6.027   6.831   1.616  0.2070 -0.2299 -0.1921
 5860TIP3    H141775   6.099   6.894   1.612 -0.9986  1.2882  1.0059
 5860TIP3    H241776   5.982   6.850   1.699 -1.2048 -1.5457 -0.6040
 5861TIP3   OH241777   1.898   7.512   0.951  0.2710 -0.1808  0.5071
 5861TIP3    H141778   1.926   7.426   0.982  0.0847  0.6555  3.3405
 5861TIP3    H241779   1.803   7.503   0.940  0.1880 -0.2567  1.2101
 5862TIP3   OH241780   5.261   5.756   3.238 -0.1628  0.0153  0.2858
 5862TIP3    H141781   5.292   5.669   3.216 -0.2339  0.3386 -1.2372
 5862TIP3    H241782   5.330   5.793   3.293  0.8906 -0.2566 -0.7965
 5863TIP3   OH241783   7.381   1.037   0.811 -0.5947  0.0652  0.6435
 5863TIP3    H141784   7.453   0.980   0.838  0.3815  1.2688  0.6758
 5863TIP3    H241785   7.302   0.983   0.822  0.2901 -1.3253  0.4996
 5864TIP3   OH241786   0.970   6.041   1.230 -0.0962  0.0990 -0.0211
 5864TIP3    H141787   1.005   5.966   1.182 -0.3060 -0.5468  0.8077
 5864TIP3    H241788   0.945   6.103   1.162 -0.5756 -0.8724 -0.7651
 5865TIP3   OH241789   1.499   3.186   0.464 -0.1005 -0.1518  0.2083
 5865TIP3    H141790   1.510   3.281   0.464  0.9096 -0.2379  1.5996
 5865TIP3    H241791   1.478   3.164   0.555  0.0570 -1.3065 -0.0199
 5866TIP3   OH241792   7.485   6.118   1.733  0.7101 -0.2432 -0.5026
 5866TIP3    H141793   7.577   6.144   1.725 -0.2750  3.0367 -4.3832
 5866TIP3    H241794   7.444   6.192   1.779 -0.4939  0.0751 -2.0276
 5867TIP3   OH241795   3.275   6.157   1.040  0.3933 -0.1124 -0.0639
 5867TIP3    H141796   3.190   6.192   1.068  0.6662  1.7530 -1.4064
 5867TIP3    H241797   3.334   6.233   1.042  2.0175 -1.3374  0.6915
 5868TIP3   OH241798   6.531   5.111   0.527  0.3949  0.4429  0.3013
 5868TIP3    H141799   6.617   5.152   0.523  0.5404  0.2043  0.9440
 5868TIP3    H241800   6.547   5.023   0.561 -0.3322  1.1323  2.6327
 5869TIP3   OH241801   2.928   6.504   0.858  0.0815  0.3453 -0.1761
 5869TIP3    H141802   2.995   6.501   0.926  1.0988 -0.4883 -1.1530
 5869TIP3    H241803   2.944   6.586   0.812 -0.2212  0.6275  0.2242
 5870TIP3   OH241804   2.587   1.636   1.063 -0.4320 -0.0894  0.1361
 5870TIP3    H141805   2.681   1.646   1.073 -0.4990  0.5588  0.1511
 5870TIP3    H241806   2.576   1.591   0.979 -0.1159 -0.0322  0.0637
 5871TIP3   OH241807   5.109   5.931   3.410 -0.3397  0.0947  1.1209
 5871TIP3    H141808   5.014   5.936   3.409 -0.3197  0.6537 -0.0164
 5871TIP3    H241809   5.128   5.838   3.398 -0.7652  0.2298 -0.9317
 5872TIP3   OH241810   2.773   4.106   1.895 -0.0006 -0.4552 -0.2545
 5872TIP3    H141811   2.749   4.146   1.979  0.7381 -0.1958 -0.1602
 5872TIP3    H241812   2.856   4.147   1.872 -0.7412  0.3047 -1.6800
 5873TIP3   OH241813   6.664   2.668   2.502  0.1465  0.2105  0.2228
 5873TIP3    H141814   6.645   2.664   2.408 -0.9256  1.8165  0.3343
 5873TIP3    H241815   6.721   2.744   2.511  0.4250 -0.0681  0.8574
 5874TIP3   OH241816   1.553   3.659   1.662 -0.8252  0.8393  0.0562
 5874TIP3    H141817   1.544   3.638   1.569 -0.9066  0.7761  0.0779
 5874TIP3    H241818   1.549   3.574   1.706 -3.1337  1.0086  0.3037
 5875TIP3   OH241819   3.976   2.796   1.631  0.1620  0.1564  0.7105
 5875TIP3    H141820   3.953   2.885   1.605 -1.0910 -0.4642 -0.4483
 5875TIP3    H241821   4.009   2.755   1.551 -0.7785 -0.8790  0.8345
 5876TIP3   OH241822   5.267   1.767   2.760 -0.4468  0.2055 -0.0098
 5876TIP3    H141823   5.301   1.819   2.688  1.1791 -0.7746  0.0077
 5876TIP3    H241824   5.207   1.705   2.719 -1.1402  0.9856 -0.2225
 5877TIP3   OH241825   1.393   5.564   3.172  0.1040  0.2991  0.5402
 5877TIP3    H141826   1.416   5.570   3.079 -2.2052  2.3955  0.0005
 5877TIP3    H241827   1.371   5.472   3.185 -0.2524  0.1010 -1.1743
 5878TIP3   OH241828   6.489   4.497   2.083  0.1356 -0.0439  0.1034
 5878TIP3    H141829   6.482   4.546   2.001  0.0772 -1.3311 -0.7076
 5878TIP3    H241830   6.539   4.418   2.059 -0.8081 -0.9631  1.0495
 5879TIP3   OH241831   2.773   3.709   1.611  0.5393  0.0146  0.4989
 5879TIP3    H141832   2.752   3.757   1.691  0.0875 -1.7484  1.4885
 5879TIP3    H241833   2.750   3.618   1.630  0.5535 -0.4935 -1.5886
 5880TIP3   OH241834   1.027   3.418   2.190 -0.6001  0.0698 -0.4828
 5880TIP3    H141835   1.013   3.460   2.275  0.9501 -0.7434  0.2198
 5880TIP3    H241836   1.079   3.481   2.140  2.3771 -1.1716  0.8391
 5881TIP3   OH241837   6.638   1.527   0.978  0.1567  0.0506  0.1930
 5881TIP3    H141838   6.638   1.432   0.963  0.6413 -0.2286  1.7415
 5881TIP3    H241839   6.585   1.562   0.907  0.6280 -1.2957 -0.8712
 5882TIP3   OH241840   3.191   1.675   0.341  0.3941  0.4456  0.3686
 5882TIP3    H141841   3.244   1.611   0.390  0.5963  0.9475  0.8102
 5882TIP3    H241842   3.129   1.621   0.292  0.1801 -0.0755  1.1870
 5883TIP3   OH241843   5.419   0.283   1.808 -0.0012 -0.0492 -0.2269
 5883TIP3    H141844   5.458   0.199   1.833  0.3046  0.7547  2.3532
 5883TIP3    H241845   5.408   0.330   1.891 -2.8365  1.3600 -1.2486
 5884TIP3   OH241846   6.744   5.074   2.675  0.2846  0.7690 -0.1019
 5884TIP3    H141847   6.781   5.087   2.762 -0.4208  3.0347 -0.0730
 5884TIP3    H241848   6.815   5.098   2.615  0.2749  0.7292 -0.1293
 5885TIP3   OH241849   4.204   6.532   3.368 -0.1953  0.1732 -0.5764
 5885TIP3    H141850   4.122   6.518   3.414 -1.1735  0.6465 -2.0946
 5885TIP3    H241851   4.237   6.614   3.403 -0.6416  0.2550 -0.3373
 5886TIP3   OH241852   0.693   7.452   2.306  0.1483 -0.2467 -0.7428
 5886TIP3    H141853   0.753   7.479   2.375 -1.1565 -0.6371  0.6029
 5886TIP3    H241854   0.651   7.533   2.277  1.4991  0.0655 -1.8951
 5887TIP3   OH241855   6.892   1.169   2.570  0.2548  0.1395 -0.1042
 5887TIP3    H141856   6.800   1.147   2.586  0.6307 -0.1562  1.8622
 5887TIP3    H241857   6.935   1.084   2.558  0.5133  0.1888  0.4584
 5888TIP3   OH241858   6.301   4.362   2.989 -0.3917  0.1680 -0.0459
 5888TIP3    H141859   6.331   4.284   3.035  0.1377  0.1365 -0.4340
 5888TIP3    H241860   6.347   4.434   3.031  0.4599  0.0924 -0.8233
 5889TIP3   OH241861   4.972   5.660   2.419  0.5945 -0.5499 -0.4574
 5889TIP3    H141862   4.929   5.663   2.504  1.8518 -2.7273  0.3300
 5889TIP3    H241863   5.049   5.716   2.428 -0.1154  0.4983 -0.7195
 5890TIP3   OH241864   6.526   0.813   2.655 -0.1675  0.1027 -0.2457
 5890TIP3    H141865   6.560   0.897   2.623 -3.2532  1.1975 -1.0769
 5890TIP3    H241866   6.488   0.834   2.740  0.8764 -0.9874  0.5157
 5891TIP3   OH241867   6.941   1.667   2.543 -0.0065 -0.0484  0.2094
 5891TIP3    H141868   6.950   1.624   2.629 -1.0110 -0.2578  0.2157
 5891TIP3    H241869   6.976   1.602   2.481  0.1645 -0.1376  0.3958
 5892TIP3   OH241870   3.112   0.170   0.795 -0.0553 -0.0277  0.4058
 5892TIP3    H141871   3.154   0.245   0.837  0.8989 -1.4589  2.1736
 5892TIP3    H241872   3.019   0.180   0.812  0.0405  0.8778  0.4005
 5893TIP3   OH241873   0.350   4.176   1.676 -0.0282 -0.0597 -0.0175
 5893TIP3    H141874   0.405   4.121   1.732  0.1936 -0.1700 -0.3442
 5893TIP3    H241875   0.412   4.234   1.631 -0.3346  1.1919  1.1097
 5894TIP3   OH241876   5.686   6.454   0.437  0.7515  0.0634  0.4013
 5894TIP3    H141877   5.646   6.373   0.468  1.1797 -0.3911 -0.2122
 5894TIP3    H241878   5.780   6.439   0.447  0.9547 -0.3496 -1.6536
 5895TIP3   OH241879   3.422   4.349   1.251  0.1514  0.0971 -0.0759
 5895TIP3    H141880   3.430   4.433   1.295 -1.2978  0.5221 -0.5669
 5895TIP3    H241881   3.485   4.352   1.180  1.2727  0.0950  0.9004
 5896TIP3   OH241882   5.380   4.414   0.736 -0.6458  0.7162 -0.7286
 5896TIP3    H141883   5.462   4.368   0.719 -0.7118  0.9552 -1.7697
 5896TIP3    H241884   5.322   4.347   0.772 -0.3244  0.2890 -0.9885
 5897TIP3   OH241885   3.789   3.064   0.652 -0.2943 -0.7623 -0.0895
 5897TIP3    H141886   3.724   2.994   0.659 -0.2885 -0.6158  1.7014
 5897TIP3    H241887   3.747   3.141   0.690  1.0194 -0.7531  1.4357
 5898TIP3   OH241888   7.483   0.601   0.374  0.2812 -0.1204  0.5185
 5898TIP3    H141889   7.527   0.517   0.385  0.8404  0.3408  2.1723
 5898TIP3    H241890   7.391   0.583   0.393 -0.0622 -0.8064 -1.5591
 5899TIP3   OH241891   1.239   0.596   1.174 -0.2832 -0.1453 -0.4669
 5899TIP3    H141892   1.200   0.671   1.218 -1.6500 -0.9179 -0.3232
 5899TIP3    H241893   1.303   0.563   1.237 -0.8239 -0.0695  0.1387
 5900TIP3   OH241894   1.331   4.213   1.653  0.1530 -0.0668  0.2541
 5900TIP3    H141895   1.274   4.150   1.608  0.1986  0.4945 -0.6106
 5900TIP3    H241896   1.417   4.171   1.653 -0.0410 -0.4826  0.6824
 5901TIP3   OH241897   7.071   3.683   2.771  0.1405 -0.2570  0.1251
 5901TIP3    H141898   7.111   3.654   2.853  1.7151 -0.2343 -0.5883
 5901TIP3    H241899   6.977   3.676   2.786  0.4097 -1.1493  1.6009
 5902TIP3   OH241900   4.995   0.906   3.798  0.1736  0.0550 -0.1760
 5902TIP3    H141901   5.062   0.861   3.747  0.6655 -0.0919  0.5869
 5902TIP3    H241902   4.933   0.940   3.732  0.8919  0.0327 -0.8721
 5903TIP3   OH241903   2.318   2.892   0.790  0.1613 -0.2183 -0.6140
 5903TIP3    H141904   2.370   2.935   0.722 -0.6584 -0.6192 -1.5192
 5903TIP3    H241905   2.317   2.799   0.764 -1.4079 -0.1431 -0.9153
 5904TIP3   OH241906   6.671   6.318   1.745  0.4639  0.4550  0.1311
 5904TIP3    H141907   6.760   6.348   1.724  1.3459 -1.9072  0.2297
 5904TIP3    H241908   6.682   6.227   1.773 -1.7990  0.6370  1.8833
 5905TIP3   OH241909   7.564   2.080   3.073 -0.7893 -0.1715 -0.4010
 5905TIP3    H141910   7.532   2.160   3.115 -1.6709 -0.9528  0.4730
 5905TIP3    H241911   7.534   2.010   3.131  1.4318 -1.0447 -0.2168
 5906TIP3   OH241912   7.296   5.971   2.743 -0.0212  0.6282  0.1557
 5906TIP3    H141913   7.258   6.001   2.826  1.9572 -0.1012  1.3881
 5906TIP3    H241914   7.372   5.920   2.768  0.2667 -0.1815 -2.1220
 5907TIP3   OH241915   0.413   5.299   3.172  0.2685 -0.0883 -0.3413
 5907TIP3    H141916   0.338   5.358   3.171  1.8049  2.0501 -2.3991
 5907TIP3    H241917   0.377   5.213   3.152 -1.6445  0.8351 -1.0990
 5908TIP3   OH241918   7.284   4.950   2.022  0.2423 -0.5895  0.4096
 5908TIP3    H141919   7.222   4.904   1.965  1.1076  0.5819 -1.5799
 5908TIP3    H241920   7.340   4.880   2.057  1.2831 -1.2409 -2.2295
 5909TIP3   OH241921   3.509   6.073   0.883 -0.3972  0.4271 -0.4969
 5909TIP3    H141922   3.450   6.128   0.935 -0.0056 -0.6000  1.1068
 5909TIP3    H241923   3.450   6.012   0.837 -0.7435  1.3193 -1.2675
 5910TIP3   OH241924   3.807   3.506   0.970  0.3065 -0.3066  0.1957
 5910TIP3    H141925   3.774   3.587   0.933 -0.6191 -0.1807  1.2527
 5910TIP3    H241926   3.749   3.487   1.043  0.5303 -1.8989  0.0092
 5911TIP3   OH241927   6.453   4.197   2.733  0.6122 -0.1635 -0.6089
 5911TIP3    H141928   6.509   4.273   2.746 -0.8226  0.8887 -0.2905
 5911TIP3    H241929   6.459   4.148   2.815 -0.5707  1.0861  0.2538
 5912TIP3   OH241930   6.551   0.205   1.061 -0.3080  0.4316  0.3780
 5912TIP3    H141931   6.632   0.179   1.105  0.2681 -1.0667 -1.4192
 5912TIP3    H241932   6.574   0.285   1.014  0.6971 -0.8637 -1.4547
 5913TIP3   OH241933   5.802   5.407   2.036 -0.2705 -0.8482  0.0501
 5913TIP3    H141934   5.855   5.483   2.013 -1.7520  1.0517  2.4436
 5913TIP3    H241935   5.716   5.426   1.996 -0.4815 -1.5849  0.1456
 5914TIP3   OH241936   3.137   4.160   0.489 -0.1492  0.0899 -0.2538
 5914TIP3    H141937   3.072   4.229   0.477 -2.1955 -1.6489  0.1065
 5914TIP3    H241938   3.107   4.090   0.431  1.6085 -0.6688 -0.2910
 5915TIP3   OH241939   1.224   4.831   1.205 -0.1497  0.2273  0.0614
 5915TIP3    H141940   1.290   4.896   1.230  0.2167 -0.7080  1.7064
 5915TIP3    H241941   1.153   4.882   1.166 -0.0692  1.6897  1.7013
 5916TIP3   OH241942   6.794   7.381   1.200  0.2445 -0.6239  0.0640
 5916TIP3    H141943   6.798   7.294   1.160 -1.0366 -1.6401  1.9997
 5916TIP3    H241944   6.719   7.378   1.259  2.0535  0.7041  2.6654
 5917TIP3   OH241945   4.337   2.149   2.463  0.3655  0.6900  0.4239
 5917TIP3    H141946   4.335   2.245   2.468 -1.7192  0.7395 -0.2423
 5917TIP3    H241947   4.367   2.121   2.549 -2.0454  1.9404  1.7928
 5918TIP3   OH241948   5.084   3.508   1.731  0.2857  0.2830 -0.5594
 5918TIP3    H141949   5.139   3.569   1.681  0.6075 -0.1906 -0.7860
 5918TIP3    H241950   5.130   3.496   1.814 -0.8086  1.9547  0.3499
 5919TIP3   OH241951   6.694   1.016   2.807 -0.1879  0.2765  0.0234
 5919TIP3    H141952   6.629   0.965   2.857  1.0036  1.6419  3.2646
 5919TIP3    H241953   6.649   1.098   2.788 -0.5172 -0.1023 -0.8880
 5920TIP3   OH241954   4.762   6.031   0.546 -0.5603  0.4872 -0.0617
 5920TIP3    H141955   4.699   5.965   0.575 -0.0100  0.9554  2.4521
 5920TIP3    H241956   4.782   6.006   0.456 -1.6489 -1.7703  0.2336
 5921TIP3   OH241957   7.006   5.320   2.279 -0.2411  0.0238  0.1109
 5921TIP3    H141958   6.947   5.298   2.207 -0.4933 -0.6662  0.5265
 5921TIP3    H241959   6.978   5.408   2.306  0.3720  0.6352 -1.1434
 5922TIP3   OH241960   1.273   2.746   2.383 -0.6705 -0.0375  0.7388
 5922TIP3    H141961   1.203   2.812   2.379  0.0104  0.7044  0.6742
 5922TIP3    H241962   1.350   2.796   2.411 -0.4877 -1.1042  2.2867
 5923TIP3   OH241963   0.388   5.897   1.055 -0.3080 -0.0058  0.1505
 5923TIP3    H141964   0.311   5.842   1.040 -1.5114  1.9439 -1.3754
 5923TIP3    H241965   0.353   5.986   1.062  1.7840  0.9479 -0.6007
 5924TIP3   OH241966   5.799   5.528   1.727  0.4728  0.1089 -0.3709
 5924TIP3    H141967   5.830   5.618   1.719  2.2169 -0.1910  2.0385
 5924TIP3    H241968   5.847   5.479   1.660  0.4190  0.7361 -0.8746
 5925TIP3   OH241969   7.560   5.083   1.348  0.0651  0.0520  0.4711
 5925TIP3    H141970   7.517   5.085   1.262 -1.9956 -1.0909  1.3990
 5925TIP3    H241971   7.653   5.089   1.328 -0.4103  3.0087 -1.6642
 5926TIP3   OH241972   2.535   6.601   3.278 -0.6659 -0.0006 -0.2797
 5926TIP3    H141973   2.481   6.528   3.310 -1.0507  0.6147  0.5058
 5926TIP3    H241974   2.621   6.562   3.264 -0.5406 -0.3884  1.2881
 5927TIP3   OH241975   1.584   5.732   2.795  0.0055 -0.4389  0.3876
 5927TIP3    H141976   1.640   5.751   2.720 -0.5226  0.8142  0.2876
 5927TIP3    H241977   1.634   5.762   2.870 -0.2024 -0.0178  0.3635
 5928TIP3   OH241978   2.618   6.813   1.024 -0.1430 -0.5569  0.3133
 5928TIP3    H141979   2.614   6.903   0.993 -3.5349 -0.9247 -0.7725
 5928TIP3    H241980   2.710   6.790   1.021  0.7803  2.7030  0.2213
 5929TIP3   OH241981   0.674   2.138   1.775 -0.9591 -0.1159 -0.1391
 5929TIP3    H141982   0.708   2.110   1.690 -1.9506  0.0945 -0.6222
 5929TIP3    H241983   0.636   2.059   1.813 -2.4503  0.2149 -0.8626
 5930TIP3   OH241984   3.363   2.810   1.602  0.0361  0.1324  0.3526
 5930TIP3    H141985   3.388   2.727   1.561 -0.4462 -0.4491  1.1851
 5930TIP3    H241986   3.445   2.855   1.619  0.5276 -1.2876  2.1233
 5931TIP3   OH241987   2.723   0.214   2.098  0.0630 -0.0294  0.4306
 5931TIP3    H141988   2.771   0.141   2.059 -0.6825 -0.1233 -0.3275
 5931TIP3    H241989   2.705   0.273   2.025  0.9077  1.0805  1.0819
 5932TIP3   OH241990   7.130   1.170   1.954  0.0968  0.5919 -0.3040
 5932TIP3    H141991   7.152   1.078   1.968 -0.5306  0.3676 -0.7478
 5932TIP3    H241992   7.176   1.193   1.873 -1.7856 -0.0726 -1.6145
 5933TIP3   OH241993   1.799   5.663   1.980  0.0368 -0.3263  0.4226
 5933TIP3    H141994   1.748   5.742   1.994  0.1103 -0.1358 -0.3517
 5933TIP3    H241995   1.735   5.592   1.985 -0.0166 -0.2400  1.2016
 5934TIP3   OH241996   6.723   2.093   2.144 -0.1502 -0.1363  0.1021
 5934TIP3    H141997   6.767   2.010   2.163 -1.3173 -0.5246  1.2904
 5934TIP3    H241998   6.631   2.070   2.136 -0.2472  0.7239 -1.9080
 5935TIP3   OH241999   0.593   6.982   0.597  0.1605  0.4493  0.3159
 5935TIP3    H142000   0.545   7.064   0.609  1.5061  1.1662  1.0010
 5935TIP3    H242001   0.680   7.001   0.630  0.3903 -1.3909  0.8252
 5936TIP3   OH242002   5.876   0.889   1.510 -0.1330 -0.1643 -0.6426
 5936TIP3    H142003   5.841   0.816   1.459 -1.0365  0.2005 -0.5691
 5936TIP3    H242004   5.836   0.880   1.596  1.4776 -0.8497  0.0780
 5937TIP3   OH242005   3.523   2.049   3.118  0.0981  0.2947  0.1395
 5937TIP3    H142006   3.447   2.005   3.078  1.4783 -0.0607 -2.3184
 5937TIP3    H242007   3.501   2.142   3.116 -1.2175  0.0622  1.7057
 5938TIP3   OH242008   3.354   2.887   2.327  0.0484 -0.2001  0.3318
 5938TIP3    H142009   3.395   2.900   2.412 -0.1476  2.4582  0.0999
 5938TIP3    H242010   3.426   2.896   2.264  0.0277 -1.1843  0.1484
 5939TIP3   OH242011   6.444   1.612   1.250 -0.1004  0.0022 -0.0259
 5939TIP3    H142012   6.538   1.630   1.247 -0.0293 -0.3786 -0.2186
 5939TIP3    H242013   6.411   1.640   1.165 -0.2751  0.7265  0.2777
 5940TIP3   OH242014   3.810   6.034   0.938  0.6801 -0.3264  0.1136
 5940TIP3    H142015   3.714   6.037   0.935  0.5356 -2.9442 -1.7521
 5940TIP3    H242016   3.834   6.084   1.016 -2.1094  1.3431  0.0241
 5941TIP3   OH242017   0.287   3.465   0.580 -0.1715  0.3774 -0.3569
 5941TIP3    H142018   0.291   3.435   0.490  0.3792 -0.2159 -0.1408
 5941TIP3    H242019   0.325   3.394   0.631 -0.2233  0.8221  0.3188
 5942TIP3   OH242020   3.389   6.040   1.729  0.1481 -0.2204 -0.3806
 5942TIP3    H142021   3.337   5.966   1.697  2.1686 -1.5590 -0.7178
 5942TIP3    H242022   3.396   6.024   1.824 -1.7547  1.1298  0.0581
 5943TIP3   OH242023   2.490   0.452   1.251 -0.0128 -0.0274 -0.1799
 5943TIP3    H142024   2.443   0.382   1.205  0.5630 -0.2161 -0.4844
 5943TIP3    H242025   2.511   0.516   1.184 -2.1162  1.3598  0.3727
 5944TIP3   OH242026   3.624   1.931   1.123  0.3191 -0.2331 -0.0864
 5944TIP3    H142027   3.641   1.907   1.214 -0.2584  0.0308  0.0918
 5944TIP3    H242028   3.539   1.892   1.103 -0.4530  1.2812  0.0815
 5945TIP3   OH242029   7.565   0.111   0.650 -0.0913 -0.1928 -0.2987
 5945TIP3    H142030   7.490   0.089   0.594 -0.4311  0.1374  0.0197
 5945TIP3    H242031   7.636   0.056   0.617 -0.5435 -0.7052 -0.4325
 5946TIP3   OH242032   4.910   7.247   1.270  0.2391 -0.2789 -0.6629
 5946TIP3    H142033   4.965   7.298   1.330  1.3276  0.0884 -1.9107
 5946TIP3    H242034   4.926   7.156   1.294 -0.1485 -0.1250  0.2550
 5947TIP3   OH242035   0.765   7.543   1.057  0.2148  0.3775  0.0596
 5947TIP3    H142036   0.782   7.456   1.022  0.7845  0.5066  0.0124
 5947TIP3    H242037   0.679   7.567   1.022  0.0639 -0.1579  0.0665
 5948TIP3   OH242038   3.731   4.232   3.510 -0.1106 -0.0075 -0.0513
 5948TIP3    H142039   3.689   4.214   3.595 -1.1817 -0.0634 -0.5762
 5948TIP3    H242040   3.659   4.261   3.454  0.7376  0.9138 -0.6915
 5949TIP3   OH242041   5.782   0.230   2.051 -0.0824  0.4583 -0.1917
 5949TIP3    H142042   5.833   0.188   1.982 -1.7779 -1.5078 -0.3746
 5949TIP3    H242043   5.835   0.304   2.080  2.8904 -1.4838 -0.2708
 5950TIP3   OH242044   7.299   5.989   0.757 -0.4041 -0.5298 -0.0682
 5950TIP3    H142045   7.266   5.924   0.695  0.9926 -1.6307  0.2901
 5950TIP3    H242046   7.267   5.960   0.842 -0.7304 -0.0898 -0.0359
 5951TIP3   OH242047   6.484   3.115   2.946  0.1628  0.1838 -0.1819
 5951TIP3    H142048   6.461   3.112   3.039  0.8514  0.7324  0.0150
 5951TIP3    H242049   6.469   3.206   2.921  1.6195  0.4489 -0.1699
 5952TIP3   OH242050   4.221   1.673   0.701 -0.8926  0.0746 -0.0699
 5952TIP3    H142051   4.154   1.694   0.766 -1.2927  1.6829 -0.9431
 5952TIP3    H242052   4.304   1.698   0.743 -1.0921  0.5039  0.0710
 5953TIP3   OH242053   7.296   7.056   0.471  0.4687  0.0627 -0.5398
 5953TIP3    H142054   7.232   7.010   0.525 -1.0409  2.0256 -0.5138
 5953TIP3    H242055   7.348   6.987   0.431 -0.7168 -1.5714  0.5903
 5954TIP3   OH242056   5.703   7.013   0.574 -0.5503 -0.6673  0.1774
 5954TIP3    H142057   5.759   7.084   0.607 -0.3905 -0.5838 -0.2676
 5954TIP3    H242058   5.629   7.010   0.635 -0.4705 -0.2351  0.2977
 5955TIP3   OH242059   2.842   1.008   1.461  0.1945  0.9361 -0.1976
 5955TIP3    H142060   2.811   1.093   1.429 -1.2131  0.4861 -0.1185
 5955TIP3    H242061   2.793   0.995   1.543 -0.4331 -0.4206 -0.7574
 5956TIP3   OH242062   4.575   6.266   8.091 -0.4773 -0.5121 -0.0391
 5956TIP3    H142063   4.592   6.263   7.997  2.1531 -0.4595  0.3737
 5956TIP3    H242064   4.532   6.182   8.110 -0.6888 -0.6892 -1.2001
 5957TIP3   OH242065   7.448   7.535   2.103 -0.8920  0.2717  0.8318
 5957TIP3    H142066   7.404   7.552   2.187 -1.7097 -1.6071  0.8334
 5957TIP3    H242067   7.376   7.521   2.041 -0.3579 -1.5290  0.5462
 5958TIP3   OH242068   4.776   1.770   1.367 -0.0074  0.4216 -0.4913
 5958TIP3    H142069   4.814   1.821   1.438  0.6068  0.2025 -0.6627
 5958TIP3    H242070   4.755   1.835   1.300  1.0575  0.4241 -0.8333
 5959TIP3   OH242071   7.464   5.825   1.801  0.6511  0.2118 -0.3504
 5959TIP3    H142072   7.514   5.851   1.724 -1.6883  1.5862 -1.5181
 5959TIP3    H242073   7.475   5.898   1.862  1.3064 -0.2194  0.0715
 5960TIP3   OH242074   0.799   2.690   0.637  0.1847  0.3824  0.3546
 5960TIP3    H142075   0.763   2.606   0.609  0.2252  0.1714  0.9202
 5960TIP3    H242076   0.867   2.667   0.700 -0.0842  0.8496  0.8273
 5961TIP3   OH242077   2.341   5.865   0.957 -0.3245  0.2252  0.0652
 5961TIP3    H142078   2.382   5.807   0.892 -1.9940  0.1285 -0.9478
 5961TIP3    H242079   2.254   5.882   0.923 -0.0656  3.0194  0.5331
 5962TIP3   OH242080   3.210   7.016   1.622 -0.2222 -0.0808  0.0381
 5962TIP3    H142081   3.256   6.970   1.692  1.1669  0.3561 -0.5458
 5962TIP3    H242082   3.265   7.092   1.603  0.0687 -0.7957 -2.3055
 5963TIP3   OH242083   7.008   6.492   2.374  0.1947 -0.3020 -0.0449
 5963TIP3    H142084   7.046   6.538   2.299 -0.1220  1.2482  0.6878
 5963TIP3    H242085   7.071   6.506   2.445 -1.5787  2.3235  1.1949
 5964TIP3   OH242086   6.258   7.263   0.938  0.2813 -0.4208  0.3071
 5964TIP3    H142087   6.349   7.280   0.913  0.0973  0.2194  0.0560
 5964TIP3    H242088   6.240   7.176   0.905  0.2394  0.1550 -1.2591
 5965TIP3   OH242089   0.654   5.221   1.614 -0.1667 -0.1568 -0.8978
 5965TIP3    H142090   0.616   5.238   1.700 -0.0461 -3.0883 -0.1410
 5965TIP3    H242091   0.733   5.169   1.633  0.6133  0.2824 -2.7342
 5966TIP3   OH242092   3.518   1.901   2.136  0.5769 -0.6633 -0.0293
 5966TIP3    H142093   3.586   1.967   2.142  0.4570 -0.4544 -0.8890
 5966TIP3    H242094   3.520   1.871   2.045 -0.2528 -0.8899  0.0134
 5967TIP3   OH242095   4.491   7.563   3.459 -0.4907 -0.9649 -0.0940
 5967TIP3    H142096   4.554   7.544   3.389  0.7267  0.9276  0.4009
 5967TIP3    H242097   4.497   7.658   3.471 -0.7704 -1.2175  2.4666
 5968TIP3   OH242098   0.135   5.448   1.921 -0.0563 -0.8692 -0.1917
 5968TIP3    H142099   0.127   5.366   1.969 -0.5486 -0.9658 -0.4299
 5968TIP3    H242100   0.159   5.513   1.987 -0.1559 -1.1083  0.0821
 5969TIP3   OH242101   0.707   2.412   0.611  0.1699  0.2794  0.4460
 5969TIP3    H142102   0.722   2.407   0.705 -0.4583  1.1096  0.6041
 5969TIP3    H242103   0.787   2.377   0.572  0.8795  0.9011  1.2835
 5970TIP3   OH242104   6.170   4.968   1.754  0.0745 -0.1113 -0.5770
 5970TIP3    H142105   6.198   4.963   1.845  0.8704 -1.3115 -0.8659
 5970TIP3    H242106   6.227   5.034   1.715 -0.7005  0.8769 -0.0696
 5971TIP3   OH242107   5.465   2.758   1.307 -0.4841  0.0500 -0.1719
 5971TIP3    H142108   5.490   2.680   1.258 -0.6962 -0.6991  0.8664
 5971TIP3    H242109   5.370   2.752   1.315 -0.6356  1.0144 -1.0362
 5972TIP3   OH242110   1.002   0.899   1.102  0.0488  0.0103 -0.6630
 5972TIP3    H142111   0.953   0.957   1.161 -0.8181 -1.4191  0.0786
 5972TIP3    H242112   1.088   0.940   1.094  0.3215  0.0873  1.9220
 5973TIP3   OH242113   1.769   2.421   1.498  0.1488  0.0679 -0.5236
 5973TIP3    H142114   1.740   2.340   1.455  0.1080 -0.9267  1.2694
 5973TIP3    H242115   1.705   2.486   1.471 -0.8566 -0.9222 -0.6093
 5974TIP3   OH242116   2.508   5.444   2.962 -0.0179 -0.5801  0.1839
 5974TIP3    H142117   2.442   5.416   3.025  0.3852  0.6372  1.1859
 5974TIP3    H242118   2.587   5.395   2.986 -0.2758 -1.2980 -0.3941
 5975TIP3   OH242119   4.430   2.836   2.060  0.2166  0.1124 -0.2142
 5975TIP3    H142120   4.454   2.922   2.097  3.2399 -1.1767  1.2131
 5975TIP3    H242121   4.355   2.808   2.112  0.9796  0.7234  1.3095
 5976TIP3   OH242122   6.547   5.642   0.345  0.3603  0.4308  0.9242
 5976TIP3    H142123   6.463   5.673   0.379  0.9255 -0.1157  2.9428
 5976TIP3    H242124   6.596   5.721   0.326  0.8402  0.8456  3.5942
 5977TIP3   OH242125   1.178   3.579   1.534  0.1692  0.3456 -0.5597
 5977TIP3    H142126   1.185   3.612   1.623  0.7073 -1.1257 -0.0132
 5977TIP3    H242127   1.103   3.625   1.497  1.7096  3.1906 -0.3829
 5978TIP3   OH242128   0.520   5.490   1.894 -0.3689  0.0286  0.4013
 5978TIP3    H142129   0.467   5.499   1.815  0.8604  0.0078 -0.4661
 5978TIP3    H242130   0.563   5.574   1.904  1.6623 -0.8005 -0.6383
 5979TIP3   OH242131   6.557   0.515   2.429  0.6727  0.2265 -0.2973
 5979TIP3    H142132   6.503   0.565   2.490  1.5396 -0.0229  0.7191
 5979TIP3    H242133   6.627   0.575   2.404  0.9525 -0.0380 -0.1506
 5980TIP3   OH242134   0.824   1.127   0.845 -0.6555 -0.6135  0.0039
 5980TIP3    H142135   0.869   1.127   0.930  0.9665 -0.8952 -0.8284
 5980TIP3    H242136   0.827   1.218   0.816 -0.2875 -0.6951 -0.2179
 5981TIP3   OH242137   2.952   4.020   2.648 -0.0110  0.0774 -0.7237
 5981TIP3    H142138   2.886   3.951   2.652 -0.9375  0.9227 -1.0217
 5981TIP3    H242139   3.029   3.978   2.610  0.4028 -1.4994  1.6432
 5982TIP3   OH242140   4.727   4.683   0.325  0.2371  0.6204  0.3151
 5982TIP3    H142141   4.732   4.588   0.315  0.1019  0.6591 -0.1599
 5982TIP3    H242142   4.640   4.706   0.291 -0.2308  0.7827  1.5620
 5983TIP3   OH242143   6.328   3.250   1.367 -0.1412  0.2202  0.1607
 5983TIP3    H142144   6.329   3.291   1.453 -1.7322  0.4054  0.1257
 5983TIP3    H242145   6.236   3.234   1.349  0.1685  0.0115 -1.4335
 5984TIP3   OH242146   3.265   6.063   2.221 -0.0524 -0.3897 -0.4001
 5984TIP3    H142147   3.177   6.068   2.256 -0.3632 -0.4396 -1.1593
 5984TIP3    H242148   3.258   6.003   2.147  0.6089 -0.3641 -0.4896
 5985TIP3   OH242149   5.105   0.829   2.397  0.3110 -0.2805 -0.6329
 5985TIP3    H142150   5.031   0.769   2.386  0.4452 -0.5526 -0.1238
 5985TIP3    H242151   5.066   0.916   2.402 -0.1631 -0.5452  1.2506
 5986TIP3   OH242152   2.089   2.753   2.070 -0.1530 -0.5376  0.1450
 5986TIP3    H142153   2.143   2.799   2.007  1.3877 -1.2497  0.8916
 5986TIP3    H242154   1.999   2.767   2.040  0.5142 -0.7476 -2.1096
 5987TIP3   OH242155   1.147   6.556   1.488  0.0320 -0.3514  0.2474
 5987TIP3    H142156   1.227   6.526   1.532  0.6318  0.0722 -0.5272
 5987TIP3    H242157   1.152   6.651   1.490 -1.6812 -0.2259  2.3501
 5988TIP3   OH242158   2.602   0.363   2.294  0.4296 -0.0269  0.0740
 5988TIP3    H142159   2.578   0.325   2.378  1.1028  0.3080  0.4208
 5988TIP3    H242160   2.640   0.290   2.245  3.2339  0.4846  1.3309
 5989TIP3   OH242161   2.440   3.992   1.989  0.3845  0.7267 -0.1505
 5989TIP3    H142162   2.346   3.973   1.989  0.0684  2.1763  0.0239
 5989TIP3    H242163   2.481   3.911   2.019 -0.9016  0.4916  1.0748
 5990TIP3   OH242164   5.612   4.126   2.454  0.2739 -0.3299  0.3893
 5990TIP3    H142165   5.540   4.094   2.509 -0.8683 -1.8381 -1.8204
 5990TIP3    H242166   5.691   4.099   2.500 -0.6362 -1.4711  1.3456
 5991TIP3   OH242167   7.240   6.625   1.969  0.5473  0.2624 -0.4834
 5991TIP3    H142168   7.327   6.659   1.948  1.1547  0.8352  2.5762
 5991TIP3    H242169   7.180   6.683   1.921  1.7539  2.4018  0.4746
 5992TIP3   OH242170   4.974   7.567   2.407  0.5510 -0.3815 -0.0881
 5992TIP3    H142171   4.986   7.627   2.481 -0.2967  0.1216 -0.3460
 5992TIP3    H242172   5.054   7.576   2.355  1.0405 -0.5443  0.6244
 5993TIP3   OH242173   2.791   0.754   0.580  0.2760  0.2036 -0.0691
 5993TIP3    H142174   2.805   0.664   0.553  1.4571  0.0118  1.0994
 5993TIP3    H242175   2.837   0.762   0.664  1.3998  2.2602 -0.7968
 5994TIP3   OH242176   1.859   1.484   1.624  0.6816 -0.2114 -0.4772
 5994TIP3    H142177   1.807   1.405   1.639 -0.3727  0.0574 -2.3268
 5994TIP3    H242178   1.916   1.490   1.700  0.0722 -2.1790  0.2108
 5995TIP3   OH242179   1.165   5.780   0.862 -0.3582  0.3358  0.2148
 5995TIP3    H142180   1.122   5.847   0.808 -0.0827  1.4727  1.3418
 5995TIP3    H242181   1.256   5.809   0.869 -0.0820 -0.5103  0.1962
 5996TIP3   OH242182   7.528   7.344   2.619 -0.2314 -0.2170  0.8376
 5996TIP3    H142183   7.534   7.392   2.702 -0.4847  0.9054  0.2267
 5996TIP3    H242184   7.603   7.285   2.620  0.7848  1.0487  1.0874
 5997TIP3   OH242185   5.928   7.089   2.041  0.0057 -0.0811 -0.1949
 5997TIP3    H142186   5.978   7.097   2.122  1.3699 -1.0047 -0.8881
 5997TIP3    H242187   5.987   7.122   1.973 -0.8132 -0.0266 -0.8956
 5998TIP3   OH242188   5.576   2.193   1.533  0.2554  0.6291  0.0315
 5998TIP3    H142189   5.588   2.282   1.500  2.8345 -0.1195 -1.2986
 5998TIP3    H242190   5.637   2.139   1.482 -0.4266 -1.7463  1.5243
 5999TIP3   OH242191   6.405   2.099   2.459  0.3205  0.3375 -0.1237
 5999TIP3    H142192   6.414   2.177   2.403 -0.0417  0.3791 -0.1294
 5999TIP3    H242193   6.375   2.030   2.400  0.3756  0.2647 -0.0665
 6000TIP3   OH242194   4.244   7.263   2.751 -0.7251 -0.2955  0.0162
 6000TIP3    H142195   4.155   7.279   2.723 -0.4934 -0.4242 -0.8058
 6000TIP3    H242196   4.259   7.170   2.733 -0.7441 -0.5175  1.0662
 6001TIP3   OH242197   2.443   2.704   1.604  0.6789 -0.1023  0.8153
 6001TIP3    H142198   2.351   2.694   1.579  0.9599 -1.4319  0.2263
 6001TIP3    H242199   2.465   2.795   1.580 -0.1879 -0.1037 -0.0398
 6002TIP3   OH242200   6.593   2.419   1.537 -0.0198  0.2936 -0.3873
 6002TIP3    H142201   6.610   2.484   1.469  1.4108  1.9466  1.4129
 6002TIP3    H242202   6.593   2.335   1.491 -0.0892  1.4187 -2.5378
 6003TIP3   OH242203   3.155   2.181   2.094  0.0867  0.4816  0.2096
 6003TIP3    H142204   3.125   2.248   2.033  0.2269 -0.1218 -0.5313
 6003TIP3    H242205   3.142   2.220   2.181 -1.1207  0.9320 -0.1618
 6004TIP3   OH242206   5.437   4.446   1.586 -0.5035 -0.4250 -0.4941
 6004TIP3    H142207   5.389   4.438   1.504  0.0623  0.8379 -0.9749
 6004TIP3    H242208   5.520   4.489   1.562  0.7549 -2.2358  0.3630
 6005TIP3   OH242209   3.775   0.667   1.589 -0.6630  0.1824  0.5512
 6005TIP3    H142210   3.717   0.597   1.560 -0.0789 -0.5393  1.0718
 6005TIP3    H242211   3.815   0.633   1.670 -0.3862  1.1223  0.8213
 6006TIP3   OH242212   0.760   3.317   0.789  0.3465 -0.0110 -0.3207
 6006TIP3    H142213   0.685   3.259   0.803  0.5193 -0.2263 -0.2676
 6006TIP3    H242214   0.735   3.400   0.828  0.0417 -0.0110 -0.5158
 6007TIP3   OH242215   0.288   2.686   1.306  0.1266  0.3318 -0.0625
 6007TIP3    H142216   0.347   2.760   1.316  2.1851 -1.4828  2.7237
 6007TIP3    H242217   0.329   2.631   1.239  0.5580 -0.0005  0.4723
 6008TIP3   OH242218   6.800   2.917   0.504  0.1511  0.2922 -0.0122
 6008TIP3    H142219   6.819   2.973   0.579 -0.8080  0.5266  0.0744
 6008TIP3    H242220   6.867   2.939   0.439  0.9351  0.1445  0.7347
 6009TIP3   OH242221   1.863   2.975   2.268 -0.2400 -0.2741  0.1550
 6009TIP3    H142222   1.899   3.011   2.187 -0.8236  0.0271  0.0268
 6009TIP3    H242223   1.916   2.897   2.285 -1.1278 -1.2493 -1.3631
 6010TIP3   OH242224   3.459   4.434   2.047  0.1692 -0.6143  0.2681
 6010TIP3    H142225   3.508   4.393   1.975 -1.3082  0.8308 -1.6673
 6010TIP3    H242226   3.524   4.484   2.095  1.0012 -0.5612 -0.8648
 6011TIP3   OH242227   7.501   6.044   1.087  0.3554  0.2178 -0.2304
 6011TIP3    H142228   7.415   6.087   1.089 -0.1407 -0.6698 -1.3908
 6011TIP3    H242229   7.535   6.061   0.999  0.8536 -0.4077 -0.1670
 6012TIP3   OH242230   0.958   2.305   2.955  0.1443 -0.7121 -0.3076
 6012TIP3    H142231   0.986   2.214   2.960  0.9520 -0.4581 -0.0257
 6012TIP3    H242232   0.881   2.304   2.898  0.0314 -1.5939 -0.1447
 6013TIP3   OH242233   0.065   3.090   0.582 -0.0979 -0.0498 -0.0798
 6013TIP3    H142234   0.134   3.067   0.520 -0.3102  0.5637 -0.5532
 6013TIP3    H242235   0.101   3.163   0.632  0.1185 -0.6175  0.6132
 6014TIP3   OH242236   1.533   1.346   2.354  0.2055 -0.3521 -0.5719
 6014TIP3    H142237   1.545   1.405   2.428 -0.9506  0.2281 -0.8183
 6014TIP3    H242238   1.551   1.259   2.389 -2.3303 -0.3433  0.9853
 6015TIP3   OH242239   5.687   3.553   2.740  0.1787 -0.0751  0.1316
 6015TIP3    H142240   5.732   3.470   2.756  2.4249  1.1122  0.3671
 6015TIP3    H242241   5.660   3.582   2.827 -0.6656 -0.5646  0.0423
 6016TIP3   OH242242   2.464   1.605   1.883  0.4032 -0.4999  0.1898
 6016TIP3    H142243   2.460   1.535   1.817  1.1165  0.5070 -0.9434
 6016TIP3    H242244   2.426   1.681   1.840  0.7349  0.1370  1.0004
 6017TIP3   OH242245   3.066   4.390   1.661 -0.5708 -0.1820  0.7543
 6017TIP3    H142246   3.085   4.388   1.567 -2.8570 -2.0211  0.2460
 6017TIP3    H242247   3.079   4.482   1.686 -0.0704  0.3774 -1.3870
 6018TIP3   OH242248   0.768   4.978   2.167  0.8375 -0.5582  0.1789
 6018TIP3    H142249   0.809   5.064   2.173  0.7211 -0.2819 -2.1117
 6018TIP3    H242250   0.701   4.978   2.235  0.9497  1.0912  0.3178
 6019TIP3   OH242251   2.629   3.324   2.494 -0.7614  0.0152  0.1282
 6019TIP3    H142252   2.565   3.395   2.491 -0.3202  0.4278  0.3326
 6019TIP3    H242253   2.592   3.261   2.556 -0.4700  0.7581  1.0850
 6020TIP3   OH242254   0.903   3.975   0.986  0.6344 -0.1324 -0.2139
 6020TIP3    H142255   0.865   3.887   0.992  2.5308 -1.0601 -1.0440
 6020TIP3    H242256   0.867   4.010   0.905 -1.3075  0.5127  0.8549
 6021TIP3   OH242257   1.163   6.159   0.340  0.3022 -0.1779 -0.0049
 6021TIP3    H142258   1.243   6.106   0.333 -0.1446 -0.6860 -1.5792
 6021TIP3    H242259   1.194   6.249   0.332  0.8650 -0.2757  0.8626
 6022TIP3   OH242260   7.272   3.321   1.982 -0.5550 -0.4385 -0.4406
 6022TIP3    H142261   7.274   3.381   1.907  1.1638 -0.0883 -0.1603
 6022TIP3    H242262   7.240   3.375   2.055 -1.2560 -0.5067 -0.6938
 6023TIP3   OH242263   6.477   5.553   1.176 -0.1635  0.0266  0.1395
 6023TIP3    H142264   6.390   5.561   1.215  0.3132 -0.4609  1.3797
 6023TIP3    H242265   6.465   5.496   1.101 -0.5993 -1.8181  1.5385
 6024TIP3   OH242266   3.312   1.549   1.225  0.5742 -0.7112  0.7534
 6024TIP3    H142267   3.287   1.535   1.317  0.3380  1.1018  1.0050
 6024TIP3    H242268   3.382   1.614   1.229  0.9439 -1.0208 -0.3305
 6025TIP3   OH242269   5.448   0.768   1.580 -0.1180 -0.3009  0.0442
 6025TIP3    H142270   5.453   0.676   1.607  0.7310 -0.2373  0.1177
 6025TIP3    H242271   5.523   0.810   1.621 -0.3600  0.3818 -0.1895
 6026TIP3   OH242272   6.228   5.618   1.796 -0.2975 -0.3303  0.4593
 6026TIP3    H142273   6.207   5.572   1.715 -0.8947  0.3564  0.2129
 6026TIP3    H242274   6.303   5.673   1.775 -0.6474  0.0847  0.2757
 6027TIP3   OH242275   3.254   4.746   0.947 -0.4755 -0.4786  0.1505
 6027TIP3    H142276   3.225   4.828   0.987 -0.7559 -0.4745 -0.0586
 6027TIP3    H242277   3.294   4.696   1.019 -0.7818 -0.3812  0.3866
 6028TIP3   OH242278   5.616   6.554   2.654 -0.0447  0.3590 -0.1710
 6028TIP3    H142279   5.529   6.514   2.650 -0.3041  0.7176  1.3340
 6028TIP3    H242280   5.676   6.480   2.666 -0.2324  0.2041 -0.1806
 6029TIP3   OH242281   4.121   6.710   0.574 -0.4602 -0.6821 -0.4276
 6029TIP3    H142282   4.055   6.707   0.504  0.1592 -2.1429 -0.9950
 6029TIP3    H242283   4.086   6.653   0.642  0.2086 -1.5135 -0.7581
 6030TIP3   OH242284   5.873   3.539   1.558  0.1009  0.3569  0.3303
 6030TIP3    H142285   5.865   3.448   1.530  1.1157  0.2733  0.2775
 6030TIP3    H242286   5.797   3.554   1.614  0.3284 -0.7508  0.9612
 6031TIP3   OH242287   7.269   5.178   1.871 -0.1122 -0.3422 -0.0853
 6031TIP3    H142288   7.283   5.099   1.925  1.0949 -0.2108 -0.1680
 6031TIP3    H242289   7.244   5.245   1.934 -2.4499 -1.0670 -0.1587
 6032TIP3   OH242290   5.466   3.844   1.523  1.0903  0.1796 -0.2087
 6032TIP3    H142291   5.438   3.887   1.442 -0.5226  0.2259  0.3427
 6032TIP3    H242292   5.505   3.762   1.493 -1.2969 -0.7635 -0.9945
 6033TIP3   OH242293   5.985   7.377   2.948  0.2306  0.2282 -0.4676
 6033TIP3    H142294   6.044   7.310   2.913 -0.6958 -0.8256 -0.0534
 6033TIP3    H242295   5.908   7.374   2.892  0.1290  0.8724 -0.3752
 6034TIP3   OH242296   4.444   4.669   0.307  0.0846  0.1167  0.3677
 6034TIP3    H142297   4.376   4.709   0.253  0.7467  1.2157  0.3129
 6034TIP3    H242298   4.397   4.616   0.371 -0.7201 -1.2702 -1.2975
 6035TIP3   OH242299   0.975   1.703   2.278 -0.1484 -0.7861 -0.6124
 6035TIP3    H142300   0.902   1.658   2.236  0.6305 -1.1862 -1.5615
 6035TIP3    H242301   0.956   1.695   2.372 -4.0893  3.5970 -0.6386
 6036TIP3   OH242302   0.100   3.437   2.300  0.2970 -0.4111 -0.2804
 6036TIP3    H142303   0.191   3.418   2.278  0.7766  1.2198  0.1282
 6036TIP3    H242304   0.101   3.462   2.392 -0.7482 -1.3662  0.0194
 6037TIP3   OH242305   2.823   7.218   1.404 -0.0558 -0.1918  0.3541
 6037TIP3    H142306   2.895   7.157   1.417  0.0206  0.0495  1.0823
 6037TIP3    H242307   2.837   7.287   1.469 -1.0180 -0.2117  0.6004
 6038TIP3   OH242308   6.093   3.206   2.122 -0.3338  0.0023 -0.0247
 6038TIP3    H142309   6.108   3.253   2.204  2.4812 -1.5447  0.4564
 6038TIP3    H242310   6.022   3.145   2.142 -0.2142  0.1916  1.0234
 6039TIP3   OH242311   7.158   0.504   1.900  0.7105  0.4431 -0.0145
 6039TIP3    H142312   7.162   0.449   1.977 -0.8441 -0.0347 -0.2379
 6039TIP3    H242313   7.145   0.593   1.934 -0.8785  0.1277  0.3017
 6040TIP3   OH242314   4.932   6.322   1.752 -0.0476  0.5536 -0.2323
 6040TIP3    H142315   4.875   6.392   1.783  2.0802  0.9485  3.3437
 6040TIP3    H242316   4.894   6.242   1.790  0.3890  0.4923  0.0781
 6041TIP3   OH242317   6.631   3.822   1.333  0.1109  0.1060 -0.3863
 6041TIP3    H142318   6.555   3.867   1.369 -1.6513 -1.4316 -1.9546
 6041TIP3    H242319   6.634   3.848   1.242 -0.7337 -2.4792 -1.2502
 6042TIP3   OH242320   5.074   2.769   2.757 -0.3533  0.1446 -0.4336
 6042TIP3    H142321   4.995   2.715   2.768  0.4961 -1.6186 -2.3850
 6042TIP3    H242322   5.146   2.712   2.783  0.4246  1.0866 -0.4767
 6043TIP3   OH242323   0.191   3.862   2.049  0.0059 -0.2149 -0.2483
 6043TIP3    H142324   0.226   3.884   2.136 -1.6069  0.8069  0.1885
 6043TIP3    H242325   0.111   3.813   2.067 -0.0367 -0.4943 -1.1704
 6044TIP3   OH242326   1.409   0.291   1.720 -0.3300  0.3981  0.2293
 6044TIP3    H142327   1.442   0.203   1.699  0.3444  0.5744  0.5283
 6044TIP3    H242328   1.478   0.330   1.773  0.3036  1.8635 -1.5918
 6045TIP3   OH242329   0.251   1.012   2.303 -0.0925 -0.1043 -0.0483
 6045TIP3    H142330   0.344   1.015   2.325 -0.6326  0.8034  2.5100
 6045TIP3    H242331   0.243   0.938   2.243  2.0533 -1.2208  0.9375
 6046TIP3   OH242332   7.492   4.084   0.786 -0.0301 -0.4675  0.0957
 6046TIP3    H142333   7.454   4.015   0.840 -1.0913 -0.1666 -0.2574
 6046TIP3    H242334   7.582   4.093   0.819 -0.8252  0.1511  2.2498
 6047TIP3   OH242335   7.288   0.464   2.753 -0.6101 -0.4503  0.5802
 6047TIP3    H142336   7.221   0.436   2.816  0.1592 -0.3586  1.4749
 6047TIP3    H242337   7.302   0.557   2.772 -1.5794  0.0161 -0.8932
 6048TIP3   OH242338   0.909   6.737   1.730 -0.1515  0.2071  0.1846
 6048TIP3    H142339   1.001   6.737   1.703 -0.4554 -0.1949 -0.8942
 6048TIP3    H242340   0.866   6.795   1.668 -0.8444 -0.6054 -0.1096
 6049TIP3   OH242341   7.500   2.673   1.985  0.1521 -0.1950 -0.2894
 6049TIP3    H142342   7.553   2.645   2.060  1.2464 -0.8745 -1.2861
 6049TIP3    H242343   7.477   2.591   1.940 -0.9352  0.1688 -0.4292
 6050TIP3   OH242344   0.895   0.050   0.787  0.3456 -0.3937  0.5328
 6050TIP3    H142345   0.856   0.014   0.867  2.5179 -1.2874  1.2682
 6050TIP3    H242346   0.925   0.137   0.812 -0.6427  0.0816  0.1189
 6051TIP3   OH242347   0.268   5.988   2.822  0.4860 -0.2085  0.7896
 6051TIP3    H142348   0.212   5.915   2.847  0.3514 -0.1108  0.7767
 6051TIP3    H242349   0.234   6.063   2.871  1.1755 -0.3359  1.4803
 6052TIP3   OH242350   3.002   2.494   1.005  0.1187 -0.0722 -0.1786
 6052TIP3    H142351   3.017   2.488   0.910  0.4601  0.7915 -0.1907
 6052TIP3    H242352   2.943   2.569   1.015 -0.5802 -0.6596  0.2379
 6053TIP3   OH242353   0.030   5.786   2.374 -0.3675 -0.0670  0.3353
 6053TIP3    H142354   0.086   5.736   2.315 -0.7165  0.9321 -0.8744
 6053TIP3    H242355   0.008   5.724   2.444 -0.5498 -1.4992 -0.9514
 6054TIP3   OH242356   3.868   4.218   1.717  0.3507  0.3269 -0.1906
 6054TIP3    H142357   3.816   4.148   1.755 -0.2227  0.6415 -0.3880
 6054TIP3    H242358   3.958   4.183   1.715 -0.0191 -0.6299 -0.8354
 6055TIP3   OH242359   2.739   1.226   2.851  0.4989 -0.3301  0.3370
 6055TIP3    H142360   2.732   1.187   2.764 -0.1143  0.9870 -0.2476
 6055TIP3    H242361   2.764   1.317   2.834 -0.8101  0.2804  1.4489
 6056TIP3   OH242362   4.988   7.103   1.975  0.0415  0.0601  0.3671
 6056TIP3    H142363   5.002   7.021   2.023 -2.1508  0.1689  1.2895
 6056TIP3    H242364   4.949   7.076   1.892 -4.0514  0.1799  2.0277
 6057TIP3   OH242365   6.365   6.671   2.946  0.2216  0.0296 -0.3667
 6057TIP3    H142366   6.308   6.720   2.886 -1.2360 -1.3281 -0.1417
 6057TIP3    H242367   6.412   6.739   2.995 -1.4238  1.2064 -0.3449
 6058TIP3   OH242368   0.699   4.545   1.357  0.3841  0.0026 -0.0110
 6058TIP3    H142369   0.604   4.533   1.358  0.1091  1.6521 -1.4865
 6058TIP3    H242370   0.734   4.463   1.391 -1.5926  0.0222  2.3426
 6059TIP3   OH242371   4.510   0.016   2.027 -0.4912 -0.7351  0.5867
 6059TIP3    H142372   4.519  -0.073   1.994  0.3458 -0.7703  0.8732
 6059TIP3    H242373   4.581   0.064   1.983 -0.5944 -0.3398  0.8509
 6060TIP3   OH242374   4.175   1.553   1.671  0.3423 -0.2166  0.2422
 6060TIP3    H142375   4.172   1.524   1.580  0.3264  1.1200 -0.2045
 6060TIP3    H242376   4.212   1.642   1.667 -1.2179  0.5333  1.3524
 6061TIP3   OH242377   2.585   1.134   1.128  0.1668  0.1889  0.3465
 6061TIP3    H142378   2.505   1.136   1.181 -0.6451  2.3874 -0.8603
 6061TIP3    H242379   2.654   1.162   1.188 -0.7460  2.6672  0.3459
 6062TIP3   OH242380   2.741   1.582   0.603 -0.6719  0.3168  0.0501
 6062TIP3    H142381   2.800   1.643   0.560 -0.6382  0.6917  0.6051
 6062TIP3    H242382   2.744   1.503   0.550  0.1590  0.4046 -0.0489
 6063TIP3   OH242383   1.119   4.752   0.814 -0.4650 -0.1062 -0.2096
 6063TIP3    H142384   1.069   4.830   0.837 -0.7401 -0.0084 -1.0775
 6063TIP3    H242385   1.096   4.735   0.722 -0.3596 -1.1699 -0.0546
 6064TIP3   OH242386   1.578   1.438   1.738  0.3863  0.3868  0.4342
 6064TIP3    H142387   1.549   1.468   1.825 -0.5680 -0.3865  0.4075
 6064TIP3    H242388   1.641   1.369   1.756  0.7247  0.7099  0.5030
 6065TIP3   OH242389   1.901   0.367   0.734 -0.1955 -0.2929 -0.0478
 6065TIP3    H142390   1.910   0.441   0.794 -1.3639  0.3951 -0.6836
 6065TIP3    H242391   1.833   0.394   0.673 -0.4657 -1.7948 -0.4576
 6066TIP3   OH242392   2.055   5.975   1.313 -0.3913 -0.0341 -0.2977
 6066TIP3    H142393   2.123   6.033   1.346 -0.3639 -0.0939 -0.2502
 6066TIP3    H242394   2.011   6.026   1.244  0.7632 -0.5717 -1.4864
 6067TIP3   OH242395   0.233   2.865   1.584  0.8617  0.2534 -0.3847
 6067TIP3    H142396   0.316   2.825   1.560  0.8751  0.4397 -0.6568
 6067TIP3    H242397   0.250   2.959   1.581  0.1868  0.3761 -2.2389
 6068TIP3   OH242398   2.931   0.320   2.945 -0.0919  0.1476 -0.4972
 6068TIP3    H142399   2.909   0.360   3.030  1.2274  0.1320 -0.1248
 6068TIP3    H242400   2.887   0.376   2.881 -2.1561 -0.5605  0.2215
 6069TIP3   OH242401   4.118   2.826   0.836 -0.2676 -0.0713 -0.2606
 6069TIP3    H142402   4.038   2.859   0.877 -0.1200  1.3105 -1.0445
 6069TIP3    H242403   4.091   2.748   0.788 -0.7351 -0.8142  1.1566
 6070TIP3   OH242404   2.032   5.540   1.072  0.0793  0.3881  0.3692
 6070TIP3    H142405   2.051   5.611   1.133 -0.6329  0.2302  0.7861
 6070TIP3    H242406   2.117   5.519   1.033  0.2151  1.8885 -0.2415
 6071TIP3   OH242407   0.375   1.646   1.197 -0.0378  0.0078  0.5201
 6071TIP3    H142408   0.459   1.680   1.167 -0.2863 -0.1988 -0.4275
 6071TIP3    H242409   0.357   1.695   1.278 -0.1694  1.8276 -0.5529
 6072TIP3   OH242410   1.984   7.495   2.247  0.0576  0.3717 -0.5354
 6072TIP3    H142411   1.988   7.404   2.276 -0.4869  0.6953  0.6284
 6072TIP3    H242412   2.068   7.532   2.276 -0.1369  0.4836 -0.1061
 6073TIP3   OH242413   2.538   7.060   3.062  0.5083  0.0358 -0.7217
 6073TIP3    H142414   2.534   6.982   3.118 -0.2659  0.4175 -0.2206
 6073TIP3    H242415   2.455   7.059   3.015  1.9464 -1.4243 -3.5170
 6074TIP3   OH242416   1.522   6.301   0.410 -0.0945 -0.4578  0.1659
 6074TIP3    H142417   1.585   6.308   0.338 -0.3559  1.2224  0.0673
 6074TIP3    H242418   1.438   6.284   0.367  0.1463 -2.0807  0.2636
 6075TIP3   OH242419   5.117   4.851   0.345  0.3751  0.1273 -0.1804
 6075TIP3    H142420   5.186   4.795   0.310  2.3113  1.5120  1.2625
 6075TIP3    H242421   5.057   4.789   0.388 -0.1367 -1.2310 -2.6298
 6076TIP3   OH242422   4.741   1.260   2.254  0.2912  0.2846  0.3863
 6076TIP3    H142423   4.754   1.259   2.159  0.5934 -0.2581  0.4307
 6076TIP3    H242424   4.730   1.352   2.276  3.2081  0.7464  0.2353
 6077TIP3   OH242425   0.373   2.963   1.331 -0.0404  0.1585  0.3750
 6077TIP3    H142426   0.338   2.991   1.247  3.7826 -0.8168 -1.7657
 6077TIP3    H242427   0.435   3.032   1.355  1.2315 -1.0783  0.7593
 6078TIP3   OH242428   4.865   4.422   0.623  0.0470 -0.4076  0.1080
 6078TIP3    H142429   4.839   4.434   0.532 -1.4680 -0.0028  0.5691
 6078TIP3    H242430   4.819   4.344   0.651  1.1224 -0.9856  0.3344
 6079TIP3   OH242431   6.936   0.930   2.849 -0.4542  0.0305  0.0205
 6079TIP3    H142432   6.854   0.978   2.841 -0.1672  0.4056 -0.7881
 6079TIP3    H242433   7.004   0.995   2.829  0.0102 -0.3774  0.2530
 6080TIP3   OH242434   7.100   4.037   0.513 -0.3842  0.5219 -0.0941
 6080TIP3    H142435   7.058   4.005   0.593 -0.3987  1.8806  0.4766
 6080TIP3    H242436   7.044   4.110   0.485  0.8863  1.5843  0.0041
 6081TIP3   OH242437   2.880   0.382   0.637  0.3820  0.2497 -0.0072
 6081TIP3    H142438   2.813   0.318   0.610  1.0846 -0.9385  0.9445
 6081TIP3    H242439   2.866   0.393   0.731  1.4950 -0.0075  0.2068
 6082TIP3   OH242440   5.735   0.366   0.598 -0.1186 -0.4434  0.2325
 6082TIP3    H142441   5.761   0.325   0.515  2.1051 -0.5373  0.9017
 6082TIP3    H242442   5.730   0.460   0.578  0.9259 -0.4084  0.0755
 6083TIP3   OH242443   6.558   4.147   2.494  0.3517  0.3920  0.0626
 6083TIP3    H142444   6.526   4.156   2.583  1.6083  0.8550  0.4739
 6083TIP3    H242445   6.586   4.055   2.487  1.8960  0.7871  0.7214
 6084TIP3   OH242446   3.770   1.793   0.552  0.4187 -0.0266  0.3589
 6084TIP3    H142447   3.775   1.712   0.603  0.5287 -0.4152 -0.2637
 6084TIP3    H242448   3.861   1.814   0.530  0.5274  1.0362  1.6945
 6085TIP3   OH242449   6.337   1.283   0.860  0.4140 -0.0105  0.5087
 6085TIP3    H142450   6.259   1.228   0.855  0.4372  0.0076 -0.1691
 6085TIP3    H242451   6.409   1.221   0.870  0.4490 -0.1165 -0.3415
 6086TIP3   OH242452   2.043   2.824   1.638  0.0402  0.4454  0.4475
 6086TIP3    H142453   1.972   2.888   1.643  0.6896  1.1347  1.2055
 6086TIP3    H242454   2.101   2.847   1.710  0.7506 -0.4558  0.1848
 6087TIP3   OH242455   1.220   1.672   0.473 -0.1003 -0.0633  0.8585
 6087TIP3    H142456   1.283   1.608   0.442  0.8797  2.1895 -2.2155
 6087TIP3    H242457   1.135   1.637   0.445 -0.0166 -1.5883  2.2977
 6088TIP3   OH242458   4.330   2.973   0.735  0.4834 -0.3883 -0.3677
 6088TIP3    H142459   4.392   2.929   0.793  0.0062  0.5895  0.9331
 6088TIP3    H242460   4.250   2.920   0.739  0.5763 -0.5319 -0.4351
 6089TIP3   OH242461   2.239   0.532   2.093  0.1504 -0.4130  0.2923
 6089TIP3    H142462   2.185   0.499   2.164 -0.2476 -1.4268 -0.4525
 6089TIP3    H242463   2.187   0.601   2.053 -0.2724 -0.8411  0.0839
 6090TIP3   OH242464   5.462   1.981   2.060  0.5269  0.1684 -0.3507
 6090TIP3    H142465   5.450   1.891   2.090  1.8420 -0.1663 -0.7546
 6090TIP3    H242466   5.509   1.973   1.977 -0.1968  1.1989 -0.8845
 6091TIP3   OH242467   6.896   2.988   0.780  0.4418  0.1675 -0.7692
 6091TIP3    H142468   6.988   2.993   0.754  0.9261  2.2255  1.0875
 6091TIP3    H242469   6.897   2.934   0.859  0.1171  0.6277 -0.4520
 6092TIP3   OH242470   2.985   4.158   2.278  0.7622  0.7601 -0.1001
 6092TIP3    H142471   3.035   4.143   2.198 -0.0485  0.6409 -0.5969
 6092TIP3    H242472   2.997   4.078   2.329 -1.9415 -0.9516 -1.8785
 6093TIP3   OH242473   3.066   4.272   1.017  0.5443  0.1924  0.2237
 6093TIP3    H142474   3.007   4.265   0.942  0.6342 -1.2138  0.2593
 6093TIP3    H242475   3.154   4.265   0.979  0.5885 -0.6131  0.4440
 6094TIP3   OH242476   1.174   7.216   2.002 -0.6334  0.2066  0.4283
 6094TIP3    H142477   1.157   7.123   1.998  0.2708  0.0578 -0.6135
 6094TIP3    H242478   1.248   7.229   1.943 -2.0439  1.8810 -1.0986
 6095TIP3   OH242479   4.637   3.501   0.788 -0.1594 -0.1914 -0.2506
 6095TIP3    H142480   4.612   3.418   0.747  0.7193 -0.4094 -0.3596
 6095TIP3    H242481   4.661   3.478   0.877  1.1611 -0.2401 -0.6022
 6096TIP3   OH242482   7.031   2.510   0.830  0.3205 -0.4100 -0.6324
 6096TIP3    H142483   7.015   2.571   0.757  0.7861 -1.9211 -2.0533
 6096TIP3    H242484   7.093   2.557   0.886 -1.2056  1.4057 -0.3410
 6097TIP3   OH242485   2.457   1.325   0.945  0.0607 -0.5064  0.3500
 6097TIP3    H142486   2.507   1.338   0.864  1.0960  1.6847  1.2378
 6097TIP3    H242487   2.520   1.288   1.006 -0.2665 -0.6490  0.6030
 6098TIP3   OH242488   6.936   1.220   0.748  0.5183  0.0148 -0.6636
 6098TIP3    H142489   6.991   1.163   0.803 -0.0319  1.0853  1.0991
 6098TIP3    H242490   6.995   1.291   0.722  0.5160  0.0537 -0.5640
 6099TIP3   OH242491   5.369   4.942   0.636 -0.1466 -0.3130 -0.1678
 6099TIP3    H142492   5.376   4.852   0.604 -0.0577 -0.0335 -0.9588
 6099TIP3    H242493   5.422   4.994   0.576 -0.0042  0.2452  0.4193
 6100TIP3   OH242494   6.701   7.238   1.502 -0.4451 -0.5865  0.0228
 6100TIP3    H142495   6.721   7.332   1.505 -0.3178 -0.6117 -0.0716
 6100TIP3    H242496   6.607   7.234   1.484 -0.9433 -0.4291  2.2629
 6101TIP3   OH242497   0.826   4.927   1.735 -0.6842 -0.1784 -0.1514
 6101TIP3    H142498   0.797   4.918   1.826  0.4893 -2.3335  0.0738
 6101TIP3    H242499   0.911   4.972   1.742  0.3554 -2.0541  0.0726
 6102TIP3   OH242500   3.631   0.686   1.323  0.2969  0.0898  0.8625
 6102TIP3    H142501   3.598   0.612   1.375 -1.8877 -0.4973 -1.1525
 6102TIP3    H242502   3.706   0.650   1.275 -0.1233 -0.5491  0.6644
 6103TIP3   OH242503   4.688   3.433   2.125 -0.1057  0.2636  0.1415
 6103TIP3    H142504   4.698   3.453   2.219 -0.4000 -0.3643  0.3130
 6103TIP3    H242505   4.727   3.346   2.115 -0.8003 -0.0234 -0.1604
 6104TIP3   OH242506   5.200   1.402   2.054 -0.0539  0.7935 -0.3569
 6104TIP3    H142507   5.138   1.474   2.040 -0.5850  0.5233  0.5521
 6104TIP3    H242508   5.166   1.355   2.130  0.5250 -0.1684 -0.6733
 6105TIP3   OH242509   1.880   0.094   1.327  0.2061  0.0296 -0.2284
 6105TIP3    H142510   1.891  -0.001   1.327 -1.2691 -0.2153  2.3351
 6105TIP3    H242511   1.801   0.109   1.275 -0.3363 -0.2770  0.5020
 6106TIP3   OH242512   0.374   5.474   1.649 -0.0744 -0.3003 -0.6079
 6106TIP3    H142513   0.414   5.512   1.571  1.6888  0.1116  0.4461
 6106TIP3    H242514   0.281   5.465   1.627  0.2263  0.6555 -2.4066
 6107TIP3   OH242515   7.115   5.523   1.589  0.3709 -0.1925 -0.5983
 6107TIP3    H142516   7.197   5.479   1.569 -0.4072 -2.3339  0.5400
 6107TIP3    H242517   7.139   5.594   1.649  1.2827 -1.8642  1.1335
 6108TIP3   OH242518   1.649   6.854   1.810 -0.0147 -0.1347 -0.0211
 6108TIP3    H142519   1.631   6.835   1.718  0.2123 -0.1958 -0.0543
 6108TIP3    H242520   1.724   6.798   1.831 -0.2767 -0.3645  0.2950
 6109TIP3   OH242521   3.720   1.123   1.773  0.1708  0.5296 -0.6138
 6109TIP3    H142522   3.651   1.125   1.706  1.0595  1.7334 -1.5412
 6109TIP3    H242523   3.719   1.033   1.805 -0.9305  0.1697 -1.5597
 6110TIP3   OH242524   5.208   2.673   1.252 -0.1208  0.1872 -0.0039
 6110TIP3    H142525   5.235   2.585   1.228 -1.7113  0.2287 -2.2485
 6110TIP3    H242526   5.170   2.663   1.339  0.7966 -1.0909  0.2790
 6111TIP3   OH242527   1.031   2.594   2.492 -0.3046  0.3706 -0.4261
 6111TIP3    H142528   1.019   2.684   2.462  0.1369 -0.5940 -3.9126
 6111TIP3    H242529   0.952   2.548   2.463  0.9219 -0.9983 -1.7806
 6112TIP3   OH242530   0.098   7.238   1.869 -0.5826 -0.2506 -0.2486
 6112TIP3    H142531   0.097   7.224   1.774 -1.4386 -1.9289 -0.0183
 6112TIP3    H242532   0.107   7.333   1.879  2.0368 -0.2064 -1.9711
 6113TIP3   OH242533   3.388   3.033   1.798 -0.6479  0.6206  0.0599
 6113TIP3    H142534   3.439   3.089   1.856 -2.9622  1.2674  1.5954
 6113TIP3    H242535   3.447   3.014   1.725  1.1112  2.8378  0.8007
 6114TIP3   OH242536   1.210   0.335   0.541 -0.6279 -0.1977 -0.4606
 6114TIP3    H142537   1.259   0.389   0.602 -1.6704 -0.6498  0.8071
 6114TIP3    H242538   1.140   0.392   0.509 -0.2923 -0.0708 -0.9908
 6115TIP3   OH242539   3.890   4.074   2.055 -0.2164  0.0547 -0.7716
 6115TIP3    H142540   3.912   4.017   2.129 -0.5647 -0.3665 -0.9865
 6115TIP3    H242541   3.803   4.107   2.076 -0.0925  0.3663 -0.7387
 6116TIP3   OH242542   5.163   0.409   1.201  0.1439  0.2479  0.6035
 6116TIP3    H142543   5.141   0.496   1.168  1.1135  0.6030  0.8567
 6116TIP3    H242544   5.193   0.425   1.291  1.3759 -0.2025  0.2910
 6117TIP3   OH242545   2.442   5.398   2.519 -0.0470 -0.4241  0.5270
 6117TIP3    H142546   2.506   5.339   2.558 -0.2848 -0.0375  1.5416
 6117TIP3    H242547   2.439   5.473   2.578 -1.6898 -0.5911  0.7214
 6118TIP3   OH242548   1.204   6.410   3.131  0.8142 -0.1577 -0.4193
 6118TIP3    H142549   1.234   6.342   3.071  2.6109  1.3375 -1.2779
 6118TIP3    H242550   1.273   6.416   3.197 -0.2419 -0.4452  0.7692
 6119TIP3   OH242551   7.266   6.177   1.167 -0.0802 -0.1146  0.4711
 6119TIP3    H142552   7.278   6.234   1.243 -1.8191  0.2670  0.4982
 6119TIP3    H242553   7.200   6.114   1.194 -0.4061 -0.2502 -0.5863
 6120TIP3   OH242554   6.571   3.708   1.642 -0.2689 -0.0694 -0.2815
 6120TIP3    H142555   6.533   3.781   1.594  0.3706  0.0863 -0.5609
 6120TIP3    H242556   6.518   3.702   1.722 -1.3860 -0.3845 -1.0217
 6121TIP3   OH242557   4.955   4.902   2.166  0.0399 -0.4077  0.0142
 6121TIP3    H142558   4.919   4.821   2.204 -2.0139 -0.0567 -1.0196
 6121TIP3    H242559   5.028   4.873   2.113 -0.7302 -1.6368 -0.4278
 6122TIP3   OH242560   4.765   3.351   1.038  0.1218  0.5042 -0.2303
 6122TIP3    H142561   4.698   3.284   1.032  1.5404 -0.9378 -0.6454
 6122TIP3    H242562   4.720   3.427   1.075 -2.2137  0.2685 -2.2958
 6123TIP3   OH242563   6.825   4.335   2.153 -0.3760 -0.2454  0.5490
 6123TIP3    H142564   6.867   4.249   2.148  0.3963  0.1227 -3.7710
 6123TIP3    H242565   6.740   4.322   2.111 -0.2033  1.0522 -0.2573
 6124TIP3   OH242566   2.344   5.145   1.252  0.0493  0.3197 -0.3746
 6124TIP3    H142567   2.390   5.187   1.325  0.2467 -1.7374  0.7445
 6124TIP3    H242568   2.361   5.203   1.177  3.3226  0.3940  0.2937
 6125TIP3   OH242569   3.026   0.859   1.988 -0.4984  0.9028 -0.8627
 6125TIP3    H142570   3.051   0.891   1.901  1.0716  1.4914 -0.2286
 6125TIP3    H242571   3.109   0.844   2.033 -1.2771  2.1033  1.0832
 6126TIP3   OH242572   2.466   0.456   2.876 -0.1201 -0.1576 -0.0868
 6126TIP3    H142573   2.491   0.479   2.966 -1.7623 -1.1482  0.6619
 6126TIP3    H242574   2.380   0.495   2.864 -0.3195 -0.8193 -0.9028
 6127TIP3   OH242575   4.586   3.160   0.624 -0.1176 -0.0270  0.3284
 6127TIP3    H142576   4.621   3.077   0.593  0.9303  0.2105  0.8316
 6127TIP3    H242577   4.549   3.141   0.710 -0.5198 -0.1134  0.1386
 6128TIP3   OH242578   3.672   1.565   0.972  0.4223 -0.7287  0.0784
 6128TIP3    H142579   3.720   1.583   1.053 -0.8379  1.4660  0.4311
 6128TIP3    H242580   3.597   1.512   0.998 -1.0306  1.5227  0.7848
 6129TIP3   OH242581   5.110   5.044   2.362 -0.0261  0.6946 -0.4131
 6129TIP3    H142582   5.092   4.978   2.296  0.7292  1.0000 -0.9363
 6129TIP3    H242583   5.027   5.091   2.373 -0.4450 -0.0498 -0.3537
 6130TIP3   OH242584   2.886   4.758   1.259  0.2224 -0.5767  0.1245
 6130TIP3    H142585   2.914   4.835   1.309  0.1487 -0.4327 -0.0532
 6130TIP3    H242586   2.800   4.782   1.224  0.0295 -0.8902  0.3876
 6131TIP3   OH242587   4.753   4.066   3.174  0.3785  0.2141 -0.7058
 6131TIP3    H142588   4.677   4.009   3.182 -0.0526  0.9399  0.5933
 6131TIP3    H242589   4.802   4.031   3.099 -0.5806 -1.0090 -0.7795
 6132TIP3   OH242590   1.170   2.393   0.746  0.4276 -0.2855 -0.4675
 6132TIP3    H142591   1.235   2.440   0.799  2.6666 -1.7304 -1.7439
 6132TIP3    H242592   1.116   2.463   0.708  2.3795  1.1771 -0.7443
 6133TIP3   OH242593   2.268   4.344   1.288  0.1473 -0.3637  0.2356
 6133TIP3    H142594   2.278   4.407   1.217 -1.3596  1.8002  1.8059
 6133TIP3    H242595   2.192   4.291   1.262 -2.9770  2.9284  1.7247
 6134TIP3   OH242596   2.775   1.889   1.228 -0.0328 -0.1929  0.3202
 6134TIP3    H142597   2.725   1.817   1.267  1.8405 -0.7980  1.7278
 6134TIP3    H242598   2.866   1.859   1.229  0.5175  1.2043 -1.3898
 6135TIP3   OH242599   2.410   1.394   2.693 -0.2390  0.1355  0.1810
 6135TIP3    H142600   2.474   1.456   2.726 -1.2607  1.2597  0.1343
 6135TIP3    H242601   2.384   1.430   2.608  0.4037 -1.2892 -0.6581
 6136TIP3   OH242602   1.316   1.398   0.441 -0.2468 -0.3803 -0.3017
 6136TIP3    H142603   1.379   1.326   0.453 -0.3112 -0.4091 -0.1265
 6136TIP3    H242604   1.237   1.356   0.408  0.1648 -0.2061 -1.5454
 6137TIP3   OH242605   6.104   5.354   0.565  0.4720 -0.0216  0.4173
 6137TIP3    H142606   6.053   5.418   0.514  0.3257 -0.6825 -0.2865
 6137TIP3    H242607   6.176   5.404   0.602 -0.3563  0.8155  0.9382
 6138TIP3   OH242608   4.431   1.355   1.345 -0.6536 -0.0213 -0.4847
 6138TIP3    H142609   4.447   1.293   1.416 -1.5337 -0.0981 -0.3458
 6138TIP3    H242610   4.504   1.416   1.350 -1.1803  0.5170  1.0707
 6139TIP3   OH242611   6.867   1.670   0.736  0.0575  0.0564 -0.1296
 6139TIP3    H142612   6.901   1.600   0.791  0.1532  0.5954  0.5163
 6139TIP3    H242613   6.928   1.674   0.662 -0.6965 -1.3978 -0.8536
 6140TIP3   OH242614   4.736   2.150   0.802 -0.7779 -0.0705 -0.5090
 6140TIP3    H142615   4.699   2.061   0.799 -1.3991  0.1943 -1.4720
 6140TIP3    H242616   4.675   2.200   0.856 -1.5375  0.2257 -1.6097
 6141TIP3   OH242617   7.148   6.382   1.006  0.5218 -0.2265 -0.0287
 6141TIP3    H142618   7.220   6.371   1.068 -0.4513  2.1188  1.6407
 6141TIP3    H242619   7.086   6.439   1.050 -0.7858  0.6169 -2.7227
 6142TIP3   OH242620   1.905   2.449   0.733  0.7086 -0.2492  0.4533
 6142TIP3    H142621   1.945   2.364   0.716  1.7441  0.5417 -1.3878
 6142TIP3    H242622   1.939   2.506   0.664  0.6080  1.8615  2.0313
 6143TIP3   OH242623   5.392   2.719   2.077 -0.4507  0.3438  0.3323
 6143TIP3    H142624   5.386   2.627   2.103  0.4309  0.7669  2.2358
 6143TIP3    H242625   5.310   2.736   2.029 -1.5294 -0.9260  1.6269
 6144TIP3   OH242626   1.329   4.218   2.756  0.3786 -0.2316 -0.7945
 6144TIP3    H142627   1.402   4.166   2.791 -3.7134 -6.0289  0.7918
 6144TIP3    H242628   1.289   4.257   2.834 -0.2363 -0.2674 -1.0888
 6145TIP3   OH242629   4.977   6.660   0.483 -0.2282  0.5901  0.3885
 6145TIP3    H142630   5.072   6.654   0.488 -0.2023  0.5655 -0.0727
 6145TIP3    H242631   4.950   6.580   0.438 -0.3503  1.1888 -0.6426
 6146TIP3   OH242632   2.887   0.009   1.809 -1.1017 -0.1906 -0.0026
 6146TIP3    H142633   2.840  -0.043   1.875 -1.9204  0.8063  0.2259
 6146TIP3    H242634   2.968   0.034   1.852 -1.3742 -0.0325  0.4264
 6147TIP3   OH242635   2.231   0.281   0.890 -0.1240 -0.5980  0.6429
 6147TIP3    H142636   2.240   0.373   0.917  1.2326 -0.1116 -1.2674
 6147TIP3    H242637   2.143   0.257   0.918 -0.0531  0.8635  2.3498
 6148TIP3   OH242638   0.429   0.738   0.430  0.0039 -0.0733  0.2381
 6148TIP3    H142639   0.428   0.643   0.414 -0.4741 -0.1918  0.9342
 6148TIP3    H242640   0.342   0.767   0.405  0.5556  0.4190 -1.2380
 6149TIP3   OH242641   3.784   0.829   0.911 -0.3128  0.3860 -0.0567
 6149TIP3    H142642   3.691   0.812   0.897  0.0008 -0.5244 -1.2717
 6149TIP3    H242643   3.827   0.747   0.884  0.7579  0.2722  1.8606
 6150TIP3   OH242644   2.470   5.618   1.661  0.4487  0.1204 -0.2556
 6150TIP3    H142645   2.557   5.608   1.622  0.5346 -0.5412  0.0974
 6150TIP3    H242646   2.439   5.702   1.627  0.7902 -0.1272 -1.2315
 6151TIP3   OH242647   1.030   4.182   0.406 -0.4104 -0.2056  0.5045
 6151TIP3    H142648   0.966   4.112   0.404 -0.7872  0.0885  1.7030
 6151TIP3    H242649   1.091   4.158   0.475  1.1046 -0.7386 -0.9495
 6152TIP3   OH242650   4.827   4.928   2.540 -0.0431  1.2116 -0.2912
 6152TIP3    H142651   4.812   5.009   2.490  1.3394  1.4142 -0.4086
 6152TIP3    H242652   4.806   4.952   2.630 -0.8924  1.3235 -0.5040
 6153TIP3   OH242653   3.875   5.602   0.615  0.2298  0.1807 -0.3636
 6153TIP3    H142654   3.784   5.573   0.621  0.2977 -0.1907 -1.0294
 6153TIP3    H242655   3.911   5.555   0.540  0.6023  1.2947 -0.9200
 6154TIP3   OH242656   0.934   5.477   1.612  0.0772 -0.2584 -0.1883
 6154TIP3    H142657   0.956   5.530   1.688 -0.8796  1.9260 -1.3486
 6154TIP3    H242658   0.860   5.522   1.572  0.1226 -1.7132 -2.0414
 6155TIP3   OH242659   6.315   0.277   2.012  0.2574 -0.2606 -0.1751
 6155TIP3    H142660   6.260   0.355   2.018 -1.2818 -1.4254  1.9572
 6155TIP3    H242661   6.368   0.278   2.091  0.1227 -1.4191 -0.0472
 6156TIP3   OH242662   0.404   7.085   1.289 -0.2254 -0.0985  0.3190
 6156TIP3    H142663   0.348   7.161   1.306  0.7327  0.6497  0.2406
 6156TIP3    H242664   0.349   7.024   1.241 -0.6290  1.1351 -0.8571
 6157TIP3   OH242665   2.267   1.520   1.157  0.1566  0.3295  0.0464
 6157TIP3    H142666   2.270   1.504   1.063 -0.4469  0.9296 -0.0792
 6157TIP3    H242667   2.187   1.479   1.186  0.5798 -0.2645  0.3838
 6158TIP3   OH242668   3.005   1.797   1.957 -0.3844 -0.2185  1.1954
 6158TIP3    H142669   2.918   1.761   1.971 -1.5849  2.5575  1.5376
 6158TIP3    H242670   3.023   1.781   1.864 -1.9381  0.4362  0.7457
 6159TIP3   OH242671   5.566   7.161   0.994  0.3025 -0.1163  0.0049
 6159TIP3    H142672   5.539   7.078   1.034  0.2160  0.1735  0.5596
 6159TIP3    H242673   5.536   7.155   0.904 -0.7562 -0.2069  0.3511
 6160TIP3   OH242674   1.055   6.031   0.811 -0.7005  0.2361 -0.3871
 6160TIP3    H142675   1.103   6.092   0.755  0.2248 -0.2429 -0.1424
 6160TIP3    H242676   1.021   6.085   0.882  2.2863  0.1645  1.2599
 6161TIP3   OH242677   3.675   1.180   0.730  0.5114  0.4275 -0.5507
 6161TIP3    H142678   3.632   1.100   0.762 -0.2892  0.9754 -0.2308
 6161TIP3    H242679   3.755   1.186   0.782  0.0375  0.4119  0.2027
 6162TIP3   OH242680   2.539   5.205   0.478  0.3698  0.1681 -0.3689
 6162TIP3    H142681   2.524   5.163   0.393 -1.0531 -0.5781  0.2349
 6162TIP3    H242682   2.571   5.135   0.534  0.2401  0.4193  0.0202
 6163TIP3   OH242683   2.031   0.576   1.454 -0.1975 -0.3772 -0.0955
 6163TIP3    H142684   1.955   0.623   1.419  1.5964  1.0143 -2.3694
 6163TIP3    H242685   2.043   0.502   1.395  1.7256  0.9316 -1.4986
 6164TIP3   OH242686   1.541   4.983   1.561  0.5494  0.2823 -0.7266
 6164TIP3    H142687   1.469   4.929   1.593 -0.3828  1.0083 -1.5280
 6164TIP3    H242688   1.590   5.007   1.640  0.0116 -0.3538 -0.1836
 6165TIP3   OH242689   6.352   4.268   1.121 -0.2336 -0.1815 -0.4671
 6165TIP3    H142690   6.409   4.340   1.092 -0.2041 -0.3071 -0.7272
 6165TIP3    H242691   6.263   4.303   1.113 -0.1556  0.3852  0.9648
 6166TIP3   OH242692   6.445   4.513   2.492  0.2514  0.3091 -0.3937
 6166TIP3    H142693   6.491   4.466   2.561 -0.7573 -0.7841 -0.4244
 6166TIP3    H242694   6.398   4.445   2.444  1.2634  0.9889 -2.4463
 6167TIP3   OH242695   1.786   7.036   2.060  0.1191  0.1669 -0.4259
 6167TIP3    H142696   1.802   6.963   2.000 -2.6078  0.4911 -1.6889
 6167TIP3    H242697   1.704   7.013   2.105  0.1279  1.6431  0.4278
 6168TIP3   OH242698   4.857   0.545   2.691 -0.0530 -0.0300 -0.5676
 6168TIP3    H142699   4.869   0.604   2.616 -0.6184  2.0605  0.8982
 6168TIP3    H242700   4.946   0.520   2.716  0.4045  2.1747  0.2267
 6169TIP3   OH242701   4.446   7.442   8.778 -0.6760  0.1155 -0.2559
 6169TIP3    H142702   4.484   7.519   8.735 -0.0497  0.0377  0.1357
 6169TIP3    H242703   4.478   7.368   8.727  0.3631 -0.0004  0.5252
 6170TIP3   OH242704   6.083   6.345   2.870 -0.6562 -0.2438  0.2502
 6170TIP3    H142705   6.063   6.262   2.827 -0.5784 -0.5849  0.8616
 6170TIP3    H242706   6.097   6.407   2.798  1.4378 -1.2529 -0.2943
 6171TIP3   OH242707   7.169   6.619   1.394 -0.1836 -0.1089 -0.6157
 6171TIP3    H142708   7.247   6.667   1.366  0.1017  0.7013  1.3985
 6171TIP3    H242709   7.110   6.687   1.428  0.1315 -1.0381  2.0897
 6172TIP3   OH242710   0.694   4.414   2.063  0.2442  0.0844 -0.0754
 6172TIP3    H142711   0.689   4.415   1.968  0.7631 -1.2426 -0.1372
 6172TIP3    H242712   0.692   4.506   2.089  1.5666  0.5285 -1.4374
 6173TIP3   OH242713   6.885   2.935   1.647  0.0803  0.1962 -0.5210
 6173TIP3    H142714   6.884   2.949   1.552  0.0015 -1.2471 -0.7579
 6173TIP3    H242715   6.805   2.886   1.664  1.0885 -1.3243 -0.0141
 6174TIP3   OH242716   7.355   2.700   1.278 -0.5453  0.4400 -0.5512
 6174TIP3    H142717   7.437   2.732   1.315 -0.9990  0.0241  0.8721
 6174TIP3    H242718   7.382   2.643   1.206  0.5045 -0.6829  0.6677
 6175TIP3   OH242719   4.586   6.834   1.918 -0.0143 -0.5191 -0.0695
 6175TIP3    H142720   4.670   6.808   1.957 -0.1004 -0.0257  0.4651
 6175TIP3    H242721   4.601   6.832   1.824  1.0206  0.9508  0.0455
 6176TIP3   OH242722   3.983   5.418   0.451  0.2376  0.4910 -0.7737
 6176TIP3    H142723   3.928   5.343   0.428 -0.0030  1.2268 -2.9238
 6176TIP3    H242724   4.063   5.380   0.486 -0.3406 -0.7229 -0.7219
 6177TIP3   OH242725   6.433   4.442   1.399 -0.5696 -0.0629 -0.5288
 6177TIP3    H142726   6.462   4.471   1.313 -1.9397 -0.2066 -1.0675
 6177TIP3    H242727   6.499   4.474   1.459 -0.1916  1.0468 -1.5104
 6178TIP3   OH242728   2.442   0.620   3.094 -0.1539 -0.0797 -0.1507
 6178TIP3    H142729   2.359   0.660   3.118  0.3488  0.1343  1.3107
 6178TIP3    H242730   2.491   0.691   3.051 -0.4346  0.0121 -0.3194
 6179TIP3   OH242731   4.283   5.988   1.910  0.1438 -0.6227  0.1538
 6179TIP3    H142732   4.233   5.966   1.831  1.9075  0.2012 -1.2395
 6179TIP3    H242733   4.253   5.923   1.975 -4.4731  1.2113  0.2574
 6180TIP3   OH242734   0.143   6.401   1.813 -0.1673  0.2183  0.2165
 6180TIP3    H142735   0.198   6.470   1.776  0.9313 -0.3903  0.6832
 6180TIP3    H242736   0.194   6.366   1.886 -0.9358 -0.7382  0.3072
 6181TIP3   OH242737   7.229   5.510   1.915  0.0894  0.0687 -0.2159
 6181TIP3    H142738   7.187   5.585   1.873 -1.2552 -0.8808 -0.6490
 6181TIP3    H242739   7.321   5.515   1.888 -0.0733  1.3030 -0.5910
 6182TIP3   OH242740   1.939   4.159   0.543  0.3840  0.9459  0.0292
 6182TIP3    H142741   2.021   4.123   0.507 -0.5550 -0.4773 -0.7956
 6182TIP3    H242742   1.900   4.207   0.469 -0.5818 -0.2766 -0.2794
 6183TIP3   OH242743   4.456   5.177   1.818  0.0779  0.1294  0.1202
 6183TIP3    H142744   4.405   5.217   1.748 -0.6295  0.0988  0.5985
 6183TIP3    H242745   4.468   5.247   1.882  0.2215  0.0087  0.2259
 6184TIP3   OH242746   0.133   2.676   2.230 -0.7150 -0.2643 -0.5144
 6184TIP3    H142747   0.173   2.617   2.294 -0.0242  1.0830  0.3365
 6184TIP3    H242748   0.207   2.712   2.180 -1.1970 -0.7948 -1.6477
 6185TIP3   OH242749   6.553   3.094   3.305 -0.3010 -0.3687 -0.0013
 6185TIP3    H142750   6.577   3.005   3.280 -0.3550  0.1600 -2.0890
 6185TIP3    H242751   6.635   3.135   3.332 -0.2113 -0.8961  0.5588
 6186TIP3   OH242752   5.447   5.201   1.706  0.3715 -0.1092 -0.2141
 6186TIP3    H142753   5.540   5.192   1.686  0.1494  0.2144 -1.4742
 6186TIP3    H242754   5.402   5.163   1.630 -0.5198 -0.3288  0.4114
 6187TIP3   OH242755   1.679   4.460   3.423 -0.2904  0.0827  0.0947
 6187TIP3    H142756   1.697   4.539   3.371 -0.0725  0.0454  0.1109
 6187TIP3    H242757   1.707   4.388   3.367  0.3564  0.0612  0.4241
 6188TIP3   OH242758   4.353   4.908   2.384  0.1882 -0.2088 -0.1284
 6188TIP3    H142759   4.301   4.975   2.428  0.6709 -0.8289  1.4604
 6188TIP3    H242760   4.409   4.872   2.453 -0.1171 -2.3094 -0.9029
 6189TIP3   OH242761   4.267   6.986   2.057  0.2805 -0.1296 -0.0418
 6189TIP3    H142762   4.328   6.914   2.045 -0.3894 -0.9119  1.1088
 6189TIP3    H242763   4.183   6.952   2.026 -0.5728 -0.7562  2.7093
 6190TIP3   OH242764   3.156   0.587   1.692  0.5200  0.1420 -0.0033
 6190TIP3    H142765   3.173   0.595   1.786 -0.8216  0.1496  0.2543
 6190TIP3    H242766   3.150   0.677   1.660 -0.5089  0.1637  0.2072
 6191TIP3   OH242767   0.018   5.505   0.908 -0.2428 -0.1888 -0.1756
 6191TIP3    H142768   0.100   5.487   0.954 -0.0281  0.3276 -0.3505
 6191TIP3    H242769   0.030   5.591   0.870 -0.1813 -0.8675 -1.7449
 6192TIP3   OH242770   2.673   1.858   1.572 -0.2528 -0.1764 -0.6132
 6192TIP3    H142771   2.583   1.886   1.555  0.1121  0.4786 -1.5881
 6192TIP3    H242772   2.718   1.872   1.488  0.9432  0.2778  0.0886
 6193TIP3   OH242773   3.780   5.128   1.420 -0.7338  0.3243  0.1157
 6193TIP3    H142774   3.719   5.123   1.346 -0.2445  1.1477 -0.3672
 6193TIP3    H242775   3.865   5.111   1.381 -0.7057 -1.3971  0.8936
 6194TIP3   OH242776   6.063   5.358   2.281 -0.4517 -0.4863  0.4674
 6194TIP3    H142777   6.048   5.418   2.353  3.1172 -0.8824  1.7205
 6194TIP3    H242778   5.976   5.324   2.259 -2.2194  2.9778  1.5112
 6195TIP3   OH242779   7.527   0.036   1.172 -0.2632  0.1645  0.4505
 6195TIP3    H142780   7.579   0.110   1.204  0.1990  0.0069  0.0764
 6195TIP3    H242781   7.514   0.055   1.079 -1.0817  0.3156  0.5841
 6196TIP3   OH242782   2.590   3.413   3.327 -0.1761 -0.5962 -0.0923
 6196TIP3    H142783   2.519   3.409   3.390 -0.4573  1.2720 -0.2159
 6196TIP3    H242784   2.593   3.506   3.301  2.3563 -0.5951 -0.0204
 6197TIP3   OH242785   5.729   0.570   1.024  0.2211  0.1817  0.2367
 6197TIP3    H142786   5.807   0.570   1.078  0.0795  0.3663  0.4400
 6197TIP3    H242787   5.671   0.505   1.065  0.3447 -0.1005 -0.0274
 6198TIP3   OH242788   5.346   6.715   2.796 -0.1606 -0.0078 -0.0674
 6198TIP3    H142789   5.387   6.653   2.856 -0.5823  0.1798  0.4224
 6198TIP3    H242790   5.291   6.770   2.852 -0.3850  0.3155 -0.5963
 6199TIP3   OH242791   7.296   1.537   1.637 -0.0630  0.1157  0.1386
 6199TIP3    H142792   7.303   1.445   1.609  0.4171  0.0173  0.5544
 6199TIP3    H242793   7.300   1.587   1.555 -0.0505 -0.2263 -0.0724
 6200TIP3   OH242794   6.711   7.332   2.347  0.1912  0.0408 -0.2303
 6200TIP3    H142795   6.649   7.266   2.317 -0.3244  0.7743 -0.8036
 6200TIP3    H242796   6.749   7.295   2.427 -0.5611 -0.6608 -0.1918
 6201TIP3   OH242797   5.466   6.847   3.283  0.3210  0.1625  0.7002
 6201TIP3    H142798   5.480   6.848   3.188 -2.2442  0.7097  0.2497
 6201TIP3    H242799   5.537   6.900   3.318  1.2155  0.1177 -0.9305
 6202TIP3   OH242800   2.074   2.331   2.330  0.5143  0.3540  0.1210
 6202TIP3    H142801   2.054   2.375   2.247  3.4015  2.3403  0.3667
 6202TIP3    H242802   2.036   2.387   2.397 -0.8568 -0.6795  0.2523
 6203TIP3   OH242803   4.728   3.010   1.458  0.0518 -0.4242 -0.2481
 6203TIP3    H142804   4.755   3.054   1.377  0.4071 -1.0429 -0.4675
 6203TIP3    H242805   4.762   2.921   1.450 -0.5532 -0.7034  0.2580
 6204TIP3   OH242806   0.586   5.237   0.470 -0.1609  0.3072 -0.2746
 6204TIP3    H142807   0.617   5.227   0.381  0.3022  1.3427 -0.2395
 6204TIP3    H242808   0.648   5.187   0.523  0.2851  0.7151 -0.4083
 6205TIP3   OH242809   5.008   2.178   2.096 -0.4459  0.6469  0.0869
 6205TIP3    H142810   4.971   2.127   2.024  1.3680  0.4975 -0.7894
 6205TIP3    H242811   5.009   2.268   2.063 -1.8039  0.9853  0.8755
 6206TIP3   OH242812   2.442   5.710   1.171 -0.0898 -0.2987  0.2180
 6206TIP3    H142813   2.422   5.785   1.115  1.2056  0.7781  1.1295
 6206TIP3    H242814   2.523   5.674   1.134  1.4332  1.1231  1.9760
 6207TIP3   OH242815   5.417   3.500   2.488 -0.4684  0.0313  0.0664
 6207TIP3    H142816   5.356   3.434   2.522 -2.0707  1.1557 -0.4837
 6207TIP3    H242817   5.442   3.550   2.565  2.2957 -2.2831  0.8401
 6208TIP3   OH242818   2.435   0.443   1.544 -0.1769 -0.1704 -0.3767
 6208TIP3    H142819   2.517   0.447   1.593 -0.8923 -1.8505  1.0797
 6208TIP3    H242820   2.462   0.442   1.452  1.4376 -0.7837  0.0708
 6209TIP3   OH242821   6.843   2.145   1.886 -0.3168 -0.3153 -0.5545
 6209TIP3    H142822   6.807   2.109   1.966 -1.7672 -0.1324 -1.1002
 6209TIP3    H242823   6.918   2.198   1.915 -0.7474 -0.3433  0.6607
 6210TIP3   OH242824   1.137   6.281   0.995 -0.6264  0.3308  0.1560
 6210TIP3    H142825   1.157   6.344   1.064 -1.8531 -0.1926  1.0127
 6210TIP3    H242826   1.043   6.290   0.981 -0.4819  0.0718 -1.1186
 6211TIP3   OH242827   2.002   0.177   1.040 -0.6782  0.4890 -0.5788
 6211TIP3    H142828   2.015   0.150   1.131 -0.0329  0.4519 -0.6814
 6211TIP3    H242829   1.940   0.113   1.005  0.9632 -0.9996 -0.8781
 6212TIP3   OH242830   1.845   5.624   1.565 -0.2249 -1.1257 -0.1659
 6212TIP3    H142831   1.903   5.570   1.512 -0.8356 -1.9805  0.0051
 6212TIP3    H242832   1.760   5.581   1.558 -0.7677 -0.0784 -0.1561
 6213TIP3   OH242833   3.502   4.284   2.731  0.0313 -0.2632  0.1266
 6213TIP3    H142834   3.451   4.221   2.680  0.2871 -0.5870  0.2687
 6213TIP3    H242835   3.451   4.298   2.810 -0.6029  0.6032 -0.4235
 6214TIP3   OH242836   0.745   4.994   0.933 -0.0534 -0.5551 -0.4962
 6214TIP3    H142837   0.795   4.944   0.997 -0.7068 -1.9091 -1.0122
 6214TIP3    H242838   0.678   5.038   0.984 -0.2235 -1.1763 -0.1780
 6215TIP3   OH242839   1.515   0.767   0.642  0.3722 -0.4996 -0.3529
 6215TIP3    H142840   1.458   0.843   0.641  0.3318 -0.5041 -2.3329
 6215TIP3    H242841   1.580   0.784   0.573  2.0472 -1.0418  1.0017
 6216TIP3   OH242842   2.168   7.463   1.246 -0.0346  0.1054  0.0179
 6216TIP3    H142843   2.185   7.529   1.314 -0.1599 -0.2397  0.3912
 6216TIP3    H242844   2.075   7.440   1.258  0.1130 -0.4336  0.1627
 6217TIP3   OH242845   6.113   4.585   2.900 -0.2107  0.2967  0.2549
 6217TIP3    H142846   6.164   4.516   2.945  0.0086  1.0641  1.2180
 6217TIP3    H242847   6.179   4.648   2.872 -0.0131 -1.3613 -3.5124
 6218TIP3   OH242848   3.285   1.175   0.700  0.1728 -0.3125 -0.0671
 6218TIP3    H142849   3.308   1.253   0.751  0.9337 -0.2684 -0.4643
 6218TIP3    H242850   3.313   1.102   0.755 -0.8056 -0.3269  0.4343
 6219TIP3   OH242851   2.123   3.675   2.187  0.2523  0.0883 -0.4486
 6219TIP3    H142852   2.157   3.740   2.126 -0.8567  1.2365  0.0975
 6219TIP3    H242853   2.194   3.612   2.197  1.7035  1.6411 -0.3875
 6220TIP3   OH242854   6.877   1.762   1.742 -0.6896 -0.0519  0.1583
 6220TIP3    H142855   6.802   1.761   1.801 -1.2626 -1.6905 -0.5370
 6220TIP3    H242856   6.853   1.826   1.674  0.0216  1.9157  1.6823
 6221TIP3   OH242857   5.406   4.669   1.777  0.9315 -0.0396  0.9547
 6221TIP3    H142858   5.495   4.703   1.789 -0.1607  4.1106 -1.0340
 6221TIP3    H242859   5.416   4.599   1.713  2.8287 -0.3725  1.5322
 6222TIP3   OH242860   2.151   6.265   1.676 -0.3652  0.1497  0.2246
 6222TIP3    H142861   2.226   6.325   1.677 -1.1332  1.1397  0.9660
 6222TIP3    H242862   2.170   6.205   1.604  0.5354  1.1784 -0.4452
 6223TIP3   OH242863   4.399   1.040   1.984  0.5228 -0.3269 -0.0781
 6223TIP3    H142864   4.366   1.065   2.070  0.5790  1.6643 -0.5861
 6223TIP3    H242865   4.326   0.991   1.944 -0.3141  0.5618  0.3116
 6224TIP3   OH242866   3.695   3.628   2.524 -0.0279  0.5395 -0.3838
 6224TIP3    H142867   3.735   3.665   2.602  0.2232  1.1388 -0.7933
 6224TIP3    H242868   3.769   3.592   2.474 -0.3452 -1.3628  0.4348
 6225TIP3   OH242869   3.955   4.641   1.370  0.1776  0.1443  0.3798
 6225TIP3    H142870   3.917   4.660   1.284 -1.2644  1.4928  1.2598
 6225TIP3    H242871   3.893   4.580   1.410  0.9485 -0.6345  0.4140
 6226TIP3   OH242872   2.482   1.954   1.374 -0.4404 -0.2850  0.0880
 6226TIP3    H142873   2.428   1.901   1.315 -1.6728  1.9174 -0.8907
 6226TIP3    H242874   2.422   1.981   1.444 -0.0207  0.3246  0.2225
 6227TIP3   OH242875   0.399   3.383   2.148 -0.4117 -0.2663  0.5360
 6227TIP3    H142876   0.441   3.334   2.218  1.9159  0.7132 -0.1041
 6227TIP3    H242877   0.413   3.330   2.070  1.7706  1.1330 -0.0919
 6228TIP3   OH242878   0.227   2.154   2.541  0.6548  0.0791 -0.0412
 6228TIP3    H142879   0.197   2.094   2.473  1.5365 -1.9094  1.2547
 6228TIP3    H242880   0.148   2.172   2.593  0.0589  1.3202 -1.3170
 6229TIP3   OH242881   6.483   6.162   2.050 -0.2488  0.3576  0.4413
 6229TIP3    H142882   6.488   6.144   2.143  2.3874  1.0534  0.5019
 6229TIP3    H242883   6.463   6.077   2.010  2.0813 -0.7313  1.4225
 6230TIP3   OH242884   7.339   5.637   0.778 -0.1828  0.0386 -0.1071
 6230TIP3    H142885   7.322   5.655   0.686 -2.2169 -0.3882  0.1315
 6230TIP3    H242886   7.400   5.563   0.778 -0.4262 -0.1706 -1.1033
 6231TIP3   OH242887   0.795   6.164   1.401 -0.5726 -0.6071  0.0242
 6231TIP3    H142888   0.853   6.105   1.353  1.3626  0.2277  1.2333
 6231TIP3    H242889   0.798   6.133   1.491  0.6674  1.3972  0.7359
 6232TIP3   OH242890   5.298   5.280   0.998 -0.0705 -0.0046 -0.3431
 6232TIP3    H142891   5.367   5.342   0.973  1.5580 -2.0305 -1.2179
 6232TIP3    H242892   5.346   5.201   1.025 -2.0500 -1.0342  0.3471
 6233TIP3   OH242893   6.541   6.731   3.315 -0.0873  0.0469  0.4957
 6233TIP3    H142894   6.616   6.769   3.269 -2.2083  0.1084 -3.3712
 6233TIP3    H242895   6.484   6.805   3.334 -0.4536 -0.2931  0.7486
 6234TIP3   OH242896   3.017   2.575   2.113 -0.3544 -0.4157 -0.6752
 6234TIP3    H142897   3.059   2.601   2.031  0.3978 -1.7209 -0.7444
 6234TIP3    H242898   3.070   2.616   2.182 -1.2406  1.0356 -0.8173
 6235TIP3   OH242899   3.088   7.410   0.624  0.5002 -0.2042  0.1528
 6235TIP3    H142900   3.104   7.494   0.667  1.8042 -0.5961  0.4838
 6235TIP3    H242901   3.014   7.427   0.566  0.7292  1.1771  0.2200
 6236TIP3   OH242902   7.212   6.572   2.545  0.3786 -0.3346  0.3302
 6236TIP3    H142903   7.225   6.615   2.629  0.4108  2.1283 -0.8566
 6236TIP3    H242904   7.299   6.568   2.505  0.0643  0.5526 -0.4854
 6237TIP3   OH242905   5.688   7.125   2.372  0.3347  0.1518 -0.7693
 6237TIP3    H142906   5.654   7.188   2.436  0.0985  1.4373 -2.0886
 6237TIP3    H242907   5.777   7.106   2.402  0.4211  1.1419 -0.3279
 6238TIP3   OH242908   4.731   0.416   1.354  0.0574  0.1454 -0.1764
 6238TIP3    H142909   4.783   0.366   1.292  0.4753 -2.7396  2.2878
 6238TIP3    H242910   4.789   0.489   1.380  0.2697  0.7679 -2.2409
 6239TIP3   OH242911   1.437   2.654   1.661  0.4536  0.3008 -0.2663
 6239TIP3    H142912   1.438   2.742   1.698  1.0771  0.4994 -0.7395
 6239TIP3    H242913   1.445   2.596   1.737  1.4456  0.6946 -0.0554
 6240TIP3   OH242914   1.565   4.420   2.244  0.1681 -0.4660  0.4742
 6240TIP3    H142915   1.628   4.473   2.194 -0.3765 -0.1811  0.0794
 6240TIP3    H242916   1.521   4.483   2.300 -0.3192 -0.5381  0.1745
 6241TIP3   OH242917   6.917   2.646   2.243 -0.3905  0.2511  0.1093
 6241TIP3    H142918   6.884   2.716   2.300 -0.6344  0.4605 -0.2829
 6241TIP3    H242919   6.846   2.583   2.239  0.4557 -0.9038  1.8656
 6242TIP3   OH242920   7.435   0.253   1.990  0.0955  0.0203 -0.2473
 6242TIP3    H142921   7.419   0.251   1.896  1.2203  0.9012 -0.4734
 6242TIP3    H242922   7.513   0.200   2.003 -1.2178 -1.8627  0.4904
 6243TIP3   OH242923   7.533   1.709   0.786 -0.3132 -0.6389  0.0667
 6243TIP3    H142924   7.541   1.644   0.856  0.9938 -0.8552 -0.2522
 6243TIP3    H242925   7.450   1.689   0.744  0.2308 -2.3749 -0.2540
 6244TIP3   OH242926   5.972   6.961   0.358 -0.4627  0.2217 -0.3348
 6244TIP3    H142927   5.934   7.042   0.392 -1.8904 -0.3773 -0.4403
 6244TIP3    H242928   5.993   6.980   0.267 -0.9907  0.4128 -0.4183
 6245TIP3   OH242929   4.725   1.995   1.167 -0.5374  0.2573 -0.2200
 6245TIP3    H142930   4.716   2.085   1.136 -0.1318  0.0944 -0.8154
 6245TIP3    H242931   4.694   1.941   1.095  1.5440 -0.1643 -0.8799
 6246TIP3   OH242932   0.710   0.659   0.466  0.1813  0.5034 -0.2243
 6246TIP3    H142933   0.625   0.688   0.435  0.3683  0.6808 -0.5783
 6246TIP3    H242934   0.703   0.563   0.470 -0.1509  0.5378  0.1100
 6247TIP3   OH242935   6.300   0.082   0.416  0.0209  0.2418  0.3533
 6247TIP3    H142936   6.234   0.023   0.452 -0.0782  0.0959 -0.0684
 6247TIP3    H242937   6.250   0.155   0.380  0.0411 -0.1773 -0.5507
 6248TIP3   OH242938   6.524   0.875   2.307  0.0195  0.2196  0.4684
 6248TIP3    H142939   6.532   0.933   2.382 -2.5674  0.2524  0.8207
 6248TIP3    H242940   6.614   0.849   2.286  0.9648  1.8570  2.2418
 6249TIP3   OH242941   0.445   1.537   0.612  0.5865 -0.2635 -1.0631
 6249TIP3    H142942   0.363   1.511   0.655 -0.4651 -0.3311 -3.0037
 6249TIP3    H242943   0.476   1.456   0.571  0.0218  0.3664 -2.8142
 6250TIP3   OH242944   0.193   5.143   2.829  0.1806  0.1545  0.3191
 6250TIP3    H142945   0.189   5.159   2.735  0.8409 -0.3868  0.1905
 6250TIP3    H242946   0.191   5.230   2.869 -0.1660  0.3841 -0.1883
 6251TIP3   OH242947   1.025   1.813   1.720 -0.3770  0.8791 -0.6015
 6251TIP3    H142948   0.999   1.885   1.778  2.3654  1.1497  0.4612
 6251TIP3    H242949   1.054   1.855   1.640 -4.6187  0.4809 -2.6149
 6252TIP3   OH242950   0.121   5.383   0.463 -0.7259 -0.1821  0.2705
 6252TIP3    H142951   0.186   5.318   0.486 -0.2724 -0.4531 -1.6418
 6252TIP3    H242952   0.039   5.350   0.501 -0.3123 -1.3352  0.1895
 6253TIP3   OH242953   4.709   6.870   2.953 -1.3723  0.0985 -0.4303
 6253TIP3    H142954   4.759   6.923   3.016 -2.1732 -0.3074  0.5731
 6253TIP3    H242955   4.736   6.903   2.868  0.8258 -0.2745  0.0415
 6254TIP3   OH242956   2.742   4.472   3.058 -0.1107  0.0660  0.5933
 6254TIP3    H142957   2.674   4.509   3.114 -0.8536 -1.1346  0.5170
 6254TIP3    H242958   2.810   4.540   3.055 -0.8049  0.8381  1.5647
 6255TIP3   OH242959   3.071   4.568   1.208 -0.2765  0.3661 -0.0853
 6255TIP3    H142960   3.027   4.488   1.179  0.9919  0.1252 -1.4337
 6255TIP3    H242961   3.000   4.631   1.218 -1.0802 -0.3632 -0.9824
 6256TIP3   OH242962   4.576   5.531   2.470  0.4745  0.2903 -0.0641
 6256TIP3    H142963   4.516   5.529   2.544  0.8088 -1.0372  0.1921
 6256TIP3    H242964   4.522   5.507   2.394  0.8373 -1.8249  0.3067
 6257TIP3   OH242965   1.674   3.456   1.366  0.2634  0.1400 -0.3380
 6257TIP3    H142966   1.603   3.416   1.417 -0.4370  0.9420 -0.6507
 6257TIP3    H242967   1.671   3.411   1.282 -0.4738  0.7726 -0.6632
 6258TIP3   OH242968   1.637   3.323   3.253 -0.1548  0.4851  0.1980
 6258TIP3    H142969   1.684   3.248   3.289 -1.4019  1.1671  3.5915
 6258TIP3    H242970   1.704   3.389   3.238  0.5383 -0.1461  0.4913
 6259TIP3   OH242971   3.546   0.641   1.860  0.6205  0.4732  0.3293
 6259TIP3    H142972   3.457   0.632   1.827  0.4352  3.3628 -0.2006
 6259TIP3    H242973   3.581   0.552   1.860 -1.8184 -0.5595 -0.6932
 6260TIP3   OH242974   1.801   2.493   1.006 -0.2002 -0.4855  0.2407
 6260TIP3    H142975   1.804   2.447   0.922  1.3317 -1.4900  0.8130
 6260TIP3    H242976   1.861   2.567   0.995 -1.5346  0.6039 -0.1748
 6261TIP3   OH242977   5.962   6.220   1.089  0.1576  0.2403 -0.3609
 6261TIP3    H142978   6.012   6.276   1.031  0.5738 -0.3006 -0.5252
 6261TIP3    H242979   5.957   6.270   1.171  1.3842  0.0962 -0.1809
 6262TIP3   OH242980   3.902   6.423   2.831  0.3245 -0.3711  0.7623
 6262TIP3    H142981   3.871   6.446   2.919 -1.3352  1.4819 -0.2411
 6262TIP3    H242982   3.862   6.338   2.813  0.9041 -0.9044  1.8625
 6263TIP3   OH242983   4.918   0.370   2.320 -0.3769 -0.2995 -0.1367
 6263TIP3    H142984   4.867   0.450   2.329  1.3240  0.9155 -1.0021
 6263TIP3    H242985   4.997   0.385   2.372  0.1279 -1.2758 -0.5934
 6264TIP3   OH242986   3.055   5.216   0.381  0.2103 -0.1860 -0.0167
 6264TIP3    H142987   3.134   5.181   0.422  0.4532  0.2958 -0.0602
 6264TIP3    H242988   3.059   5.186   0.290  0.5414  0.1524 -0.1164
 6265TIP3   OH242989   2.331   6.967   0.581  0.5392  0.0639 -0.5012
 6265TIP3    H142990   2.263   6.956   0.648  0.5710 -0.1503 -0.5047
 6265TIP3    H242991   2.412   6.979   0.631  0.3667  1.2778 -0.4760
 6266TIP3   OH242992   1.709   6.004   0.822 -0.7740 -0.5820 -0.2359
 6266TIP3    H142993   1.739   6.088   0.856 -0.0906 -0.0953 -1.9583
 6266TIP3    H242994   1.705   6.016   0.727 -3.3515 -1.6510 -0.3420
 6267TIP3   OH242995   1.427   7.283   1.835 -0.1323 -0.3318 -0.1828
 6267TIP3    H142996   1.500   7.267   1.895  0.2905  2.0922  0.0521
 6267TIP3    H242997   1.458   7.251   1.751  0.9084 -0.0863  0.0853
 6268TIP3   OH242998   6.419   4.067   0.930  0.8804 -0.0529  0.0240
 6268TIP3    H142999   6.388   3.982   0.960 -1.0108  0.1393 -1.2240
 6268TIP3    H243000   6.396   4.127   1.001  1.7188 -0.4579  0.6641
 6269TIP3   OH243001   0.882   7.524   2.488  0.0721 -0.8432 -0.3015
 6269TIP3    H143002   0.965   7.478   2.475  1.1791  0.6712  0.9146
 6269TIP3    H243003   0.907   7.616   2.499 -1.7847 -0.3221 -0.0362
 6270TIP3   OH243004   3.731   0.128   0.951 -0.2237  0.6084  0.0135
 6270TIP3    H143005   3.640   0.159   0.951 -0.2746  0.5641 -1.7358
 6270TIP3    H243006   3.779   0.192   0.899  0.5406  0.0881  0.0580
 6271TIP3   OH243007   5.535   0.714   0.871 -0.2342 -0.1305 -0.2303
 6271TIP3    H143008   5.470   0.719   0.940  0.1262 -2.3280  0.3398
 6271TIP3    H243009   5.597   0.647   0.901  0.7488 -0.0768 -2.0009
 6272TIP3   OH243010   4.128   1.574   2.388 -0.3541 -0.3227  0.7687
 6272TIP3    H143011   4.143   1.664   2.416 -1.0975 -0.5135  1.8525
 6272TIP3    H243012   4.125   1.578   2.292 -0.2130  0.7737  0.8061
 6273TIP3   OH243013   4.887   6.384   0.410 -0.1032  0.4493  0.5469
 6273TIP3    H143014   4.857   6.348   0.327 -0.4312  0.9562  0.4408
 6273TIP3    H243015   4.816   6.441   0.440  0.7979  1.8503  0.1775
 6274TIP3   OH243016   0.304   2.978   2.160  0.0163  0.7303  0.1373
 6274TIP3    H143017   0.323   3.024   2.242 -1.0215  1.7109 -0.1518
 6274TIP3    H243018   0.382   2.994   2.106  0.4801  0.5251  0.7339
 6275TIP3   OH243019   6.087   7.015   0.762 -0.1301 -0.0586 -0.0362
 6275TIP3    H143020   6.140   6.967   0.698 -0.4979 -2.1947  1.1584
 6275TIP3    H243021   6.080   6.956   0.836 -2.5949  0.9279  0.6297
 6276TIP3   OH243022   6.387   2.401   0.656  0.2143  0.5242 -0.1471
 6276TIP3    H143023   6.346   2.389   0.741  1.5422 -3.1333  0.1536
 6276TIP3    H243024   6.317   2.389   0.593 -0.1801 -0.1068  0.4044
 6277TIP3   OH243025   4.495   6.709   0.927  0.0759  0.3567 -0.2868
 6277TIP3    H143026   4.546   6.637   0.891  0.4497  1.8951 -3.0855
 6277TIP3    H243027   4.415   6.711   0.874 -0.2436  1.5460  0.2024
 6278TIP3   OH243028   5.722   0.769   3.531 -0.4052 -0.1951  0.3308
 6278TIP3    H143029   5.812   0.742   3.547 -0.4316 -1.4412 -1.2798
 6278TIP3    H243030   5.728   0.862   3.509  0.2740  0.1045  1.6977
 6279TIP3   OH243031   4.895   5.794   1.664 -0.2954  0.7887 -0.3604
 6279TIP3    H143032   4.962   5.730   1.688 -0.1854  0.5948 -1.1870
 6279TIP3    H243033   4.829   5.745   1.616 -0.6347  1.1329 -0.2538
 6280TIP3   OH243034   2.137   3.857   2.411 -0.2356  0.4366  0.0333
 6280TIP3    H143035   2.069   3.922   2.395  0.4130  0.8202 -1.3612
 6280TIP3    H243036   2.131   3.797   2.337  1.2472  0.7691 -0.3879
 6281TIP3   OH243037   4.403   5.819   2.535  0.4850  0.0939  0.9778
 6281TIP3    H143038   4.358   5.890   2.581  0.1591  1.0485 -0.7541
 6281TIP3    H243039   4.491   5.819   2.573  0.2069  0.7805  1.6651
 6282TIP3   OH243040   6.252   5.154   2.316 -0.0391  0.2688 -0.0535
 6282TIP3    H143041   6.202   5.235   2.315 -0.3854  0.0612  0.0378
 6282TIP3    H243042   6.207   5.097   2.253 -1.4542 -0.8065  1.8237
 6283TIP3   OH243043   3.102   0.918   1.724 -0.3354 -0.3502 -0.1620
 6283TIP3    H143044   3.138   0.894   1.639 -0.3127  0.4831 -0.3928
 6283TIP3    H243045   3.016   0.953   1.705 -0.9960 -1.6532  0.3213
 6284TIP3   OH243046   0.250   5.729   1.794 -0.6706 -0.2274 -0.3122
 6284TIP3    H143047   0.320   5.699   1.853  0.7335  1.8207 -0.8613
 6284TIP3    H243048   0.287   5.719   1.706 -0.2811  2.5532 -0.5403
 6285TIP3   OH243049   2.473   3.672   1.220  0.2266 -0.1187 -0.0816
 6285TIP3    H143050   2.426   3.639   1.297  1.2137 -1.2858  0.0416
 6285TIP3    H243051   2.403   3.691   1.157 -0.4680 -1.7615  0.1167
 6286TIP3   OH243052   3.328   6.583   2.444  0.3695 -0.3233 -0.1097
 6286TIP3    H143053   3.371   6.647   2.388  0.1737 -0.2903 -0.2230
 6286TIP3    H243054   3.352   6.498   2.407  0.9279 -0.3298  0.2566
 6287TIP3   OH243055   5.520   6.491   2.979  0.0705 -0.0273 -0.3468
 6287TIP3    H143056   5.545   6.409   2.937  0.6690 -0.6527  1.1965
 6287TIP3    H243057   5.433   6.475   3.015  0.4133 -0.1816  0.4316
 6288TIP3   OH243058   6.036   1.618   2.264 -0.2199  0.0648  0.1115
 6288TIP3    H143059   5.984   1.695   2.286 -1.2307 -1.1954  2.4742
 6288TIP3    H243060   5.984   1.572   2.198 -0.4267  0.5437 -0.0647
 6289TIP3   OH243061   3.360   5.737   2.679  0.0537  0.2350 -1.0858
 6289TIP3    H143062   3.411   5.656   2.676  0.5375  0.5136 -0.6312
 6289TIP3    H243063   3.276   5.712   2.718  0.9250  0.2983  0.9535
 6290TIP3   OH243064   0.957   3.090   0.745  0.6036  0.0057 -0.1998
 6290TIP3    H143065   1.040   3.112   0.788  0.4368  0.1480  0.0564
 6290TIP3    H243066   0.903   3.168   0.756  0.4545 -0.0676 -0.4121
 6291TIP3   OH243067   3.638   4.353   2.360  0.5588  0.8762  0.7111
 6291TIP3    H143068   3.668   4.262   2.348 -2.5241 -0.2557  0.6818
 6291TIP3    H243069   3.647   4.393   2.273  1.9669  0.6455  0.7293
 6292TIP3   OH243070   5.520   1.972   2.903  0.2313 -0.0909  0.1888
 6292TIP3    H143071   5.605   1.963   2.945  0.6423  0.4614 -0.5083
 6292TIP3    H243072   5.484   1.883   2.902  1.3349 -0.5547 -0.6230
 6293TIP3   OH243073   0.820   4.297   1.468  0.8533 -0.0731  0.2633
 6293TIP3    H143074   0.879   4.331   1.400 -0.8997  0.7523 -0.9423
 6293TIP3    H243075   0.875   4.289   1.546  2.5222  0.7459 -0.7648
 6294TIP3   OH243076   5.420   6.161   2.752  0.1929 -0.4452  0.1775
 6294TIP3    H143077   5.352   6.131   2.813 -0.9173  0.6531 -0.4670
 6294TIP3    H243078   5.500   6.165   2.805 -0.5161 -0.5546  1.2816
 6295TIP3   OH243079   3.029   1.784   1.244  0.2974 -0.3674 -0.1911
 6295TIP3    H143080   3.085   1.861   1.238 -1.1152  0.7741  0.5751
 6295TIP3    H243081   3.071   1.728   1.308  0.7436  0.3074  0.1136
 6296TIP3   OH243082   1.692   5.530   2.537 -0.5759  0.2784 -0.4363
 6296TIP3    H143083   1.773   5.485   2.511 -0.3898  0.2879  0.1160
 6296TIP3    H243084   1.627   5.460   2.544 -0.5380  0.2289 -0.5692
 6297TIP3   OH243085   0.257   2.964   0.409  0.0403 -0.3157  0.1759
 6297TIP3    H143086   0.334   2.910   0.427  0.1714  0.0814  0.8280
 6297TIP3    H243087   0.276   3.004   0.324 -0.0389 -1.2471 -0.2937
 6298TIP3   OH243088   7.558   6.520   2.248  0.1851  0.1000 -0.0735
 6298TIP3    H143089   7.539   6.495   2.338  1.3362 -1.5649 -0.2447
 6298TIP3    H243090   7.633   6.579   2.256 -0.9381  1.5527  0.1553
 6299TIP3   OH243091   3.387   3.489   1.844  0.2526 -0.0676  0.7954
 6299TIP3    H143092   3.383   3.469   1.750  1.1200 -1.2599  0.9907
 6299TIP3    H243093   3.461   3.549   1.852  0.0882  0.1493  0.7003
 6300TIP3   OH243094   0.889   5.531   0.814  0.2812 -0.4589 -0.7021
 6300TIP3    H143095   0.881   5.618   0.853  1.4308 -0.1755 -1.0753
 6300TIP3    H243096   0.832   5.533   0.737 -0.0686 -0.2082 -0.4416
 6301TIP3   OH243097   6.868   7.104   1.197  0.1931  0.1127 -0.7310
 6301TIP3    H143098   6.772   7.103   1.200  0.1199  0.7393 -2.2298
 6301TIP3    H243099   6.894   7.081   1.286 -1.3424 -0.5454 -0.4058
 6302TIP3   OH243100   1.880   7.355   1.324  0.0298  0.0412  0.2969
 6302TIP3    H143101   1.791   7.355   1.288 -0.4392  1.2929  1.3676
 6302TIP3    H243102   1.875   7.295   1.398  0.3317 -0.5801 -0.1749
 6303TIP3   OH243103   4.292   1.061   1.108  0.1538  0.3479  0.1796
 6303TIP3    H143104   4.237   1.104   1.042  0.6238  0.6336 -0.0377
 6303TIP3    H243105   4.262   0.970   1.109  0.1108  0.3507 -0.4041
 6304TIP3   OH243106   5.616   3.733   2.543 -0.2429  0.2448 -0.0387
 6304TIP3    H143107   5.643   3.820   2.569  1.1480  0.0540 -0.7337
 6304TIP3    H243108   5.628   3.679   2.621 -1.0648  0.6501  0.3779
 6305TIP3   OH243109   0.676   1.577   2.605 -0.2600  0.0559  0.2034
 6305TIP3    H143110   0.645   1.515   2.671  0.2891 -0.4104  0.0340
 6305TIP3    H243111   0.597   1.622   2.576 -0.4195  0.8156  1.7094
 6306TIP3   OH243112   6.969   6.182   1.070  0.0184  0.2745 -0.0166
 6306TIP3    H143113   7.038   6.241   1.041  3.1826 -2.3640  1.4716
 6306TIP3    H243114   6.997   6.095   1.042 -2.9988 -0.9454  0.2666
 6307TIP3   OH243115   3.441   3.401   0.793 -0.6812 -0.5455  0.1594
 6307TIP3    H143116   3.387   3.371   0.866 -0.8881 -0.2531  0.1278
 6307TIP3    H243117   3.385   3.393   0.716 -0.3817 -1.0924 -0.0105
 6308TIP3   OH243118   7.179   4.536   1.093 -0.0698 -0.1158 -0.1831
 6308TIP3    H143119   7.200   4.626   1.067  0.5536 -0.2724 -0.2410
 6308TIP3    H243120   7.153   4.493   1.011 -0.4493  0.0343 -0.1412
 6309TIP3   OH243121   0.837   7.329   0.903  0.1613  0.0688  0.6925
 6309TIP3    H143122   0.907   7.307   0.841  0.3174 -0.4017  1.0308
 6309TIP3    H243123   0.866   7.291   0.986 -1.6364 -2.3555  0.3089
 6310TIP3   OH243124   3.857   2.899   0.910 -0.0496  0.7545  0.3324
 6310TIP3    H143125   3.818   2.985   0.928 -1.5691  0.1059  0.2918
 6310TIP3    H243126   3.820   2.874   0.825 -0.6012 -0.4747  0.9158
 6311TIP3   OH243127   1.041   5.001   2.348  0.1560 -0.4539  0.6044
 6311TIP3    H143128   0.980   5.072   2.328  1.6065  1.4642  2.5289
 6311TIP3    H243129   1.082   4.981   2.263 -0.9659  0.3211 -0.1524
 6312TIP3   OH243130   0.290   0.925   0.696 -0.2986  0.3726 -0.1275
 6312TIP3    H143131   0.294   1.008   0.742 -2.4893  0.9314 -0.7860
 6312TIP3    H243132   0.338   0.940   0.615 -0.3032  0.8655 -0.0424
 6313TIP3   OH243133   7.158   4.057   1.228  0.9373 -0.1088  0.7339
 6313TIP3    H143134   7.240   4.008   1.232  1.5298  0.9293  2.0621
 6313TIP3    H243135   7.103   4.018   1.296  1.0003  0.3486  1.0508
 6314TIP3   OH243136   6.369   0.570   3.425 -0.2807  0.0884  0.1711
 6314TIP3    H143137   6.459   0.542   3.405  0.1884  0.2729  1.8099
 6314TIP3    H243138   6.375   0.665   3.435 -0.3625 -0.0189  1.4811
 6315TIP3   OH243139   2.592   1.122   3.035  0.1919  0.4135  0.3265
 6315TIP3    H143140   2.604   1.184   3.107 -0.4952  1.4396 -0.4178
 6315TIP3    H243141   2.657   1.148   2.970  1.9727 -1.5484  1.1906
 6316TIP3   OH243142   1.369   3.622   1.209 -0.5678  0.0310  0.0055
 6316TIP3    H143143   1.310   3.667   1.149  0.3932 -0.0062 -1.0148
 6316TIP3    H243144   1.397   3.689   1.270  2.6136  1.5822 -2.8230
 6317TIP3   OH243145   4.619   5.713   2.108 -0.2026  0.0406  0.7280
 6317TIP3    H143146   4.611   5.623   2.075 -1.5588 -0.0691  1.2669
 6317TIP3    H243147   4.563   5.765   2.050 -0.4395  0.3086  1.1891
 6318TIP3   OH243148   6.177   1.956   1.903 -0.4960  0.3970 -0.4006
 6318TIP3    H143149   6.231   1.891   1.948  0.5463  0.5410 -1.4068
 6318TIP3    H243150   6.236   2.029   1.885 -1.4022  1.2046 -0.2087
 6319TIP3   OH243151   3.708   0.857   1.881 -0.2302  0.0869 -0.1243
 6319TIP3    H143152   3.653   0.781   1.864  1.0190 -1.3514  1.7688
 6319TIP3    H243153   3.762   0.831   1.956  0.1688  2.8964  0.6771
 6320TIP3   OH243154   6.740   0.481   2.031 -0.3266  0.5081  0.6490
 6320TIP3    H143155   6.811   0.420   2.051  2.3154  2.9222 -0.4913
 6320TIP3    H243156   6.707   0.508   2.117 -0.4191 -1.2112  1.1935
 6321TIP3   OH243157   1.319   3.829   2.392  0.6666  0.0139  0.4143
 6321TIP3    H143158   1.263   3.770   2.442 -0.7585  0.7756 -0.2110
 6321TIP3    H243159   1.340   3.900   2.453  0.3041  0.1074  0.4351
 6322TIP3   OH243160   5.976   1.723   1.002  0.1135  0.2121  0.2597
 6322TIP3    H143161   5.928   1.661   1.057  0.8422  0.0337  0.7122
 6322TIP3    H243162   5.979   1.804   1.054 -0.1081  0.3698  0.0289
 6323TIP3   OH243163   6.000   6.435   0.385 -0.2602  0.1572 -0.4867
 6323TIP3    H143164   5.991   6.525   0.354 -0.8971  0.6971  1.1421
 6323TIP3    H243165   6.049   6.443   0.466 -1.9985 -0.7094  0.7142
 6324TIP3   OH243166   0.178   4.427   0.693  0.5029 -0.2861  0.6499
 6324TIP3    H143167   0.215   4.514   0.709  0.9161 -0.4317  0.4843
 6324TIP3    H243168   0.242   4.383   0.638 -0.3565 -0.1976 -0.4607
 6325TIP3   OH243169   0.220   6.034   1.833  0.6960  0.5030  0.0000
 6325TIP3    H143170   0.213   5.947   1.794 -2.3239  1.0665 -0.9219
 6325TIP3    H243171   0.231   6.093   1.758 -2.8489  1.3717  0.0243
 6326TIP3   OH243172   2.379   1.314   1.891 -0.1448 -0.3373  0.4739
 6326TIP3    H143173   2.472   1.320   1.914 -0.0239  0.8912 -0.2349
 6326TIP3    H243174   2.333   1.322   1.974  0.3925 -2.1104  0.9730
 6327TIP3   OH243175   0.786   6.976   3.188 -0.4620  0.2926  0.1125
 6327TIP3    H143176   0.705   6.942   3.225  0.6256 -0.6857  1.6701
 6327TIP3    H243177   0.825   6.902   3.143 -0.8463  1.0020 -1.4760
 6328TIP3   OH243178   3.853   3.636   2.044  0.1058 -0.2697  0.1185
 6328TIP3    H143179   3.792   3.640   1.969  2.2836 -1.0591 -1.7999
 6328TIP3    H243180   3.913   3.709   2.029 -1.6114  2.0832  3.3231
 6329TIP3   OH243181   7.282   7.492   1.895  0.3517 -0.3427  0.1258
 6329TIP3    H143182   7.230   7.527   1.823  2.5970 -0.1128 -1.5135
 6329TIP3    H243183   7.262   7.398   1.896  0.8943 -0.5083 -1.4211
 6330TIP3   OH243184   5.572   4.254   1.737 -0.0775 -0.3938  0.0363
 6330TIP3    H143185   5.519   4.174   1.746 -0.5230  0.0516  1.8396
 6330TIP3    H243186   5.513   4.318   1.699 -0.4732 -0.2717  0.8248
 6331TIP3   OH243187   6.653   3.630   2.507 -0.3191 -0.5977 -0.6011
 6331TIP3    H143188   6.599   3.563   2.465  1.3796 -1.5720 -1.2903
 6331TIP3    H243189   6.589   3.692   2.543 -1.8895 -1.4970 -1.7082
 6332TIP3   OH243190   4.129   0.774   0.686  0.2275 -0.1984 -0.4978
 6332TIP3    H143191   4.107   0.716   0.613  2.0517 -1.2077 -0.2944
 6332TIP3    H243192   4.154   0.715   0.757 -1.1044  0.7764  0.8626
 6333TIP3   OH243193   6.823   6.270   1.303  0.6441  0.0040  0.2750
 6333TIP3    H143194   6.756   6.333   1.278 -0.5486 -0.8916  1.0840
 6333TIP3    H243195   6.875   6.258   1.224  0.2660  1.2198 -0.1817
 6334TIP3   OH243196   1.162   1.908   0.634  0.9300  0.3372 -0.1375
 6334TIP3    H143197   1.217   1.985   0.621  1.0090  0.2456 -0.3406
 6334TIP3    H243198   1.185   1.849   0.563  1.4003 -0.1907  0.4424
 6335TIP3   OH243199   6.067   0.324   1.556  0.0477  0.4765 -0.0424
 6335TIP3    H143200   6.116   0.243   1.569 -0.9172 -0.1144 -0.0007
 6335TIP3    H243201   6.134   0.389   1.533  0.7312 -0.5755 -1.1465
 6336TIP3   OH243202   6.842   1.844   2.815  0.3655  0.4890 -0.2530
 6336TIP3    H143203   6.840   1.931   2.855  0.8570  0.4167 -0.0636
 6336TIP3    H243204   6.935   1.824   2.807  0.2661 -0.7138  1.2146
 6337TIP3   OH243205   4.558   0.720   1.981  0.3700  0.0873  0.4664
 6337TIP3    H143206   4.607   0.641   2.006  0.4261  0.5203  1.8326
 6337TIP3    H243207   4.481   0.688   1.935  0.4328 -0.7720  0.9392
 6338TIP3   OH243208   1.912   1.447   0.503  0.2868 -0.7277  0.1235
 6338TIP3    H143209   1.998   1.412   0.479  1.0502 -0.3925  2.1235
 6338TIP3    H243210   1.928   1.539   0.522 -0.6264 -0.5441  0.0511
 6339TIP3   OH243211   6.119   2.916   2.391 -0.1654  0.4752 -0.2454
 6339TIP3    H143212   6.133   2.879   2.304  1.0054  0.5036 -0.0842
 6339TIP3    H243213   6.140   2.844   2.451  0.8818  0.9899  0.0378
 6340TIP3   OH243214   2.091   7.245   2.579  0.4175 -0.0266 -0.8831
 6340TIP3    H143215   2.059   7.232   2.669 -1.8463  0.5646 -1.5324
 6340TIP3    H243216   2.128   7.333   2.579  1.4602 -0.4471 -0.2866
 6341TIP3   OH243217   2.946   2.268   1.678 -0.0946 -0.0415  0.4093
 6341TIP3    H143218   2.932   2.179   1.712  1.1224 -0.2439  0.4179
 6341TIP3    H243219   2.971   2.255   1.587 -0.9741  0.3657  0.1053
 6342TIP3   OH243220   6.047   0.233   1.238  0.0396 -0.0620  0.0580
 6342TIP3    H143221   6.113   0.227   1.170  0.6349  1.9241  0.4049
 6342TIP3    H243222   6.078   0.302   1.296 -2.1725  0.6893  0.4337
 6343TIP3   OH243223   6.698   6.510   3.415  0.0209  0.1931  0.2572
 6343TIP3    H143224   6.781   6.487   3.457 -0.4337  0.1352  1.1467
 6343TIP3    H243225   6.657   6.572   3.474  0.2182  1.6343 -1.0469
 6344TIP3   OH243226   0.142   5.913   2.095  0.1508  0.0814 -0.4649
 6344TIP3    H143227   0.224   5.872   2.065 -0.6440 -1.7584 -0.2310
 6344TIP3    H243228   0.118   5.973   2.024  2.7025  2.2614  0.3144
 6345TIP3   OH243229   5.592   1.267   1.916  0.4263  0.0369 -0.5133
 6345TIP3    H143230   5.687   1.258   1.903  0.3612 -1.0597 -0.3597
 6345TIP3    H243231   5.584   1.337   1.980  1.1448  0.1066 -0.4814
 6346TIP3   OH243232   0.749   1.927   1.618 -0.3143  0.1379 -0.3374
 6346TIP3    H143233   0.839   1.922   1.649 -0.8149 -1.9809  0.9397
 6346TIP3    H243234   0.751   1.886   1.531 -0.2752 -1.2426  0.2981
 6347TIP3   OH243235   1.351   3.865   2.929 -0.7626  0.3951  0.1970
 6347TIP3    H143236   1.370   3.788   2.983 -2.8877 -0.8330 -0.6940
 6347TIP3    H243237   1.350   3.938   2.991 -1.7180 -0.7626  1.5837
 6348TIP3   OH243238   6.221   0.776   1.828 -0.4147  0.3310  0.7879
 6348TIP3    H143239   6.254   0.756   1.740 -0.6625 -1.9141  1.1475
 6348TIP3    H243240   6.289   0.830   1.868  0.2115  0.4313 -0.3783
 6349TIP3   OH243241   4.062   5.943   0.843 -0.0199 -0.2755  0.2344
 6349TIP3    H143242   4.107   5.993   0.911  0.5369  0.5665 -0.7186
 6349TIP3    H243243   3.969   5.952   0.864 -0.0456  2.2850 -0.5818
 6350TIP3   OH243244   1.937   0.346   2.254 -0.4690 -0.0790  0.0608
 6350TIP3    H143245   1.938   0.388   2.340 -2.4097  0.3388 -0.0874
 6350TIP3    H243246   1.862   0.287   2.256 -0.1744 -0.5312 -1.1450
 6351TIP3   OH243247   6.746   5.333   3.005  0.1677 -0.2350  0.0792
 6351TIP3    H143248   6.701   5.415   2.986 -0.8636 -0.1043  2.7018
 6351TIP3    H243249   6.825   5.360   3.052  0.9918 -0.6722 -1.0220
 6352TIP3   OH243250   7.471   1.879   1.107  0.0029 -0.1460 -0.0877
 6352TIP3    H143251   7.554   1.904   1.065  0.0986  1.5241  0.9991
 6352TIP3    H243252   7.495   1.810   1.168  1.0015  1.4975  1.5055
 6353TIP3   OH243253   4.927   4.168   2.434  0.2082 -0.0279  0.0436
 6353TIP3    H143254   5.020   4.175   2.412  0.5655 -0.7451  1.2465
 6353TIP3    H243255   4.896   4.259   2.437  1.3940  0.3736  1.7141
 6354TIP3   OH243256   4.776   5.021   1.641  0.1175 -0.2083 -0.2353
 6354TIP3    H143257   4.685   5.036   1.615 -0.7770 -2.8333  0.9656
 6354TIP3    H243258   4.776   5.029   1.736  0.3997 -2.9371  0.0927
 6355TIP3   OH243259   0.100   7.334   0.672 -0.3272  0.3973 -0.0618
 6355TIP3    H143260   0.006   7.354   0.670 -0.2717  0.8509  1.2379
 6355TIP3    H243261   0.124   7.341   0.764  0.8438 -0.4313 -0.2835
 6356TIP3   OH243262   4.121   5.411   3.278 -0.6851  0.0025  0.3019
 6356TIP3    H143263   4.190   5.428   3.343 -0.9698 -0.2749  0.6803
 6356TIP3    H243264   4.110   5.316   3.280  0.2448 -0.1679 -1.1304
 6357TIP3   OH243265   5.320   1.620   1.309  0.0058 -0.3983 -0.0256
 6357TIP3    H143266   5.383   1.549   1.320 -0.6091 -0.8912  0.3285
 6357TIP3    H243267   5.311   1.628   1.214  0.3324 -0.5580 -0.0745
 6358TIP3   OH243268   1.762   4.779   2.127  0.7148 -0.4712 -0.4983
 6358TIP3    H143269   1.765   4.817   2.215  2.1953 -0.8840 -0.3393
 6358TIP3    H243270   1.759   4.685   2.142  0.1285 -0.5203 -0.8986
 6359TIP3   OH243271   1.012   2.655   0.834  0.3917 -0.5554 -0.6119
 6359TIP3    H143272   1.035   2.600   0.909 -2.5846  0.0577  0.8918
 6359TIP3    H243273   1.063   2.735   0.846  0.2719 -0.6401  0.5375
 6360TIP3   OH243274   3.165   6.422   2.594  0.1206 -0.3634  0.4600
 6360TIP3    H143275   3.203   6.488   2.537  0.2128 -0.5113  0.3499
 6360TIP3    H243276   3.165   6.462   2.681  2.4498 -1.1014  0.8676
 6361TIP3   OH243277   0.943   7.274   1.138  0.7188  0.3739 -0.0214
 6361TIP3    H143278   0.869   7.294   1.196 -0.0693  0.7415 -1.1157
 6361TIP3    H243279   1.003   7.348   1.148  1.3094 -0.2795  1.4297
 6362TIP3   OH243280   3.113   0.134   1.844 -0.5591  0.3533 -0.1894
 6362TIP3    H143281   3.200   0.173   1.856 -0.8784  0.6653  1.4150
 6362TIP3    H243282   3.092   0.149   1.752  0.5692  1.3721 -0.3065
 6363TIP3   OH243283   1.969   0.096   0.732 -0.0229 -0.3818  0.1665
 6363TIP3    H143284   1.906   0.065   0.798 -0.0146 -0.5811  0.0830
 6363TIP3    H243285   1.960   0.191   0.733  0.4881 -0.3345  0.9570
 6364TIP3   OH243286   0.640   1.703   2.951  1.0794 -0.3097  0.1040
 6364TIP3    H143287   0.728   1.701   2.989  0.5258 -0.2428  1.4423
 6364TIP3    H243288   0.581   1.701   3.026 -0.0734 -0.1113 -0.7613
 6365TIP3   OH243289   5.663   5.499   1.086  0.4344 -0.6672 -0.5392
 6365TIP3    H143290   5.571   5.499   1.062  0.0828  1.7111  0.5598
 6365TIP3    H243291   5.710   5.477   1.005 -1.0707 -3.3144 -0.8126
 6366TIP3   OH243292   0.050   1.443   2.443  0.2415  0.5562  0.1266
 6366TIP3    H143293   0.136   1.411   2.416  0.9706  1.5188  1.2443
 6366TIP3    H243294   0.068   1.500   2.517 -1.2884  1.4332 -0.1534
 6367TIP3   OH243295   1.347   2.984   1.496  0.4157  0.2427  0.0736
 6367TIP3    H143296   1.412   2.935   1.444 -1.8411 -1.5500 -1.2411
 6367TIP3    H243297   1.383   2.984   1.585  1.7110 -1.6331 -0.3826
 6368TIP3   OH243298   6.248   1.166   3.512  0.0131  0.8145 -0.4277
 6368TIP3    H143299   6.233   1.072   3.520  4.1314 -0.1912 -1.7820
 6368TIP3    H243300   6.167   1.201   3.477 -1.0493 -2.5723 -1.7552
 6369TIP3   OH243301   2.169   1.386   0.766 -0.2380  0.6124  0.5180
 6369TIP3    H143302   2.080   1.378   0.800 -0.6059  0.3035 -0.4682
 6369TIP3    H243303   2.211   1.452   0.821 -1.3077  1.2905  0.5416
 6370TIP3   OH243304   0.500   1.110   2.746 -0.0858  0.0372 -0.0724
 6370TIP3    H143305   0.553   1.134   2.670 -1.1672  3.0015 -0.0342
 6370TIP3    H243306   0.548   1.145   2.821  0.4965 -2.0253  0.5850
 6371TIP3   OH243307   2.711   5.237   1.466 -0.2331 -0.1789  0.4830
 6371TIP3    H143308   2.735   5.267   1.554  0.1381  0.7213  0.0782
 6371TIP3    H243309   2.788   5.188   1.436  0.4547  1.2247 -0.1224
 6372TIP3   OH243310   2.343   2.861   2.889 -0.2559  0.1729  0.2491
 6372TIP3    H143311   2.320   2.813   2.969 -0.2665 -0.9786 -0.4141
 6372TIP3    H243312   2.421   2.912   2.913 -0.3390 -0.0567  1.0281
 6373TIP3   OH243313   6.405   4.871   1.049 -0.4056 -0.2369  0.0979
 6373TIP3    H143314   6.392   4.805   1.116  0.1060 -2.1077 -1.5578
 6373TIP3    H243315   6.317   4.907   1.033 -0.7140 -0.6204  0.9038
 6374TIP3   OH243316   4.833   1.354   2.001  0.1809  0.1429 -0.1290
 6374TIP3    H143317   4.826   1.448   2.021 -0.7920  0.4389 -1.6674
 6374TIP3    H243318   4.927   1.338   1.996  0.3775  1.4480 -1.4321
 6375TIP3   OH243319   4.799   6.227   2.747  0.0934  0.0254  0.2109
 6375TIP3    H143320   4.881   6.218   2.698  0.0245  1.5650 -0.2755
 6375TIP3    H243321   4.826   6.247   2.836  0.2991  1.6133 -0.1761
 6376TIP3   OH243322   1.078   5.479   1.359  0.4046  0.0950  0.4042
 6376TIP3    H143323   1.027   5.531   1.297  0.8633  1.2137  0.9383
 6376TIP3    H243324   1.040   5.499   1.445  1.3185  0.4763  0.7415
 6377TIP3   OH243325   7.056   4.589   2.733 -0.4636  0.3664  0.0638
 6377TIP3    H143326   7.061   4.591   2.638 -0.4127  0.2543  0.0639
 6377TIP3    H243327   6.984   4.528   2.753 -1.3968  1.4479  0.0751
 6378TIP3   OH243328   3.284   2.158   0.504  0.0343 -0.3090  0.3504
 6378TIP3    H143329   3.296   2.155   0.409 -2.8062  1.7150 -0.1935
 6378TIP3    H243330   3.280   2.066   0.530 -0.0983 -0.9251 -1.6493
 6379TIP3   OH243331   1.632   7.172   0.821 -0.0733  0.6696 -0.1386
 6379TIP3    H143332   1.573   7.098   0.837  0.3116  0.4904  0.5120
 6379TIP3    H243333   1.720   7.136   0.834  0.2755  0.6630 -2.1523
 6380TIP3   OH243334   2.021   4.505   1.007 -0.0453 -0.1104 -0.1186
 6380TIP3    H143335   2.115   4.516   1.016 -0.2090  1.3179  0.1297
 6380TIP3    H243336   1.989   4.490   1.096 -0.0782 -0.2946 -0.1621
 6381TIP3   OH243337   1.120   2.177   0.931  0.1377  0.4778 -0.4241
 6381TIP3    H143338   1.119   2.221   0.846 -1.8309 -0.2431 -0.8098
 6381TIP3    H243339   1.148   2.245   0.993  0.8889  1.2016 -1.5212
 6382TIP3   OH243340   7.072   2.041   1.309 -0.4889  0.2269  0.0646
 6382TIP3    H143341   7.033   2.120   1.346 -0.4041  1.6926 -2.7050
 6382TIP3    H243342   7.025   2.027   1.227  0.7243 -1.5590 -0.3885
 6383TIP3   OH243343   4.624   6.155   2.562  0.2430 -0.4530  0.4252
 6383TIP3    H143344   4.546   6.135   2.614 -0.3577  0.5264 -0.0760
 6383TIP3    H243345   4.693   6.166   2.627  0.1129 -1.8568  0.8502
 6384TIP3   OH243346   2.142   5.066   2.012 -0.2815 -0.1891  0.1273
 6384TIP3    H143347   2.170   4.980   1.980 -0.0427 -0.5866  1.3516
 6384TIP3    H243348   2.224   5.113   2.029 -0.3678 -0.3625  1.1020
 6385TIP3   OH243349   6.524   4.883   1.778 -0.3952  0.5325 -0.6490
 6385TIP3    H143350   6.548   4.954   1.719  0.7114  0.1362 -0.6918
 6385TIP3    H243351   6.517   4.806   1.721 -0.0277  0.2910 -0.3696
 6386TIP3   OH243352   3.223   3.221   2.670 -0.5604 -0.0646  0.0519
 6386TIP3    H143353   3.190   3.296   2.720 -1.4076  0.3651 -1.1026
 6386TIP3    H243354   3.208   3.245   2.578 -1.5211 -1.9274 -0.3373
 6387TIP3   OH243355   0.870   1.089   0.568 -0.8731  0.2926  0.3076
 6387TIP3    H143356   0.784   1.076   0.528 -1.6839  3.6991  0.6248
 6387TIP3    H243357   0.851   1.119   0.656  0.6127  1.4133  0.2829
 6388TIP3   OH243358   6.334   0.516   0.539  0.2579  0.0308 -0.2580
 6388TIP3    H143359   6.375   0.454   0.599  1.1205  0.3144 -0.5412
 6388TIP3    H243360   6.240   0.512   0.561  0.2075 -1.7597 -0.6449
 6389TIP3   OH243361   3.258   7.201   0.575  0.1661 -0.1746 -0.0148
 6389TIP3    H143362   3.330   7.192   0.639 -2.3625 -0.3882  3.0650
 6389TIP3    H243363   3.224   7.290   0.590 -0.7876 -0.4018 -0.7629
 6390TIP3   OH243364   6.006   6.005   1.249 -0.0716  0.0587 -0.1592
 6390TIP3    H143365   6.070   5.936   1.236 -0.6902 -0.6401  0.3925
 6390TIP3    H243366   5.992   6.043   1.163 -0.0967 -0.8483 -0.5621
 6391TIP3   OH243367   0.666   2.337   2.196  0.4032  0.5555  0.4001
 6391TIP3    H143368   0.651   2.247   2.226 -0.1822  0.5857  0.2142
 6391TIP3    H243369   0.745   2.365   2.242 -0.4245  0.5756  1.8856
 6392TIP3   OH243370   0.406   4.674   2.060  0.0255 -0.5305 -0.6035
 6392TIP3    H143371   0.464   4.653   1.986 -0.0632 -1.8326 -0.3267
 6392TIP3    H243372   0.465   4.709   2.127  0.1458  0.4063 -1.1722
 6393TIP3   OH243373   4.491   1.119   2.334  0.0361  0.0419 -0.1440
 6393TIP3    H143374   4.565   1.164   2.294  0.0088  0.4000  0.1959
 6393TIP3    H243375   4.527   1.084   2.416 -0.0684 -0.1265 -0.1711
 6394TIP3   OH243376   4.485   7.411   2.598  0.0350 -0.1410  0.4288
 6394TIP3    H143377   4.559   7.427   2.539  0.1181  0.3170  0.6461
 6394TIP3    H243378   4.485   7.317   2.612 -0.3076 -0.3308 -0.7125
 6395TIP3   OH243379   6.359   0.710   0.999 -0.1847  0.2469  0.6084
 6395TIP3    H143380   6.451   0.729   0.983 -0.1698  0.5928  1.0658
 6395TIP3    H243381   6.326   0.788   1.044 -0.4504 -0.2787  1.3536
 6396TIP3   OH243382   7.183   4.737   7.600  0.0887  0.6734 -0.1647
 6396TIP3    H143383   7.114   4.718   7.664  0.5260  0.4300  0.2403
 6396TIP3    H243384   7.171   4.672   7.531  1.0993 -0.6467  0.8373
 6397TIP3   OH243385   2.706   7.003   0.818 -0.1754  0.0060 -0.4890
 6397TIP3    H143386   2.776   7.026   0.757 -0.2719  1.7069 -0.0188
 6397TIP3    H243387   2.685   7.086   0.862 -1.6438 -0.7185  0.2410
 6398TIP3   OH243388   2.921   0.851   2.745 -0.4277 -0.0520 -0.4730
 6398TIP3    H143389   2.850   0.825   2.687 -0.0548 -1.0015 -0.5213
 6398TIP3    H243390   2.976   0.772   2.753  1.3748  1.0383 -1.5245
 6399TIP3   OH243391   1.355   6.907   1.333 -0.6869 -0.3582 -0.1911
 6399TIP3    H143392   1.404   6.947   1.405 -0.3305  1.2751 -1.2815
 6399TIP3    H243393   1.263   6.918   1.357 -0.6544  2.3449 -1.0095
 6400TIP3   OH243394   5.039   0.378   2.793 -0.1308  0.2200  0.3221
 6400TIP3    H143395   5.004   0.300   2.749 -2.0385  0.7662  0.7605
 6400TIP3    H243396   5.123   0.349   2.829 -0.0357 -1.1510 -0.9101
 6401TIP3   OH243397   3.420   5.818   3.348  0.4427 -0.4974 -0.9232
 6401TIP3    H143398   3.472   5.738   3.342 -0.0814 -0.9749  0.6163
 6401TIP3    H243399   3.443   5.856   3.432 -3.5439 -2.1380  1.1550
 6402TIP3   OH243400   7.433   0.716   1.949 -0.9016 -0.0039  0.6227
 6402TIP3    H143401   7.414   0.638   2.001  1.1059 -0.1784  1.1809
 6402TIP3    H243402   7.350   0.765   1.947 -2.1965 -2.0772  0.3062
 6403TIP3   OH243403   5.177   1.939   0.918  0.4066  0.5387 -0.4786
 6403TIP3    H143404   5.109   1.970   0.858 -1.9147 -1.2844  1.0396
 6403TIP3    H243405   5.206   1.855   0.881  1.2503  0.8894 -0.6484
 6404TIP3   OH243406   2.814   0.483   0.912 -0.2217  0.4498  0.0034
 6404TIP3    H143407   2.895   0.476   0.963  1.1249 -2.3815 -2.2152
 6404TIP3    H243408   2.777   0.395   0.914 -1.5791  0.9315 -1.5746
 6405TIP3   OH243409   4.640   3.866   1.032 -0.0628  0.0319 -0.8578
 6405TIP3    H143410   4.551   3.864   1.067  0.5181 -3.6645  0.9392
 6405TIP3    H243411   4.676   3.950   1.060 -1.8770  0.1308  1.4735
 6406TIP3   OH243412   5.807   4.263   0.882  0.0840  0.1616  0.2122
 6406TIP3    H143413   5.776   4.335   0.937 -0.9275 -0.2266  0.1601
 6406TIP3    H243414   5.805   4.298   0.793  1.4275  0.6870  0.3595
 6407TIP3   OH243415   0.569   0.971   0.505  0.0865  0.2150 -0.1776
 6407TIP3    H143416   0.527   0.888   0.483 -0.7193  0.7813 -0.8495
 6407TIP3    H243417   0.591   0.963   0.598  0.1699 -0.8024 -0.2738
 6408TIP3   OH243418   5.076   6.308   2.016 -0.0588  0.4057  0.1935
 6408TIP3    H143419   5.142   6.370   1.986 -1.3691  0.5296 -2.7910
 6408TIP3    H243420   4.993   6.346   1.990 -1.2434 -0.6313  2.1853
 6409TIP3   OH243421   4.826   6.960   2.716  0.7183 -0.2085 -0.0549
 6409TIP3    H143422   4.758   6.961   2.648  0.3200  0.0834  0.3436
 6409TIP3    H243423   4.861   6.871   2.712  2.2239  0.3927 -2.1233
 6410TIP3   OH243424   0.247   2.439   2.576  0.0255 -0.4233  0.2748
 6410TIP3    H143425   0.155   2.466   2.588  0.5807  1.7906  0.0238
 6410TIP3    H243426   0.243   2.344   2.567 -2.3322 -0.3154 -0.5186
 6411TIP3   OH243427   6.345   4.283   1.609 -0.9769 -0.1596 -0.2920
 6411TIP3    H143428   6.371   4.323   1.526 -0.2539 -0.6605 -0.3218
 6411TIP3    H243429   6.426   4.243   1.642 -1.8084 -2.1880 -0.5999
 6412TIP3   OH243430   5.244   5.977   2.133  0.1177  0.4479 -0.0731
 6412TIP3    H143431   5.226   6.001   2.042 -0.4531 -1.7624 -0.6101
 6412TIP3    H243432   5.168   5.924   2.159  1.2298 -0.6900  0.9927
 6413TIP3   OH243433   7.264   1.157   0.555  0.2674  0.3995 -0.7833
 6413TIP3    H143434   7.234   1.226   0.613  0.3033  1.9618 -2.5120
 6413TIP3    H243435   7.189   1.142   0.496  1.1567  0.8811 -2.0747
 6414TIP3   OH243436   1.141   2.979   2.283  0.2999  0.0941  0.4751
 6414TIP3    H143437   1.186   3.026   2.212  1.7006 -2.0762 -0.1932
 6414TIP3    H243438   1.080   3.043   2.319  1.7204  2.2412 -0.6689
 6415TIP3   OH243439   3.504   0.300   2.995  1.0651 -0.0928  0.3224
 6415TIP3    H143440   3.590   0.284   2.956  0.5780  2.9990 -2.4569
 6415TIP3    H243441   3.505   0.393   3.018 -1.0059 -0.3708  1.7689
 6416TIP3   OH243442   0.869   5.655   1.845  0.3530  0.4562  0.3835
 6416TIP3    H143443   0.782   5.693   1.850  0.8408  1.4771  1.5889
 6416TIP3    H243444   0.861   5.570   1.889 -0.0566  0.4733  0.3459
 6417TIP3   OH243445   4.652   6.504   0.488 -0.1103 -0.5859  0.0601
 6417TIP3    H143446   4.565   6.541   0.505 -0.6561 -1.9546  0.3764
 6417TIP3    H243447   4.658   6.430   0.548  1.1950 -0.6449 -0.1268
 6418TIP3   OH243448   6.808   3.622   2.754 -0.5604 -0.0193  0.7732
 6418TIP3    H143449   6.757   3.632   2.674  1.2298  0.8731 -0.2914
 6418TIP3    H243450   6.744   3.592   2.819 -2.0725 -0.6355 -0.9275
 6419TIP3   OH243451   6.974   5.459   3.126 -0.4819  0.4668 -0.1390
 6419TIP3    H143452   7.043   5.457   3.061 -0.1958 -2.2227  0.1508
 6419TIP3    H243453   7.006   5.519   3.193  1.2892 -0.2125 -0.3284
 6420TIP3   OH243454   2.428   3.460   1.542  0.3201  0.2312  0.9462
 6420TIP3    H143455   2.484   3.436   1.467 -0.7943 -1.4839  0.6043
 6420TIP3    H243456   2.397   3.548   1.522  0.4759  0.0094 -0.3639
 6421TIP3   OH243457   6.193   7.072   3.179  0.4044  0.1453 -0.5779
 6421TIP3    H143458   6.141   6.996   3.151  0.2966 -0.0623  0.1742
 6421TIP3    H243459   6.128   7.141   3.194  0.3377 -0.0997  0.3146
 6422TIP3   OH243460   2.643   7.174   2.457  0.4066  0.0333  0.2753
 6422TIP3    H143461   2.561   7.138   2.491  0.2300  0.7440  0.6193
 6422TIP3    H243462   2.708   7.150   2.523  0.7881 -1.8478 -0.7200
 6423TIP3   OH243463   4.319   6.546   1.504  0.0853 -0.6323  0.6220
 6423TIP3    H143464   4.366   6.629   1.505  0.2182 -0.7174  1.4632
 6423TIP3    H243465   4.383   6.480   1.530  0.0634 -1.0557 -0.3280
 6424TIP3   OH243466   7.289   2.408   3.320 -1.1303  0.2379  0.1584
 6424TIP3    H143467   7.237   2.336   3.357  0.0261 -0.6740  0.0784
 6424TIP3    H243468   7.348   2.365   3.258  0.3905  1.1036  0.9567
 6425TIP3   OH243469   5.452   5.521   0.911  0.0443 -0.2629 -0.0401
 6425TIP3    H143470   5.392   5.596   0.904  0.4496  0.2131  1.1888
 6425TIP3    H243471   5.480   5.504   0.821 -1.7521 -0.3661 -0.6129
 6426TIP3   OH243472   2.712   7.001   1.299 -0.2053  0.3566  0.3318
 6426TIP3    H143473   2.765   6.928   1.330  0.8666  0.9594 -0.0342
 6426TIP3    H243474   2.751   7.078   1.339 -0.3647  0.8816 -0.4956
 6427TIP3   OH243475   3.445   0.249   2.096 -0.0650 -0.0164  0.2793
 6427TIP3    H143476   3.373   0.305   2.126 -0.8339 -1.4364  1.1687
 6427TIP3    H243477   3.437   0.169   2.148  1.5225 -0.6322 -0.3617
 6428TIP3   OH243478   4.298   5.921   0.496 -0.4173  0.0361 -0.0252
 6428TIP3    H143479   4.297   5.906   0.402  1.8489  0.4430 -0.1559
 6428TIP3    H243480   4.388   5.903   0.523 -0.7985  0.7687  1.9216
 6429TIP3   OH243481   4.018   2.681   2.089  0.3698 -0.2677 -0.0422
 6429TIP3    H143482   4.049   2.769   2.070  1.3712 -0.5999 -0.0115
 6429TIP3    H243483   3.994   2.683   2.182 -0.2607  0.1566 -0.2170
 6430TIP3   OH243484   3.631   2.471   2.719 -0.3700  0.2036 -0.5416
 6430TIP3    H143485   3.570   2.494   2.789  1.2987 -0.3527  1.1932
 6430TIP3    H243486   3.634   2.549   2.663 -0.5108  1.3346  0.9598
 6431TIP3   OH243487   4.925   0.261   1.201 -0.4930  0.0447  0.7552
 6431TIP3    H143488   4.872   0.297   1.129  0.2954  0.3484  0.3085
 6431TIP3    H243489   5.010   0.305   1.192 -0.2815 -0.1581  1.6830
 6432TIP3   OH243490   0.125   1.153   0.790 -0.1149  0.3181  0.4017
 6432TIP3    H143491   0.094   1.078   0.840  2.1352 -0.3239  0.9154
 6432TIP3    H243492   0.080   1.146   0.705 -2.0002 -0.0234  1.3735
 6433TIP3   OH243493   7.269   1.815   2.212  0.1656  0.4624 -0.3500
 6433TIP3    H143494   7.183   1.849   2.239 -0.7733 -0.1050 -2.4081
 6433TIP3    H243495   7.328   1.889   2.219 -0.5253  0.9226  0.8951
 6434TIP3   OH243496   4.371   5.585   2.669 -0.1348 -0.0366  0.1161
 6434TIP3    H143497   4.396   5.610   2.758  1.0053 -0.2855 -0.1228
 6434TIP3    H243498   4.342   5.666   2.628 -0.7134  0.0693  0.7240
 6435TIP3   OH243499   0.286   0.277   0.307  0.6727 -0.3031  0.4334
 6435TIP3    H143500   0.300   0.294   0.214 -0.2132  0.0401  0.3566
 6435TIP3    H243501   0.218   0.339   0.334  1.3474  0.0225  1.4628
 6436TIP3   OH243502   1.037   4.882   2.580 -0.0102  0.0778  0.5079
 6436TIP3    H143503   1.039   4.918   2.491  2.1966  0.6146  0.7190
 6436TIP3    H243504   1.091   4.803   2.576  1.8723  1.2135  1.7507
 6437TIP3   OH243505   6.029   0.446   0.600 -0.5126  0.4028 -0.5557
 6437TIP3    H143506   5.955   0.386   0.588  0.2569 -1.0171  1.1834
 6437TIP3    H243507   5.998   0.510   0.664  0.4230 -1.7381  2.2886
 6438TIP3   OH243508   7.395   7.197   2.315  0.2474 -0.4991 -0.0604
 6438TIP3    H143509   7.436   7.115   2.343 -1.0202 -1.1419  0.0097
 6438TIP3    H243510   7.320   7.169   2.262  1.6469  0.6284 -2.8649
 6439TIP3   OH243511   5.093   4.806   3.079 -0.1455  0.1150 -0.5624
 6439TIP3    H143512   5.053   4.719   3.086 -1.8383  0.4746 -3.7978
 6439TIP3    H243513   5.178   4.790   3.037  1.4905 -0.2429  2.5941
 6440TIP3   OH243514   2.907   1.713   0.845 -0.1553  0.1598  0.3440
 6440TIP3    H143515   2.884   1.656   0.919 -2.2987 -0.4957 -0.7430
 6440TIP3    H243516   2.966   1.660   0.791 -1.7614 -0.9479 -0.4175
 6441TIP3   OH243517   4.978   1.615   1.020 -0.3066  0.4039  0.3524
 6441TIP3    H143518   5.009   1.690   1.071 -0.4952  0.6367  0.1282
 6441TIP3    H243519   5.052   1.592   0.964 -0.9928  1.9157 -1.2812
 6442TIP3   OH243520   5.598   1.806   3.319 -0.0023  0.1075  0.7014
 6442TIP3    H143521   5.504   1.812   3.303  0.0937 -2.7623 -1.5774
 6442TIP3    H243522   5.605   1.772   3.409 -1.1496 -0.2884  0.6504
 6443TIP3   OH243523   0.342   0.312   3.042  0.3122  0.3274  0.4338
 6443TIP3    H143524   0.417   0.259   3.068  1.4022  1.5689 -0.0899
 6443TIP3    H243525   0.368   0.402   3.060 -1.0015  0.8001  0.1095
 6444TIP3   OH243526   7.235   3.941   1.757 -0.0890 -0.0765 -0.2033
 6444TIP3    H143527   7.239   4.022   1.707  3.2884  0.8459  1.2851
 6444TIP3    H243528   7.154   3.947   1.808 -1.3058  0.9967 -2.1781
 6445TIP3   OH243529   4.106   0.533   1.367 -0.2653  0.4119  0.2665
 6445TIP3    H143530   4.117   0.608   1.424 -1.0674 -0.2872  1.3947
 6445TIP3    H243531   4.011   0.525   1.356 -0.2273 -0.6877  0.5488
 6446TIP3   OH243532   1.537   4.768   0.647 -0.1953  0.8680  0.4093
 6446TIP3    H143533   1.477   4.842   0.643 -1.7620 -0.3681 -0.1924
 6446TIP3    H243534   1.500   4.711   0.715 -0.1110 -0.2321 -0.4302
 6447TIP3   OH243535   7.447   0.353   3.106  0.2305 -0.4274  0.5314
 6447TIP3    H143536   7.372   0.296   3.124 -0.6696  0.6875  0.4425
 6447TIP3    H243537   7.428   0.433   3.154  0.2829  0.6967 -1.2172
 6448TIP3   OH243538   5.487   1.422   1.340  0.1842  0.1378 -0.2350
 6448TIP3    H143539   5.536   1.367   1.277  0.6014 -0.6547  0.7543
 6448TIP3    H243540   5.535   1.413   1.422 -0.5646  0.8697  0.2995
 6449TIP3   OH243541   7.087   5.833   1.510  0.9160  1.0385 -0.2290
 6449TIP3    H143542   7.053   5.761   1.457  0.9985  1.5202 -0.9355
 6449TIP3    H243543   7.127   5.893   1.448  1.4596  1.3689  0.4241
 6450TIP3   OH243544   3.431   2.302   3.089  0.1078  0.2198 -0.0280
 6450TIP3    H143545   3.427   2.378   3.147  1.1358  0.5017 -0.3041
 6450TIP3    H243546   3.434   2.340   3.001 -0.1513 -0.1653 -0.2033
 6451TIP3   OH243547   4.240   0.455   3.301 -0.0116  0.4928  0.2711
 6451TIP3    H143548   4.146   0.467   3.287 -0.8504 -1.9990  2.8358
 6451TIP3    H243549   4.270   0.538   3.336 -2.1077  0.3165  2.7645
 6452TIP3   OH243550   6.177   2.490   1.822  0.1840 -0.7932  0.4483
 6452TIP3    H143551   6.143   2.404   1.801 -1.7687 -0.4610  1.9536
 6452TIP3    H243552   6.100   2.543   1.842  1.4371  0.7069  1.6580
 6453TIP3   OH243553   3.985   4.103   2.594  0.1782  0.2012 -0.4918
 6453TIP3    H143554   3.976   4.197   2.578  0.3538  0.0475 -1.6446
 6453TIP3    H243555   3.895   4.072   2.604  0.0189  0.2958 -1.4783
 6454TIP3   OH243556   1.283   0.984   1.214 -0.0365  1.0554  0.4243
 6454TIP3    H143557   1.377   0.970   1.224 -0.0389  0.4920 -0.2984
 6454TIP3    H243558   1.243   0.920   1.273 -0.0211 -1.3665 -2.0122
 6455TIP3   OH243559   1.874   4.239   0.945  0.1159  0.6291 -0.4774
 6455TIP3    H143560   1.916   4.321   0.971  1.0466 -0.2458  0.9666
 6455TIP3    H243561   1.784   4.246   0.976  0.8040  0.2286  1.7894
 6456TIP3   OH243562   6.960   5.628   0.534  0.0614 -0.0902  0.3313
 6456TIP3    H143563   6.931   5.714   0.564 -0.6384 -0.7036  1.4673
 6456TIP3    H243564   7.012   5.594   0.607 -1.3337 -1.4433  0.7411
 6457TIP3   OH243565   5.684   1.963   2.243  0.1255 -0.3455 -0.3171
 6457TIP3    H143566   5.625   1.971   2.318 -0.9123 -1.3046 -1.0093
 6457TIP3    H243567   5.637   2.003   2.171  1.5292  1.4817 -0.2896
 6458TIP3   OH243568   1.573   5.823   1.854 -0.3660  0.0091  0.3287
 6458TIP3    H143569   1.492   5.798   1.809 -0.9639 -0.6751  1.7610
 6458TIP3    H243570   1.549   5.900   1.905  0.4216  1.0431 -0.7994
 6459TIP3   OH243571   3.823   7.510   1.146  0.3039 -0.0388 -0.2718
 6459TIP3    H143572   3.781   7.534   1.063  0.9718  0.8464 -0.3651
 6459TIP3    H243573   3.913   7.488   1.121  0.7685  1.1039  0.3077
 6460TIP3   OH243574   6.976   5.544   2.460  0.0537 -0.0837 -0.0780
 6460TIP3    H143575   6.905   5.546   2.396  1.5083 -2.3796 -1.9342
 6460TIP3    H243576   7.044   5.599   2.422  0.4782 -0.4946  0.0794
 6461TIP3   OH243577   5.608   0.116   1.292 -0.2444  0.0038 -0.1585
 6461TIP3    H143578   5.558   0.125   1.373 -0.7240  0.5204 -0.5020
 6461TIP3    H243579   5.552   0.062   1.235  0.8742 -1.9196  0.4689
 6462TIP3   OH243580   3.189   2.954   1.404  0.3086 -0.2726 -0.5640
 6462TIP3    H143581   3.260   2.930   1.344  1.1325  0.6016  0.0421
 6462TIP3    H243582   3.221   2.930   1.490 -0.0328  0.3377 -0.2624
 6463TIP3   OH243583   3.881   5.826   1.676 -0.4165  0.4277  0.3736
 6463TIP3    H143584   3.850   5.758   1.735  0.8979 -1.3595 -0.8796
 6463TIP3    H243585   3.880   5.906   1.728  1.7740 -1.2270  3.2079
 6464TIP3   OH243586   5.064   3.356   3.221  0.1825 -0.1877  0.4899
 6464TIP3    H143587   4.996   3.317   3.166  0.1466  0.2206  0.2418
 6464TIP3    H243588   5.017   3.411   3.283  0.2256 -0.6179  0.9142
 6465TIP3   OH243589   2.572   3.119   0.384 -0.3102 -0.7973  0.4788
 6465TIP3    H143590   2.494   3.168   0.409 -0.6337 -2.2848  2.6765
 6465TIP3    H243591   2.540   3.034   0.356  0.4680 -1.3999  1.3330
 6466TIP3   OH243592   2.403   2.891   0.428  0.2846 -0.2829  0.0363
 6466TIP3    H143593   2.430   2.809   0.468  0.3569 -0.3176 -0.0839
 6466TIP3    H243594   2.307   2.887   0.428  0.2749 -0.0735  0.6390
 6467TIP3   OH243595   4.449   5.958   1.633 -0.0396 -0.2062  0.0850
 6467TIP3    H143596   4.504   5.886   1.603  0.1162  0.1679 -0.5419
 6467TIP3    H243597   4.504   6.036   1.626 -1.3404  0.6181 -3.0230
 6468TIP3   OH243598   4.587   4.142   2.487 -0.2131  0.5054 -1.1167
 6468TIP3    H143599   4.516   4.141   2.423 -1.5600 -0.9001  0.3375
 6468TIP3    H243600   4.663   4.109   2.438 -1.5256 -1.8536 -1.6891
 6469TIP3   OH243601   5.639   1.756   1.930  0.4996 -0.4375  0.1768
 6469TIP3    H143602   5.658   1.675   1.883  2.3584  0.0235  0.0753
 6469TIP3    H243603   5.569   1.797   1.880  1.5733 -0.5694 -1.4888
 6470TIP3   OH243604   5.310   6.438   2.389 -0.1132  0.1259 -0.4021
 6470TIP3    H143605   5.346   6.403   2.470 -0.1984 -1.0177 -0.8367
 6470TIP3    H243606   5.279   6.361   2.341 -0.4619  0.8185 -1.3266
 6471TIP3   OH243607   5.211   1.561   0.858 -0.0292  0.0815 -0.2367
 6471TIP3    H143608   5.231   1.551   0.765 -0.2668 -0.4777 -0.2329
 6471TIP3    H243609   5.296   1.575   0.899 -0.0216  1.5331 -0.6659
 6472TIP3   OH243610   0.530   1.050   2.314  0.1195  0.1963  0.4417
 6472TIP3    H143611   0.577   1.068   2.232 -0.0324 -0.0016  0.3137
 6472TIP3    H243612   0.587   1.087   2.382  0.8129 -0.6736  0.3483
 6473TIP3   OH243613   2.332   3.492   2.264 -0.1372 -0.3544 -0.1734
 6473TIP3    H143614   2.388   3.521   2.337  0.2807 -2.4162  0.4056
 6473TIP3    H243615   2.342   3.397   2.263 -0.6441 -0.4417 -2.5501
 6474TIP3   OH243616   4.179   3.271   2.239 -0.4729 -0.2615  0.1150
 6474TIP3    H143617   4.158   3.217   2.315  0.7157 -0.5216  0.2740
 6474TIP3    H243618   4.095   3.285   2.195 -0.9551 -1.3288  0.6700
 6475TIP3   OH243619   6.635   0.411   0.335  0.0738 -0.7845  0.5273
 6475TIP3    H143620   6.635   0.382   0.244  0.9932  0.6657  0.0305
 6475TIP3    H243621   6.542   0.422   0.356 -0.1413 -0.8169 -0.3401
 6476TIP3   OH243622   1.214   2.785   0.374 -0.4159 -0.4323 -0.0687
 6476TIP3    H143623   1.172   2.810   0.456 -0.6075  0.7855 -0.5159
 6476TIP3    H243624   1.189   2.854   0.312 -0.0898 -1.2058 -1.0878
 6477TIP3   OH243625   0.853   6.176   0.987 -0.2033 -0.0877 -0.8160
 6477TIP3    H143626   0.772   6.125   0.987 -0.6393  0.5913 -0.5449
 6477TIP3    H243627   0.825   6.266   0.967  0.5110  0.1078 -0.9679
 6478TIP3   OH243628   5.492   7.072   0.721  0.5298  0.5575 -0.3762
 6478TIP3    H143629   5.428   7.017   0.675  1.0646  0.2021 -0.7024
 6478TIP3    H243630   5.490   7.156   0.676 -1.5811  1.4460  1.2026
 6479TIP3   OH243631   7.045   5.935   1.003 -0.2127  0.3984  0.0957
 6479TIP3    H143632   6.996   5.855   0.987 -0.3733  0.5802 -0.3382
 6479TIP3    H243633   7.136   5.911   0.989 -0.3957  0.8067 -2.3264
 6480TIP3   OH243634   5.112   1.217   0.682  0.2034  0.6193  0.2166
 6480TIP3    H143635   5.046   1.238   0.748  1.1705  0.4178  1.2836
 6480TIP3    H243636   5.189   1.192   0.732  0.9218  0.2850 -1.0030
 6481TIP3   OH243637   3.426   6.879   1.734  0.3388 -0.0346 -0.5638
 6481TIP3    H143638   3.491   6.916   1.674  0.3479 -1.1769 -1.3072
 6481TIP3    H243639   3.449   6.786   1.738 -1.1079 -0.4204 -0.6679
 6482TIP3   OH243640   1.232   6.428   1.218  0.2008  0.0894  0.1553
 6482TIP3    H143641   1.168   6.495   1.192  0.6863  1.1317  1.5236
 6482TIP3    H243642   1.188   6.378   1.287  0.6261  0.4123  0.6663
 6483TIP3   OH243643   3.135   3.317   1.338 -0.0300 -0.0242 -0.5210
 6483TIP3    H143644   3.088   3.236   1.355 -2.9680  1.0315 -2.8174
 6483TIP3    H243645   3.222   3.289   1.311 -0.3935 -2.2782  0.4596
 6484TIP3   OH243646   2.011   2.213   0.632  0.2315 -0.1106  0.1277
 6484TIP3    H143647   2.018   2.120   0.649 -1.7261 -0.5995 -1.3016
 6484TIP3    H243648   2.096   2.237   0.594  0.6906 -1.3334  0.3361
 6485TIP3   OH243649   2.359   2.388   1.335  0.2301 -0.3341 -0.3000
 6485TIP3    H143650   2.390   2.359   1.421 -0.2832 -0.6462 -0.2125
 6485TIP3    H243651   2.418   2.459   1.310  0.2249 -0.0662  0.4274
 6486TIP3   OH243652   2.189   6.880   2.280 -0.1780 -0.3538  0.5096
 6486TIP3    H143653   2.267   6.920   2.319 -0.4186  2.4563 -1.5911
 6486TIP3    H243654   2.117   6.916   2.332 -0.2182 -1.0586  0.9504
 6487TIP3   OH243655   1.171   1.269   1.936 -0.0330 -0.2987 -0.1037
 6487TIP3    H143656   1.194   1.250   2.027  0.8178 -0.8832 -0.4245
 6487TIP3    H243657   1.162   1.182   1.895 -0.4602 -0.0451 -0.5562
 6488TIP3   OH243658   0.398   2.915   2.967 -0.0028  0.0821  0.0235
 6488TIP3    H143659   0.423   2.823   2.958 -0.7893 -0.2541  1.0002
 6488TIP3    H243660   0.305   2.912   2.991  0.4310  1.0060  2.0884
 6489TIP3   OH243661   5.212   6.066   2.890  0.0765 -0.6798 -0.0454
 6489TIP3    H143662   5.156   6.023   2.825  0.3042 -1.5980  0.3467
 6489TIP3    H243663   5.151   6.114   2.946 -0.2793 -1.2677  0.0809
 6490TIP3   OH243664   6.110   3.560   1.421 -0.2437 -0.2165  0.3379
 6490TIP3    H143665   6.041   3.544   1.486  0.7441 -0.7472  1.2982
 6490TIP3    H243666   6.192   3.551   1.471  0.5287  0.2021 -0.8127
 6491TIP3   OH243667   0.202   5.457   3.132 -0.1114 -0.3255  0.1001
 6491TIP3    H143668   0.169   5.439   3.044 -0.8356  1.0489  0.0583
 6491TIP3    H243669   0.144   5.525   3.166  1.3211  0.5405  0.9250
 6492TIP3   OH243670   4.876   0.691   2.453  0.2415 -0.5088 -0.6538
 6492TIP3    H143671   4.872   0.786   2.466 -0.7968 -0.6341  0.0811
 6492TIP3    H243672   4.823   0.676   2.374 -2.0825 -0.7230  0.8530
 6493TIP3   OH243673   5.408   4.035   1.741  0.1176  0.1171 -0.5001
 6493TIP3    H143674   5.492   3.996   1.715  0.6551  1.4681 -0.8798
 6493TIP3    H243675   5.394   4.005   1.831  0.6250 -0.7334 -0.6976
 6494TIP3   OH243676   0.460   5.979   2.312  0.1360 -0.2636 -0.3493
 6494TIP3    H143677   0.476   6.071   2.333 -0.1893 -0.2459 -0.1778
 6494TIP3    H243678   0.461   5.976   2.216 -0.2872  0.0001 -0.3680
 6495TIP3   OH243679   6.485   1.123   1.327 -0.0990  0.4245 -0.4780
 6495TIP3    H143680   6.461   1.061   1.396  0.8295 -1.1703 -1.5219
 6495TIP3    H243681   6.579   1.137   1.340  0.1794 -0.2343 -1.6452
 6496TIP3   OH243682   2.163   0.703   2.359 -0.4086 -0.5000  0.2252
 6496TIP3    H143683   2.121   0.766   2.417 -1.0629 -2.1620  1.6549
 6496TIP3    H243684   2.094   0.679   2.297 -0.5288 -0.6716  0.4220
 6497TIP3   OH243685   5.666   0.439   2.919  0.2394 -0.8199  0.5696
 6497TIP3    H143686   5.624   0.385   2.985  0.5561 -1.4099  0.2987
 6497TIP3    H243687   5.623   0.415   2.837  1.7155 -2.1500  0.1251
 6498TIP3   OH243688   5.074   6.951   0.704 -0.5754  0.0345  0.2002
 6498TIP3    H143689   5.096   6.862   0.731 -0.4353 -0.2225 -0.7512
 6498TIP3    H243690   5.079   6.950   0.609  1.5258  1.6064  0.2172
 6499TIP3   OH243691   2.935   7.112   2.362  0.3785  0.1581  0.0180
 6499TIP3    H143692   2.845   7.145   2.358  0.2635 -0.2057 -0.5110
 6499TIP3    H243693   2.929   7.035   2.418  0.0246 -0.8822 -1.4016
 6500TIP3   OH243694   3.535   6.076   0.533  0.1551  0.1936  0.1309
 6500TIP3    H143695   3.480   6.143   0.492  0.1239 -0.7294 -1.4068
 6500TIP3    H243696   3.492   5.993   0.512  0.1012 -0.3390  2.1512
 6501TIP3   OH243697   4.724   0.235   2.811 -0.0778 -0.1272  0.3267
 6501TIP3    H143698   4.774   0.201   2.737 -0.8023  0.5102 -0.4777
 6501TIP3    H243699   4.662   0.165   2.832 -0.9044  0.2675 -0.6884
 6502TIP3   OH243700   6.276   4.717   2.663  0.2266  0.0473  0.5699
 6502TIP3    H143701   6.296   4.659   2.590 -2.0098  0.2838 -0.3134
 6502TIP3    H243702   6.358   4.763   2.680  0.9434 -0.3681 -1.4630
 6503TIP3   OH243703   1.840   2.710   0.567 -0.5950 -0.0126 -0.4795
 6503TIP3    H143704   1.890   2.768   0.624  0.1199  1.1742 -2.2055
 6503TIP3    H243705   1.784   2.769   0.516 -1.1644 -1.0060 -1.0371
 6504TIP3   OH243706   7.288   3.835   0.608 -0.0076  0.0969 -0.6119
 6504TIP3    H143707   7.372   3.881   0.609  0.1707 -0.1397 -2.1494
 6504TIP3    H243708   7.225   3.901   0.580 -0.7150  0.7771  2.3167
 6505TIP3   OH243709   4.426   7.447   1.375 -0.3933  0.2616 -0.4985
 6505TIP3    H143710   4.522   7.447   1.375 -0.3738  1.4398  0.1927
 6505TIP3    H243711   4.402   7.361   1.342  0.8961 -1.0757  1.8169
 6506TIP3   OH243712   1.226   0.994   1.716  0.3865  0.0723 -0.0625
 6506TIP3    H143713   1.282   0.922   1.688 -1.6128 -0.3799 -3.4536
 6506TIP3    H243714   1.276   1.073   1.694  0.4739 -0.3131 -1.3094
 6507TIP3   OH243715   6.100   6.679   0.696 -0.1076  0.0760  0.4891
 6507TIP3    H143716   6.174   6.703   0.640 -0.6661 -1.9988 -1.2633
 6507TIP3    H243717   6.027   6.732   0.664 -0.2192 -0.5014 -0.2518
 6508TIP3   OH243718   5.571   3.040   2.002  0.0666 -0.8684  0.7057
 6508TIP3    H143719   5.635   3.110   1.990  1.4714 -2.0332  1.0613
 6508TIP3    H243720   5.490   3.085   2.025  0.8454  0.6474  0.6045
 6509TIP3   OH243721   3.081   4.141   1.995  0.4530  0.6035 -0.0112
 6509TIP3    H143722   3.151   4.206   1.993 -0.3576  1.5132  0.5963
 6509TIP3    H243723   3.066   4.119   1.903  1.7034  0.1994 -0.1336
 6510TIP3   OH243724   2.414   7.119   2.756 -0.2502  0.3796  0.5816
 6510TIP3    H143725   2.387   7.200   2.711 -0.1211 -0.4703 -1.0976
 6510TIP3    H243726   2.392   7.135   2.847 -2.8985  1.2262 -0.1148
 6511TIP3   OH243727   6.417   1.373   2.384  0.2098  0.0222 -0.8002
 6511TIP3    H143728   6.478   1.310   2.422  0.7720  0.2795 -1.2607
 6511TIP3    H243729   6.331   1.343   2.412  0.6047  0.3794  0.9383
 6512TIP3   OH243730   1.178   2.303   1.452  0.1939  0.2845 -0.0217
 6512TIP3    H143731   1.216   2.216   1.448 -0.7980 -0.4149  2.9877
 6512TIP3    H243732   1.253   2.362   1.454  0.9110 -0.5856 -0.4339
 6513TIP3   OH243733   4.617   3.802   2.512  0.0010  0.0224  0.0905
 6513TIP3    H143734   4.565   3.868   2.557  0.9371  1.4254 -0.8073
 6513TIP3    H243735   4.694   3.849   2.480 -0.5370 -0.8655 -2.8370
 6514TIP3   OH243736   2.256   6.297   2.073 -0.0716 -0.3708  0.6930
 6514TIP3    H143737   2.210   6.292   2.157 -0.1600 -3.2766  0.5823
 6514TIP3    H243738   2.189   6.274   2.008 -0.3443  3.1055 -0.4220
 6515TIP3   OH243739   0.895   3.697   0.971  0.3405 -0.0686 -0.0134
 6515TIP3    H143740   0.819   3.650   0.937 -0.1182 -0.4845  1.5041
 6515TIP3    H243741   0.957   3.627   0.994  0.7920  0.2214 -0.3387
 6516TIP3   OH243742   7.064   7.416   1.151  0.1632  0.6814  0.0689
 6516TIP3    H143743   7.072   7.500   1.196 -0.1725  0.6836  0.1268
 6516TIP3    H243744   6.975   7.387   1.170 -0.0015  0.7106 -0.6344
 6517TIP3   OH243745   0.674   4.332   1.793  0.2789  0.4954 -0.0206
 6517TIP3    H143746   0.726   4.251   1.798 -0.0290  0.3662  1.7283
 6517TIP3    H243747   0.643   4.335   1.703  1.0213 -0.8785 -0.3543
 6518TIP3   OH243748   0.232   5.901   1.386 -0.4357 -0.2856  0.1016
 6518TIP3    H143749   0.158   5.962   1.380 -0.4202 -0.3808 -1.5619
 6518TIP3    H243750   0.220   5.842   1.312  1.8243  0.2776 -0.7867
 6519TIP3   OH243751   3.576   4.925   0.480  0.5350 -0.0177  0.4451
 6519TIP3    H143752   3.636   4.863   0.439  1.1619 -0.4728  1.9640
 6519TIP3    H243753   3.491   4.881   0.479  0.8346 -0.6281  0.8690
 6520TIP3   OH243754   2.685   2.577   1.529 -0.2356 -0.3679  0.4530
 6520TIP3    H143755   2.717   2.528   1.605 -2.0526 -1.5935  0.4989
 6520TIP3    H243756   2.597   2.606   1.554  0.4383  2.2502  0.0897
 6521TIP3   OH243757   0.530   2.741   2.185  0.5131 -0.3281  0.0035
 6521TIP3    H143758   0.540   2.689   2.105  2.7006 -1.1807  0.7403
 6521TIP3    H243759   0.592   2.813   2.175 -0.8915  0.8910 -0.0476
 6522TIP3   OH243760   0.395   4.538   1.388  0.1601  0.0935 -0.3713
 6522TIP3    H143761   0.307   4.507   1.368 -0.0557  0.6786 -0.3280
 6522TIP3    H243762   0.423   4.584   1.308  0.1972  0.4291 -0.1638
 6523TIP3   OH243763   7.214   6.166   1.906  0.0015  0.3886 -0.1332
 6523TIP3    H143764   7.287   6.225   1.888 -0.6324  0.6928 -1.9034
 6523TIP3    H243765   7.154   6.218   1.960  0.3907  0.6540  0.0444
 6524TIP3   OH243766   1.412   4.596   2.410 -0.5072 -1.2045  0.1180
 6524TIP3    H143767   1.438   4.600   2.502 -0.2042 -0.7163  0.0114
 6524TIP3    H243768   1.318   4.616   2.410  0.4619  5.6500 -0.2172
 6525TIP3   OH243769   2.251   2.182   0.475  0.1423  0.2245  0.0931
 6525TIP3    H143770   2.340   2.176   0.509  0.5713  1.8426 -0.6644
 6525TIP3    H243771   2.243   2.104   0.419  1.7741  0.9963 -1.3150
 6526TIP3   OH243772   5.838   5.929   2.529 -0.0624  0.5988 -0.0454
 6526TIP3    H143773   5.786   5.857   2.563  2.0823 -0.4438  1.2801
 6526TIP3    H243774   5.894   5.889   2.462  0.8739  1.0760  0.4291
 6527TIP3   OH243775   1.161   1.221   1.349  0.0356  0.2594  0.9082
 6527TIP3    H143776   1.162   1.296   1.290 -3.7336 -1.6202 -1.9884
 6527TIP3    H243777   1.222   1.159   1.309 -0.6789 -0.0871  0.3333
 6528TIP3   OH243778   0.344   4.012   1.446 -1.2439  0.0408  0.7347
 6528TIP3    H143779   0.419   4.058   1.409 -1.5113  0.3791  0.6101
 6528TIP3    H243780   0.331   4.052   1.532 -1.9119  0.6974  0.3438
 6529TIP3   OH243781   1.762   1.783   2.093  0.2316  0.2856 -0.1684
 6529TIP3    H143782   1.753   1.729   2.172 -0.6431 -1.5386 -1.4515
 6529TIP3    H243783   1.809   1.728   2.031  1.6456  1.9895 -0.7227
 6530TIP3   OH243784   2.714   2.043   0.993 -0.2546  0.2109 -0.2438
 6530TIP3    H143785   2.756   1.989   1.060  1.7646  0.5568 -1.1591
 6530TIP3    H243786   2.691   1.982   0.923 -0.7800  0.1068  0.0143
 6531TIP3   OH243787   5.409   0.796   2.972  0.5608  0.2693 -0.3979
 6531TIP3    H143788   5.367   0.719   2.935  0.6022  0.2651 -0.4367
 6531TIP3    H243789   5.418   0.775   3.065 -0.2855  0.6220 -0.2375
 6532TIP3   OH243790   5.384   4.608   2.233 -0.6981 -0.2682 -0.5691
 6532TIP3    H143791   5.435   4.570   2.304 -0.6695  2.4081  0.9659
 6532TIP3    H243792   5.447   4.618   2.161  0.2622  0.3647  0.3205
 6533TIP3   OH243793   4.201   1.413   1.114  0.5348  0.0750 -0.3165
 6533TIP3    H143794   4.260   1.366   1.173 -0.9869  0.7839  1.9271
 6533TIP3    H243795   4.256   1.440   1.041  2.1534 -2.3197 -0.0852
 6534TIP3   OH243796   3.851   7.344   1.372  0.4194 -0.2230  0.8602
 6534TIP3    H143797   3.858   7.412   1.305 -2.9246  1.3508  1.9039
 6534TIP3    H243798   3.876   7.388   1.453 -0.0049 -0.7726  1.2940
 6535TIP3   OH243799   1.334   0.526   2.473 -0.4464  0.2260 -0.9872
 6535TIP3    H143800   1.346   0.583   2.398  1.0443  1.8607  0.4030
 6535TIP3    H243801   1.240   0.529   2.492 -0.9974 -0.9008 -3.2114
 6536TIP3   OH243802   5.680   4.604   2.177 -0.8746  1.0056  0.4613
 6536TIP3    H143803   5.662   4.544   2.105 -2.2401  0.7801  0.9557
 6536TIP3    H243804   5.708   4.547   2.249  1.6863  1.3323 -0.2144
 6537TIP3   OH243805   2.798   7.524   2.067 -0.5040  0.1565  0.1893
 6537TIP3    H143806   2.861   7.525   2.139 -1.5062  1.3139  1.0958
 6537TIP3    H243807   2.730   7.463   2.095  0.2494 -1.2142 -0.8579
 6538TIP3   OH243808   1.229   3.370   2.513 -0.5449 -0.1904 -0.1378
 6538TIP3    H143809   1.305   3.420   2.485  0.6846 -1.2479  1.1152
 6538TIP3    H243810   1.219   3.392   2.606 -0.2451 -1.8504  0.3232
 6539TIP3   OH243811   6.308   3.459   0.330  0.1112 -0.1459 -0.6506
 6539TIP3    H143812   6.252   3.520   0.282  0.0407  0.3790  0.0764
 6539TIP3    H243813   6.347   3.513   0.400  0.0668 -0.9277 -0.0140
 6540TIP3   OH243814   1.660   2.523   0.632 -0.1553  0.3275 -0.4121
 6540TIP3    H143815   1.718   2.480   0.695 -0.5216  0.6519  0.1548
 6540TIP3    H243816   1.718   2.550   0.560 -0.0090 -1.6631 -1.1003
 6541TIP3   OH243817   3.530   3.868   0.667 -0.0733 -1.0304  0.0745
 6541TIP3    H143818   3.537   3.783   0.710 -0.2443 -0.5487  1.0814
 6541TIP3    H243819   3.595   3.923   0.711  0.0848 -0.6526 -0.6109
 6542TIP3   OH243820   4.841   0.775   0.795 -0.6036 -0.4192 -0.3748
 6542TIP3    H143821   4.797   0.841   0.848 -1.7362 -1.6442  0.2747
 6542TIP3    H243822   4.915   0.821   0.757 -0.0803  0.6869  1.7861
 6543TIP3   OH243823   5.570   0.561   2.318  0.5090  0.4027 -0.1120
 6543TIP3    H143824   5.523   0.639   2.349 -0.1965 -0.7395  1.8502
 6543TIP3    H243825   5.564   0.566   2.222 -2.1689  1.1924  0.0216
 6544TIP3   OH243826   5.342   5.728   1.716 -0.3837 -0.2948 -0.2594
 6544TIP3    H143827   5.429   5.766   1.724 -0.6707  0.7877 -1.7688
 6544TIP3    H243828   5.289   5.797   1.675 -1.7583 -1.1916 -0.0859
 6545TIP3   OH243829   5.829   1.202   2.390 -0.1161  0.1781  0.1249
 6545TIP3    H143830   5.804   1.287   2.356 -3.8121 -0.4458  0.9176
 6545TIP3    H243831   5.819   1.142   2.316  2.2206  0.2879 -0.3596
 6546TIP3   OH243832   6.675   3.509   2.207  0.1676 -0.2947 -0.3374
 6546TIP3    H143833   6.757   3.499   2.159  1.8197  1.9608  1.7847
 6546TIP3    H243834   6.640   3.420   2.211  2.3712 -1.3206 -1.5101
 6547TIP3   OH243835   1.554   5.520   1.808  0.5530  0.5664 -0.0946
 6547TIP3    H143836   1.537   5.532   1.715 -0.3764 -0.4918 -0.0857
 6547TIP3    H243837   1.586   5.605   1.838  0.8614  0.9230 -1.3712
 6548TIP3   OH243838   3.643   6.356   1.646  0.5083  0.6836  0.4385
 6548TIP3    H143839   3.666   6.322   1.733 -0.0847  1.2736  0.8469
 6548TIP3    H243840   3.725   6.389   1.611  0.7861  0.2910  0.7083
 6549TIP3   OH243841   0.331   6.547   1.398  0.0613 -0.4035 -0.3922
 6549TIP3    H143842   0.254   6.511   1.442  0.0371  0.9292  0.7393
 6549TIP3    H243843   0.308   6.638   1.380  0.7946 -0.4156 -1.4802
 6550TIP3   OH243844   3.072   3.543   1.149 -0.1940 -0.3122  0.2364
 6550TIP3    H143845   3.042   3.458   1.181  1.7349 -1.0954  0.1019
 6550TIP3    H243846   2.998   3.578   1.100 -1.2740 -1.5767  0.9054
 6551TIP3   OH243847   3.051   2.367   1.917  0.1654 -0.3560  0.0304
 6551TIP3    H143848   3.055   2.321   1.834  0.0032 -2.0126  0.9000
 6551TIP3    H243849   3.108   2.444   1.905 -0.0073 -0.4611 -1.6385
 6552TIP3   OH243850   4.401   1.686   1.275 -0.5227 -0.1851  0.2513
 6552TIP3    H143851   4.483   1.654   1.313  0.3646 -0.4757 -1.7931
 6552TIP3    H243852   4.427   1.728   1.193 -2.4131 -0.1703 -0.3851
 6553TIP3   OH243853   5.880   3.479   3.024 -0.0081 -0.0442 -0.1160
 6553TIP3    H143854   5.923   3.427   3.092 -1.0007  0.3954  0.8872
 6553TIP3    H243855   5.911   3.569   3.040 -0.0365  0.0192 -0.4170
 6554TIP3   OH243856   2.431   1.963   2.067  0.8947 -0.5934 -0.2539
 6554TIP3    H143857   2.349   1.974   2.019  1.5126  2.3738 -0.7834
 6554TIP3    H243858   2.407   1.912   2.144 -1.2220 -0.6505 -0.9021
 6555TIP3   OH243859   2.396   2.333   2.268 -0.4269 -1.1428 -0.3288
 6555TIP3    H143860   2.308   2.301   2.249 -1.8958  1.5357  1.2772
 6555TIP3    H243861   2.407   2.408   2.209  0.5086 -1.0393 -0.0345
 6556TIP3   OH243862   3.728   4.581   1.518 -0.1943  0.6567 -0.4652
 6556TIP3    H143863   3.641   4.621   1.521 -0.7524 -0.4031 -1.4485
 6556TIP3    H243864   3.713   4.495   1.477  0.9312 -0.6182  1.6372
 6557TIP3   OH243865   1.608   1.998   2.001  0.0781 -0.7961 -0.2493
 6557TIP3    H143866   1.684   1.947   2.030 -0.0840 -0.2500  1.2383
 6557TIP3    H243867   1.534   1.938   2.011  0.1597 -0.9402 -0.5179
 6558TIP3   OH243868   5.214   4.589   0.924  0.3487 -0.3020 -0.0308
 6558TIP3    H143869   5.308   4.577   0.916  0.5781  1.6907 -0.9926
 6558TIP3    H243870   5.177   4.535   0.854  0.9315  0.2794 -0.8180
 6559TIP3   OH243871   0.555   3.651   1.278  0.5289 -0.3091 -0.1854
 6559TIP3    H143872   0.531   3.648   1.371 -0.5620 -1.1067 -0.4733
 6559TIP3    H243873   0.472   3.639   1.231  1.1565 -0.6082 -1.2565
 6560TIP3   OH243874   5.971   0.853   1.887 -0.3797 -0.1575 -0.0159
 6560TIP3    H143875   5.950   0.798   1.963 -1.5533 -0.4591 -0.5270
 6560TIP3    H243876   6.061   0.832   1.865  0.2419  0.4690  1.7299
 6561TIP3   OH243877   0.784   6.048   1.899  0.4229  0.0463 -0.1574
 6561TIP3    H143878   0.830   5.993   1.962 -1.0322 -0.1779  0.7617
 6561TIP3    H243879   0.827   6.133   1.906  0.0429  0.1282  1.4381
 6562TIP3   OH243880   3.152   5.921   1.092 -0.2907 -0.3672  0.0302
 6562TIP3    H143881   3.194   6.007   1.092 -1.9734  0.5194  1.2617
 6562TIP3    H243882   3.209   5.867   1.146  0.0111  0.3894  0.4891
 6563TIP3   OH243883   4.578   0.989   1.319 -0.4577  0.4950 -0.0222
 6563TIP3    H143884   4.532   0.938   1.252 -1.0173  1.5124 -0.4487
 6563TIP3    H243885   4.636   0.927   1.362 -1.0537 -0.4660 -0.5798
 6564TIP3   OH243886   0.368   5.701   2.145 -0.1855  0.2694  0.6601
 6564TIP3    H143887   0.287   5.679   2.192 -0.1351  0.2748  0.7487
 6564TIP3    H243888   0.437   5.660   2.196 -0.2021 -0.3933  0.1663
 6565TIP3   OH243889   0.177   4.133   1.203 -0.6832  0.2123  0.2154
 6565TIP3    H143890   0.213   4.222   1.207  2.6499 -0.9951  2.6728
 6565TIP3    H243891   0.221   4.093   1.128 -2.0367  0.5079 -0.7728
 6566TIP3   OH243892   3.961   1.159   2.768 -0.6244  0.0761  0.1821
 6566TIP3    H143893   3.937   1.252   2.763  1.0677  0.6924  2.3073
 6566TIP3    H243894   4.044   1.154   2.721 -0.8530 -0.4333 -0.1702
 6567TIP3   OH243895   4.454   5.139   0.639 -0.1708 -0.5492  0.2536
 6567TIP3    H143896   4.475   5.054   0.678  2.7299  0.6738  1.6312
 6567TIP3    H243897   4.482   5.131   0.547 -1.2645 -1.4759 -0.0238
 6568TIP3   OH243898   2.313   4.995   0.868  0.4789  0.2432  0.4844
 6568TIP3    H143899   2.284   4.985   0.777  0.4777 -1.2754  0.6391
 6568TIP3    H243900   2.401   5.032   0.860  0.1686  0.9001 -0.0924
 6569TIP3   OH243901   6.456   0.494   1.687 -0.1231  0.1302 -0.3308
 6569TIP3    H143902   6.526   0.490   1.622 -0.6503  1.1830 -0.9880
 6569TIP3    H243903   6.376   0.498   1.635 -0.5137  1.7756  0.3508
 6570TIP3   OH243904   2.239   0.141   1.425 -0.6133  0.2280  0.1612
 6570TIP3    H143905   2.306   0.120   1.359 -1.0414 -1.7037  0.2975
 6570TIP3    H243906   2.288   0.147   1.507 -0.4340  0.0767  0.0680
 6571TIP3   OH243907   1.250   4.631   3.732  0.2409 -0.2295 -0.3900
 6571TIP3    H143908   1.217   4.545   3.757 -0.6914  0.0409 -0.6232
 6571TIP3    H243909   1.345   4.621   3.729  0.1198 -1.3877 -0.9340
 6572TIP3   OH243910   7.264   7.218   1.960  0.2061 -0.3452  0.0126
 6572TIP3    H143911   7.196   7.167   2.006 -0.2643 -0.7980 -1.1545
 6572TIP3    H243912   7.340   7.159   1.957  0.0486 -0.5369 -0.2864
 6573TIP3   OH243913   1.176   2.853   0.938 -0.4772  0.4978  0.1631
 6573TIP3    H143914   1.185   2.790   1.010  1.6430 -0.7814 -1.1209
 6573TIP3    H243915   1.208   2.935   0.974 -0.9465  0.2786  1.1328
 6574TIP3   OH243916   3.503   5.200   0.536 -0.4106 -0.1105 -0.1822
 6574TIP3    H143917   3.407   5.194   0.537 -0.4768  0.4475 -1.5035
 6574TIP3    H243918   3.532   5.113   0.507 -0.6077  0.2688 -1.5640
 6575TIP3   OH243919   5.197   2.101   1.814  0.0438 -0.1247 -0.2508
 6575TIP3    H143920   5.231   2.183   1.849  0.1088 -0.1710 -0.2064
 6575TIP3    H243921   5.247   2.085   1.734 -0.1781  0.0365 -0.4251
 6576TIP3   OH243922   3.227   0.820   0.746 -0.3302 -0.0252  0.0751
 6576TIP3    H143923   3.197   0.747   0.692 -0.0659 -0.9633  1.1694
 6576TIP3    H243924   3.183   0.897   0.709 -0.6469 -0.7355 -1.0652
 6577TIP3   OH243925   5.829   1.524   1.819  0.1101 -0.5667 -0.6068
 6577TIP3    H143926   5.895   1.590   1.794 -1.7899  1.2569 -1.1037
 6577TIP3    H243927   5.852   1.446   1.768  2.2105 -0.1980 -0.3034
 6578TIP3   OH243928   2.950   1.482   1.674  0.1885 -0.1374  0.1008
 6578TIP3    H143929   2.954   1.458   1.767  1.9013  0.4104  0.2042
 6578TIP3    H243930   2.865   1.523   1.664  0.6522  1.4148  1.8597
 6579TIP3   OH243931   4.080   6.072   0.584  0.1476 -0.3176 -0.7277
 6579TIP3    H143932   4.157   6.021   0.558  1.0076 -0.6749  2.1275
 6579TIP3    H243933   4.053   6.034   0.667 -1.8648  1.1564 -0.6340
 6580TIP3   OH243934   6.431   6.654   2.614 -0.0447 -0.2630  0.4205
 6580TIP3    H143935   6.361   6.698   2.662 -0.2724 -0.5595  0.3636
 6580TIP3    H243936   6.420   6.562   2.635 -0.6042 -0.4901 -0.7644
 6581TIP3   OH243937   3.571   4.935   0.972  0.1200  0.2043 -0.5186
 6581TIP3    H143938   3.602   4.844   0.975 -0.4507 -0.0058 -0.8048
 6581TIP3    H243939   3.641   4.982   0.926  0.4605 -0.0704 -0.2914
 6582TIP3   OH243940   4.698   0.341   3.463 -0.5033 -0.2223  0.0412
 6582TIP3    H143941   4.685   0.399   3.388 -2.0074 -0.3515  0.1784
 6582TIP3    H243942   4.735   0.398   3.530  0.1236  0.0667 -0.5297
 6583TIP3   OH243943   5.080   1.671   1.427  0.0770  0.1466 -0.8156
 6583TIP3    H143944   5.043   1.736   1.367 -0.7284 -0.9830 -1.5854
 6583TIP3    H243945   5.154   1.633   1.379  1.5478  1.5400  0.2447
 6584TIP3   OH243946   3.196   1.293   1.259  0.2068  0.1871  0.0646
 6584TIP3    H143947   3.236   1.372   1.223  1.2112 -0.2810  0.1130
 6584TIP3    H243948   3.213   1.298   1.353  0.2474 -0.0631  0.0716
 6585TIP3   OH243949   0.124   0.574   1.367 -0.0692  0.1353 -0.2207
 6585TIP3    H143950   0.157   0.658   1.399 -1.4010  0.2606  0.9040
 6585TIP3    H243951   0.190   0.510   1.392  0.4139  0.6939 -0.0633
 6586TIP3   OH243952   0.947   3.070   1.161 -0.1847  0.4268 -0.2000
 6586TIP3    H143953   0.904   3.004   1.107 -0.5213 -0.1781  0.7689
 6586TIP3    H243954   0.894   3.149   1.150 -0.7057  0.0889 -0.1563
 6587TIP3   OH243955   5.508   5.467   0.644 -0.7916  0.0898  0.0308
 6587TIP3    H143956   5.573   5.400   0.666  1.6635  2.1240 -0.4668
 6587TIP3    H243957   5.447   5.424   0.584  0.6187 -1.6944 -0.2025
 6588TIP3   OH243958   1.962   6.408   1.966 -0.2107  0.3982  0.0428
 6588TIP3    H143959   1.984   6.493   1.927  1.4942 -0.2529 -0.5249
 6588TIP3    H243960   1.964   6.422   2.060 -1.3578  1.2931 -0.0481
 6589TIP3   OH243961   4.557   4.543   2.005 -0.6018 -0.4331 -0.2659
 6589TIP3    H143962   4.539   4.600   1.930  1.1616  0.2809 -0.2058
 6589TIP3    H243963   4.572   4.603   2.078  0.6345 -0.9737 -0.0441
 6590TIP3   OH243964   1.885   4.456   1.274 -0.5653 -1.3273  0.1128
 6590TIP3    H143965   1.852   4.366   1.280  0.1675 -1.5809  0.5304
 6590TIP3    H243966   1.858   4.496   1.357  0.0331 -1.4911  0.3911
 6591TIP3   OH243967   6.248   7.243   1.309  0.0351  0.5431 -0.4276
 6591TIP3    H143968   6.193   7.194   1.247 -1.0212 -0.1805  1.0374
 6591TIP3    H243969   6.194   7.317   1.336 -0.6227 -0.6403  1.6758
 6592TIP3   OH243970   5.819   1.075   2.821  0.2316  0.5004 -0.1439
 6592TIP3    H143971   5.833   1.105   2.911 -1.5241 -0.7408  0.6079
 6592TIP3    H243972   5.759   1.001   2.830  1.3806 -0.7776 -2.2162
 6593TIP3   OH243973   3.682   3.291   1.208  0.0587 -0.4944 -0.3275
 6593TIP3    H143974   3.733   3.254   1.280  1.0473 -0.5870 -1.0436
 6593TIP3    H243975   3.672   3.383   1.230 -2.5695 -1.1042  1.5610
 6594TIP3   OH243976   5.841   6.543   0.770  0.0944  0.7136  0.1636
 6594TIP3    H143977   5.887   6.615   0.728 -0.0108  0.0562 -1.1225
 6594TIP3    H243978   5.791   6.584   0.841 -0.7063  2.0363 -1.1344
 6595TIP3   OH243979   5.951   1.576   0.551 -0.2333  0.2194 -0.4095
 6595TIP3    H143980   6.037   1.565   0.510  0.9830 -0.5123  2.1142
 6595TIP3    H243981   5.934   1.670   0.544  1.6450  0.7003  0.4993
 6596TIP3   OH243982   2.512   4.038   0.434 -0.1965  0.1576  0.5170
 6596TIP3    H143983   2.595   3.990   0.429 -0.0431  0.0767  2.6762
 6596TIP3    H243984   2.452   3.989   0.379  0.9784 -0.2369 -0.4567
 6597TIP3   OH243985   3.825   7.151   0.871 -0.7275  0.0463 -0.5886
 6597TIP3    H143986   3.812   7.174   0.963  0.5088 -0.2659 -0.3189
 6597TIP3    H243987   3.786   7.225   0.822  0.6604  1.3679  0.2186
 6598TIP3   OH243988   6.952   3.095   3.623 -0.2175  0.1160 -0.2783
 6598TIP3    H143989   6.906   3.029   3.675  0.1376 -0.4737 -0.7148
 6598TIP3    H243990   7.013   3.046   3.569  1.0255  0.8979  0.3711
 6599TIP3   OH243991   7.290   1.706   0.376  0.3200  0.1962  0.1014
 6599TIP3    H143992   7.287   1.619   0.416  4.1500  0.1138  0.5105
 6599TIP3    H243993   7.290   1.689   0.282 -0.4134 -0.1246  0.1518
 6600TIP3   OH243994   3.911   1.315   1.109  0.3265 -0.2009  0.2984
 6600TIP3    H143995   4.004   1.300   1.124  0.1448 -1.3452  0.3124
 6600TIP3    H243996   3.871   1.229   1.115 -0.7824  0.3159  0.5929
 6601TIP3   OH243997   6.184   5.574   0.948 -0.3696 -0.0842  0.4445
 6601TIP3    H143998   6.148   5.564   0.860 -0.3740  0.0515  0.4301
 6601TIP3    H243999   6.198   5.485   0.979 -1.0864 -0.1505  0.6030
 6602TIP3   OH244000   5.803   3.668   1.198 -0.0609  0.3867  0.3894
 6602TIP3    H144001   5.764   3.744   1.239  1.1888  0.8013  0.8692
 6602TIP3    H244002   5.729   3.613   1.172 -0.9301  1.0004  1.4895
 6603TIP3   OH244003   2.281   6.395   1.065  0.1207 -0.1854 -0.0448
 6603TIP3    H144004   2.189   6.411   1.084  0.5509  1.7084  0.6280
 6603TIP3    H244005   2.287   6.299   1.058 -1.3122 -0.6465  3.0890
 6604TIP3   OH244006   7.342   2.003   1.338 -0.3108 -0.4304  0.3773
 6604TIP3    H144007   7.356   2.016   1.245  0.7379  1.3163  0.7374
 6604TIP3    H244008   7.247   2.012   1.350 -0.5986 -1.7799 -0.6352
 6605TIP3   OH244009   7.142   3.350   1.675 -0.4164 -0.5152  0.2479
 6605TIP3    H144010   7.094   3.311   1.602 -0.8792  0.8584 -0.2055
 6605TIP3    H244011   7.124   3.292   1.749 -1.6941 -0.7569 -0.2218
 6606TIP3   OH244012   2.250   7.395   0.427 -0.0594 -0.5554 -0.2097
 6606TIP3    H144013   2.168   7.408   0.378  0.6570 -0.1231 -1.3432
 6606TIP3    H244014   2.249   7.464   0.494 -0.4748 -0.3434 -0.4287
 6607TIP3   OH244015   1.736   2.640   3.183 -0.7154 -0.2245  0.0066
 6607TIP3    H144016   1.673   2.580   3.143 -2.9157  3.2350 -2.2086
 6607TIP3    H244017   1.800   2.657   3.114  0.6565 -0.9284  1.0563
 6608TIP3   OH244018   3.288   5.051   0.371  0.3341 -0.4626  0.1696
 6608TIP3    H144019   3.278   4.956   0.362  0.3669 -0.3063 -2.2904
 6608TIP3    H244020   3.378   5.068   0.343 -0.5354  0.4986 -2.3937
 6609TIP3   OH244021   6.229   0.474   1.211  0.0183 -0.1100  0.0533
 6609TIP3    H144022   6.157   0.528   1.175 -1.0729 -0.8094  1.1261
 6609TIP3    H244023   6.222   0.391   1.163  0.3432 -0.0572 -0.0864
 6610TIP3   OH244024   3.155   1.687   7.596 -0.3448 -0.3198 -0.0260
 6610TIP3    H144025   3.153   1.610   7.653 -1.1388 -0.4047 -0.1630
 6610TIP3    H244026   3.102   1.752   7.642  0.5317  0.2563  0.2190
 6611TIP3   OH244027   3.515   0.824   1.548 -0.2446  0.9737 -0.2688
 6611TIP3    H144028   3.581   0.795   1.611 -0.6322 -0.4791 -0.4867
 6611TIP3    H244029   3.551   0.798   1.463 -0.3983  1.5779 -0.5184
 6612TIP3   OH244030   3.357   6.370   2.247 -0.8059 -0.3437  0.5173
 6612TIP3    H144031   3.417   6.297   2.261  1.2463  0.9258 -1.0966
 6612TIP3    H244032   3.278   6.330   2.209  1.1484 -1.5749 -2.6045
 6613TIP3   OH244033   1.565   4.091   2.951  0.7228 -0.7103 -0.1285
 6613TIP3    H144034   1.637   4.152   2.969  1.1824 -0.9324 -1.1433
 6613TIP3    H244035   1.539   4.059   3.037  2.7263 -1.6276  0.1797
 6614TIP3   OH244036   6.304   0.647   2.588 -0.2402  0.0675 -1.0629
 6614TIP3    H144037   6.364   0.716   2.616 -0.7754 -0.0153  0.3928
 6614TIP3    H244038   6.221   0.692   2.572 -0.9649 -0.3500  1.1769
 6615TIP3   OH244039   4.988   4.574   1.097  0.6591  0.2167  0.2626
 6615TIP3    H144040   5.069   4.581   1.047  0.6304 -0.1313  0.1676
 6615TIP3    H244041   4.946   4.660   1.086  1.2049  0.5438  0.6556
 6616TIP3   OH244042   2.910   5.458   2.604  0.4187 -0.3171  0.0404
 6616TIP3    H144043   2.980   5.448   2.668  0.5484 -0.3169 -0.0990
 6616TIP3    H244044   2.922   5.547   2.569  1.2134 -0.7992 -0.9843
 6617TIP3   OH244045   2.943   5.513   3.077 -0.8764 -0.0841 -0.0267
 6617TIP3    H144046   3.015   5.534   3.137 -0.1095 -0.5529 -0.7410
 6617TIP3    H244047   2.921   5.596   3.035  0.2860 -0.1840 -0.8846
 6618TIP3   OH244048   3.131   3.975   1.514  0.1459 -0.5872  0.4914
 6618TIP3    H144049   3.124   3.887   1.475 -0.9694 -0.3259  0.0398
 6618TIP3    H244050   3.044   4.013   1.502  0.9426  1.0501 -0.4292
 6619TIP3   OH244051   2.553   5.860   2.753 -0.4857  0.2365 -0.5972
 6619TIP3    H144052   2.529   5.829   2.666  0.4443 -0.0969 -0.7371
 6619TIP3    H244053   2.472   5.852   2.804 -1.4129  1.6778 -1.7509
 6620TIP3   OH244054   6.387   6.694   1.766 -1.2460  0.4814 -0.1574
 6620TIP3    H144055   6.373   6.770   1.822  0.2779 -0.1793  1.2337
 6620TIP3    H244056   6.321   6.631   1.793 -1.0413  0.4755  0.3445
 6621TIP3   OH244057   6.414   3.123   1.134  0.2051  0.0952 -0.1577
 6621TIP3    H144058   6.401   3.030   1.155  0.6000  0.4505  1.9413
 6621TIP3    H244059   6.389   3.169   1.214  2.4788  1.5964 -0.2045
 6622TIP3   OH244060   4.926   4.960   0.845 -0.8105 -0.2840  0.1540
 6622TIP3    H144061   4.886   4.893   0.789  1.7479 -0.6021 -1.4327
 6622TIP3    H244062   5.010   4.923   0.871 -1.5261  0.1877  3.7026
 6623TIP3   OH244063   6.934   6.337   1.550 -0.0745 -0.0873 -0.3945
 6623TIP3    H144064   6.895   6.424   1.536 -0.2894  0.1092  1.1736
 6623TIP3    H244065   6.891   6.281   1.485 -1.2225  0.6287 -0.2930
 6624TIP3   OH244066   1.385   0.795   1.675 -0.1454  0.2710 -0.4792
 6624TIP3    H144067   1.440   0.736   1.623 -1.0439  0.7010 -1.9627
 6624TIP3    H244068   1.370   0.747   1.757  2.3102  0.0942 -0.0448
 6625TIP3   OH244069   4.276   0.747   1.928 -0.5147  0.5409 -0.0734
 6625TIP3    H144070   4.286   0.795   2.010 -1.2270  2.3777 -1.0027
 6625TIP3    H244071   4.234   0.665   1.953 -0.0585  0.7398  1.4661
 6626TIP3   OH244072   1.403   2.737   3.247 -0.2089 -0.3835  0.4037
 6626TIP3    H144073   1.349   2.663   3.219 -0.3663 -0.7012  1.4823
 6626TIP3    H244074   1.492   2.714   3.219  0.2879 -2.4303  3.2469
 6627TIP3   OH244075   4.840   7.062   3.098 -0.2290 -0.1031  0.5041
 6627TIP3    H144076   4.930   7.032   3.112 -0.3570 -0.3782  0.7574
 6627TIP3    H244077   4.818   7.111   3.178  0.3909  1.7304 -0.4007
 6628TIP3   OH244078   2.432   6.563   0.889 -0.2918 -0.0407  0.8932
 6628TIP3    H144079   2.498   6.504   0.853 -1.2814 -0.5530 -0.1332
 6628TIP3    H244080   2.386   6.511   0.955 -0.4018 -0.0368  0.8192
 6629TIP3   OH244081   3.563   1.174   1.153 -0.0119 -0.1784 -0.6762
 6629TIP3    H144082   3.537   1.088   1.186 -0.1966 -0.4795 -1.5779
 6629TIP3    H244083   3.651   1.161   1.118 -0.1863 -0.0962 -1.1527
 6630TIP3   OH244084   0.549   2.399   2.505  0.1541 -0.1564  0.9100
 6630TIP3    H144085   0.499   2.463   2.555  0.6548  0.9942 -0.0101
 6630TIP3    H244086   0.483   2.342   2.466 -0.6773  2.3209 -1.6466
 6631TIP3   OH244087   0.355   6.828   2.509 -0.1007  0.1979 -0.2784
 6631TIP3    H144088   0.427   6.768   2.532  0.8250  1.4723  0.2494
 6631TIP3    H244089   0.398   6.911   2.489 -1.4819  1.3394  1.1929
 6632TIP3   OH244090   0.789   7.224   2.057 -0.1601 -0.8399 -0.1544
 6632TIP3    H144091   0.771   7.193   1.968 -2.1203 -0.1491 -0.0562
 6632TIP3    H244092   0.779   7.319   2.052  0.3669 -0.7284  0.6738
 6633TIP3   OH244093   0.625   1.444   1.274  0.5189  0.2304 -0.0686
 6633TIP3    H144094   0.535   1.461   1.247 -0.5825  0.1327  3.0903
 6633TIP3    H244095   0.657   1.378   1.213 -1.7460 -0.1658 -0.9096
 6634TIP3   OH244096   4.210   6.251   2.873 -0.0514 -0.0713  0.2305
 6634TIP3    H144097   4.181   6.301   2.950 -0.5705  1.3382 -0.8470
 6634TIP3    H244098   4.135   6.198   2.849 -0.4347  0.6695 -0.2332
 6635TIP3   OH244099   5.916   3.018   2.547  0.7118  0.2271 -0.0945
 6635TIP3    H144100   5.974   2.994   2.475  1.2313  1.4716 -0.1104
 6635TIP3    H244101   5.892   2.934   2.588  1.3999 -0.3934 -0.9447
 6636TIP3   OH244102   4.495   5.596   0.627  0.7029 -0.3004 -0.4793
 6636TIP3    H144103   4.399   5.597   0.631  0.5881  1.1190 -2.2426
 6636TIP3    H244104   4.520   5.515   0.673 -1.4183 -1.6538 -1.5402
 6637TIP3   OH244105   7.017   6.963   2.385 -0.2945 -0.0826  0.4973
 6637TIP3    H144106   6.975   6.880   2.362  2.1582 -1.4006  0.4043
 6637TIP3    H244107   7.079   6.940   2.454  2.8038  0.9098 -1.7093
 6638TIP3   OH244108   6.584   3.030   0.919 -0.3398 -0.2815 -0.2609
 6638TIP3    H144109   6.613   2.958   0.975 -0.2971 -0.0584  0.0031
 6638TIP3    H244110   6.496   3.051   0.950 -0.5186 -0.4926 -0.6077
 6639TIP3   OH244111   7.181   3.152   0.388 -0.0332  0.4612  0.3824
 6639TIP3    H144112   7.118   3.217   0.417  1.8388  1.4144  2.6349
 6639TIP3    H244113   7.262   3.201   0.373  0.6725 -0.9494 -0.7118
 6640TIP3   OH244114   2.042   6.179   0.826  0.4940  0.4085 -0.4655
 6640TIP3    H144115   2.085   6.166   0.911  0.6710  2.0197 -0.2655
 6640TIP3    H244116   1.962   6.228   0.848 -0.0074 -0.0912 -1.1336
 6641TIP3   OH244117   0.040   3.705   0.633 -0.0027 -0.3885  0.0214
 6641TIP3    H144118   0.105   3.761   0.590 -0.4069 -0.3553 -0.5547
 6641TIP3    H244119   0.092   3.644   0.685  0.5145 -0.6575 -0.7910
 6642TIP3   OH244120   2.442   1.376   1.337  0.4845  0.1280 -0.3099
 6642TIP3    H144121   2.421   1.439   1.268  1.3017 -0.7001 -1.3457
 6642TIP3    H244122   2.387   1.300   1.318  0.1567  0.1672  0.4164
 6643TIP3   OH244123   4.178   2.809   1.793  0.6350 -0.1060 -0.1690
 6643TIP3    H144124   4.150   2.822   1.884  0.0825 -0.1979 -0.3219
 6643TIP3    H244125   4.096   2.805   1.743  0.9614  1.0608 -0.8318
 6644TIP3   OH244126   5.304   6.805   2.526  0.5807  0.6237 -0.0779
 6644TIP3    H144127   5.320   6.756   2.606 -0.3161  1.8002  0.8568
 6644TIP3    H244128   5.255   6.882   2.554  0.7148  1.3418 -1.6886
 6645TIP3   OH244129   0.505   5.911   0.413  0.2983  0.2986  0.2808
 6645TIP3    H144130   0.412   5.930   0.400 -0.3566  0.3591  4.0510
 6645TIP3    H244131   0.546   5.997   0.425  0.1343  0.1409  2.1784
 6646TIP3   OH244132   0.917   2.581   1.835 -0.2378 -0.0887  0.0885
 6646TIP3    H144133   0.975   2.652   1.807 -1.1051  1.4438  1.9117
 6646TIP3    H244134   0.970   2.530   1.897 -0.3061  0.3658  0.5320
 6647TIP3   OH244135   2.833   5.071   0.948  0.1751 -0.3313 -0.0016
 6647TIP3    H144136   2.892   5.040   1.017  2.1623  1.5028 -0.7509
 6647TIP3    H244137   2.892   5.096   0.876 -1.7119 -0.6641 -1.7505
 6648TIP3   OH244138   0.346   1.818   1.397  0.5089  0.1281 -0.2254
 6648TIP3    H144139   0.395   1.872   1.459  0.1476 -1.3050  1.3920
 6648TIP3    H244140   0.257   1.852   1.401  0.0181 -1.2425  1.6780
 6649TIP3   OH244141   6.868   4.615   1.351  0.0883 -0.2377  0.6424
 6649TIP3    H144142   6.867   4.685   1.416  0.5227  1.1459 -0.7831
 6649TIP3    H244143   6.946   4.564   1.372 -0.2586 -0.3447  1.7266
 6650TIP3   OH244144   6.353   3.863   1.104 -0.2288 -0.0696  0.1007
 6650TIP3    H144145   6.286   3.804   1.139  2.1871 -1.1248  3.5070
 6650TIP3    H244146   6.420   3.804   1.069  0.8552  0.7298  0.7705
 6651TIP3   OH244147   5.371   4.490   2.956  0.2105 -0.1641  0.6820
 6651TIP3    H144148   5.460   4.466   2.981  0.2902 -0.3759  0.2053
 6651TIP3    H244149   5.337   4.413   2.910 -0.8745 -0.8018  2.4385
 6652TIP3   OH244150   0.135   6.769   2.654 -0.0268 -0.3688 -0.0337
 6652TIP3    H144151   0.192   6.806   2.587 -1.2017  0.3392 -0.6727
 6652TIP3    H244152   0.181   6.785   2.736  0.8805 -0.1809 -0.5657
 6653TIP3   OH244153   5.922   7.117   1.399  0.6024  0.9495  0.1002
 6653TIP3    H144154   5.933   7.206   1.432  5.0661  0.8561 -0.5955
 6653TIP3    H244155   5.949   7.122   1.307 -1.1126 -0.8091 -0.5750
 6654TIP3   OH244156   4.792   0.885   1.061  0.8603  0.6179  0.5502
 6654TIP3    H144157   4.769   0.975   1.037 -0.1094  0.1364 -0.3687
 6654TIP3    H244158   4.710   0.846   1.091  1.0284 -0.3138 -0.1689
 6655TIP3   OH244159   1.548   2.752   0.840 -0.3388 -0.5838  0.1670
 6655TIP3    H144160   1.565   2.694   0.765  0.2246 -0.4695  0.1997
 6655TIP3    H244161   1.634   2.767   0.879 -0.6763 -0.9379  1.0661
 6656TIP3   OH244162   3.046   7.467   2.175 -0.1158 -0.1893  1.0648
 6656TIP3    H144163   3.129   7.513   2.167 -0.1699 -0.2008  0.4311
 6656TIP3    H244164   3.069   7.374   2.170 -0.3148 -0.1674 -0.6006
 6657TIP3   OH244165   6.581   6.487   2.332 -0.1665  0.1976  0.8286
 6657TIP3    H144166   6.490   6.485   2.362 -0.2781 -0.8448  0.4641
 6657TIP3    H244167   6.575   6.514   2.240 -0.2550 -1.1457  0.4063
 6658TIP3   OH244168   0.977   2.763   2.781  0.4809 -0.3476  0.3810
 6658TIP3    H144169   0.943   2.773   2.693 -0.3856  0.4767  0.7901
 6658TIP3    H244170   0.909   2.715   2.828  0.8978 -0.7077  0.6298
 6659TIP3   OH244171   6.856   0.941   3.606  0.5008  0.0063  0.9557
 6659TIP3    H144172   6.765   0.971   3.613 -0.5888 -2.4278 -1.1877
 6659TIP3    H244173   6.899   1.006   3.551 -0.5188  0.0982  0.2472
 6660TIP3   OH244174   2.583   0.660   2.295 -0.3400 -0.4030 -0.3070
 6660TIP3    H144175   2.552   0.578   2.334  1.3373 -0.0996  1.8926
 6660TIP3    H244176   2.654   0.634   2.236 -0.2418 -0.5925 -0.1059
 6661TIP3   OH244177   3.219   3.528   2.159 -0.5847  0.0566 -0.2265
 6661TIP3    H144178   3.238   3.437   2.179  0.5537  0.2505 -0.3920
 6661TIP3    H244179   3.159   3.524   2.084  0.9389 -0.5371 -1.4569
 6662TIP3   OH244180   1.799   5.905   2.727 -0.2494 -0.3131 -0.4987
 6662TIP3    H144181   1.868   5.877   2.787 -1.9624 -2.7604  0.5035
 6662TIP3    H244182   1.754   5.975   2.775 -0.2937 -0.7894  0.1756
 6663TIP3   OH244183   1.854   2.095   2.486  0.0454 -0.2437  0.5823
 6663TIP3    H144184   1.784   2.042   2.524 -0.6912  0.2451 -0.0533
 6663TIP3    H244185   1.810   2.175   2.458  0.9940  0.3756  0.8136
 6664TIP3   OH244186   7.452   1.341   2.045 -1.1233 -0.4198  0.5378
 6664TIP3    H144187   7.419   1.430   2.055 -0.7512 -0.2517  0.2457
 6664TIP3    H244188   7.539   1.342   2.085 -1.4635 -0.8711  1.3248
 6665TIP3   OH244189   6.541   4.835   2.767 -0.0912  0.3722 -0.4452
 6665TIP3    H144190   6.591   4.898   2.818  0.6048 -1.6025  1.4672
 6665TIP3    H244191   6.597   4.758   2.762 -0.6166  0.0432 -3.2833
 6666TIP3   OH244192   3.219   0.399   2.182 -0.3298 -0.2831 -0.0460
 6666TIP3    H144193   3.240   0.474   2.238  2.2181 -1.1026  0.2596
 6666TIP3    H244194   3.132   0.371   2.210 -0.7784  1.7518  0.7211
 6667TIP3   OH244195   5.968   1.145   2.616  0.0064  0.2340 -0.3805
 6667TIP3    H144196   5.912   1.117   2.688 -0.0767  0.7355 -0.2489
 6667TIP3    H244197   5.909   1.158   2.542  0.0176  0.2649 -0.3841
 6668TIP3   OH244198   0.088   0.793   2.218 -0.3193 -0.2596 -0.4799
 6668TIP3    H144199   0.015   0.773   2.277 -0.4383  0.9788 -0.1711
 6668TIP3    H244200   0.091   0.719   2.158 -1.0541 -0.9126  0.2535
 6669TIP3   OH244201   2.295   5.367   3.104 -0.4066 -0.6739 -0.1552
 6669TIP3    H144202   2.264   5.401   3.187 -0.9986  1.4776 -1.1854
 6669TIP3    H244203   2.226   5.387   3.041  1.1459  0.2656 -1.6735
 6670TIP3   OH244204   4.050   6.037   2.327  0.5597 -0.4077 -0.2255
 6670TIP3    H144205   4.104   6.044   2.248 -0.2273 -1.7029 -0.9059
 6670TIP3    H244206   4.113   6.042   2.399  1.6578 -2.2109 -1.0035
 6671TIP3   OH244207   5.595   3.218   0.688  0.1877 -0.2028  0.3982
 6671TIP3    H144208   5.681   3.256   0.673  0.4006 -1.1050 -0.9106
 6671TIP3    H244209   5.552   3.278   0.749  0.1848  2.6028 -2.1181
 6672TIP3   OH244210   4.693   0.619   1.666  0.5069  0.6400 -0.2862
 6672TIP3    H144211   4.613   0.607   1.615  0.3824 -0.1825  0.0837
 6672TIP3    H244212   4.763   0.622   1.601  0.4697 -1.4151 -0.5028
 6673TIP3   OH244213   2.509   6.653   1.944  0.4898 -0.6904 -0.6042
 6673TIP3    H144214   2.598   6.678   1.917  0.4796  1.8122  1.4235
 6673TIP3    H244215   2.457   6.733   1.936 -0.5510 -0.9530  2.2754
 6674TIP3   OH244216   2.003   6.411   1.095  0.3797  0.2227  0.4678
 6674TIP3    H144217   1.972   6.450   1.177 -2.0549 -1.5940  0.5320
 6674TIP3    H244218   1.927   6.411   1.038  1.7608  0.4904 -1.4715
 6675TIP3   OH244219   5.933   4.189   2.497 -0.0905  0.4374 -0.5225
 6675TIP3    H144220   6.009   4.218   2.448  0.3146  0.1700 -0.0658
 6675TIP3    H244221   5.970   4.148   2.576 -0.6923  0.0420 -0.4411
 6676TIP3   OH244222   6.657   4.429   1.599 -0.0369 -0.2698 -0.2582
 6676TIP3    H144223   6.735   4.377   1.582  0.3238  0.1873 -0.0427
 6676TIP3    H244224   6.684   4.519   1.580 -1.2352 -0.3335 -2.6757
 6677TIP3   OH244225   3.204   2.882   1.074  0.0582 -0.1711 -0.1682
 6677TIP3    H144226   3.255   2.924   1.005 -2.6265  2.1001 -0.9461
 6677TIP3    H244227   3.258   2.890   1.153  1.0878  1.6911 -1.0166
 6678TIP3   OH244228   2.954   5.522   1.024  0.0792 -0.7259 -0.3306
 6678TIP3    H144229   2.908   5.451   0.979  0.9306 -0.9423 -0.8778
 6678TIP3    H244230   3.023   5.549   0.964 -0.2442  0.5995 -0.1402
 6679TIP3   OH244231   0.322   7.529   1.400 -0.5787 -0.1422  0.0540
 6679TIP3    H144232   0.257   7.582   1.447 -0.5377  0.6293 -0.7312
 6679TIP3    H244233   0.323   7.565   1.311 -1.1574 -1.9949 -0.7639
 6680TIP3   OH244234   1.847   3.119   1.331  0.5936 -0.3892 -0.3458
 6680TIP3    H144235   1.834   3.026   1.311 -0.9208 -0.1743 -0.5077
 6680TIP3    H244236   1.761   3.159   1.315  0.7469  0.7404  1.3625
 6681TIP3   OH244237   4.292   6.508   2.717  0.3950  0.5533 -0.0556
 6681TIP3    H144238   4.289   6.568   2.792 -1.1146 -0.0340  0.3881
 6681TIP3    H244239   4.237   6.435   2.743 -0.0288  0.2580 -1.6857
 6682TIP3   OH244240   2.826   3.011   2.784 -0.6826 -0.4000  0.4153
 6682TIP3    H144241   2.853   3.101   2.769 -1.6010 -0.0084  1.0666
 6682TIP3    H244242   2.906   2.960   2.770  0.4323  0.7232  2.3055
 6683TIP3   OH244243   3.686   5.436   2.251  0.2813 -0.4073  0.0792
 6683TIP3    H144244   3.756   5.475   2.198  1.1458 -1.1709  0.6321
 6683TIP3    H244245   3.626   5.397   2.187  0.1350  0.6007 -0.4169
 6684TIP3   OH244246   2.975   1.391   1.993  0.1710  0.6426  0.8104
 6684TIP3    H144247   2.935   1.383   2.079 -0.9190 -0.4375  0.2325
 6684TIP3    H244248   3.054   1.443   2.008  0.7801 -0.7249  2.7127
 6685TIP3   OH244249   2.901   0.945   1.209 -0.4248  0.0155  0.5256
 6685TIP3    H144250   2.878   0.950   1.302 -0.0743 -0.1538  0.6255
 6685TIP3    H244251   2.989   0.982   1.205 -0.8469  0.9940  0.0967
 6686TIP3   OH244252   3.586   1.962   0.421 -0.4159 -0.1891 -0.5521
 6686TIP3    H144253   3.611   1.940   0.332 -0.8227 -2.5271 -0.1509
 6686TIP3    H244254   3.652   1.921   0.476 -0.1716  1.2146  0.2621
 6687TIP3   OH244255   4.299   5.959   3.329 -0.7007  0.1421 -0.3510
 6687TIP3    H144256   4.262   6.045   3.308 -0.6397 -0.0962 -1.5399
 6687TIP3    H244257   4.228   5.898   3.308 -0.0537 -0.2325 -1.5499
 6688TIP3   OH244258   3.282   7.417   2.396  0.2442 -0.1653  0.1117
 6688TIP3    H144259   3.288   7.401   2.302 -0.4472  0.1440  0.0079
 6688TIP3    H244260   3.259   7.332   2.433  0.2229 -0.2240 -0.0329
 6689TIP3   OH244261   7.352   4.507   0.843 -0.0139  0.7137  0.3130
 6689TIP3    H144262   7.418   4.474   0.905  0.8833 -0.7557 -1.3247
 6689TIP3    H244263   7.386   4.592   0.816 -0.9529  1.8887  2.5372
 6690TIP3   OH244264   2.710   1.611   1.689 -0.5559  0.0748 -0.4216
 6690TIP3    H144265   2.717   1.705   1.675  0.0531  0.2065  0.6112
 6690TIP3    H244266   2.624   1.588   1.654 -0.8664  1.0847 -0.3693
 6691TIP3   OH244267   0.533   5.168   2.594  0.1257 -0.0209 -0.3266
 6691TIP3    H144268   0.628   5.168   2.602  0.0879 -0.5028  0.2846
 6691TIP3    H244269   0.504   5.098   2.654 -0.7869  1.9781  1.7094
 6692TIP3   OH244270   4.940   7.214   2.687  0.1684 -0.0970  0.0983
 6692TIP3    H144271   4.912   7.244   2.773 -0.8665  0.9986 -0.5909
 6692TIP3    H244272   4.901   7.127   2.678  2.1854 -1.2540  1.6191
 6693TIP3   OH244273   4.886   1.254   1.343 -0.5683  0.2256 -0.0840
 6693TIP3    H144274   4.980   1.260   1.358 -0.6670 -1.3326  1.3559
 6693TIP3    H244275   4.846   1.278   1.426 -1.4999  1.2737 -0.7945
 6694TIP3   OH244276   1.640   1.385   0.487 -0.1809 -0.4555 -0.4669
 6694TIP3    H144277   1.621   1.457   0.427  0.9055 -0.7059 -1.1501
 6694TIP3    H244278   1.733   1.396   0.509 -0.5052 -0.4722  1.0457
 6695TIP3   OH244279   5.667   2.259   0.510 -0.4306  0.3429 -0.1637
 6695TIP3    H144280   5.577   2.285   0.491 -1.8978 -3.3590  0.8451
 6695TIP3    H244281   5.660   2.167   0.537  3.3531  0.5951  2.3855
 6696TIP3   OH244282   0.317   1.215   1.556  0.4756  0.2732  0.2388
 6696TIP3    H144283   0.372   1.190   1.630  0.7219  1.1451  0.3586
 6696TIP3    H244284   0.348   1.302   1.531 -0.8271  0.7755  0.2999
 6697TIP3   OH244285   7.141   0.819   2.551 -0.4905 -0.6749 -0.2982
 6697TIP3    H144286   7.153   0.753   2.483 -0.3652 -0.3100 -0.6270
 6697TIP3    H244287   7.153   0.903   2.507  1.9358 -0.4592  0.6144
 6698TIP3   OH244288   4.545   7.138   2.583 -0.0545 -0.4816  0.3064
 6698TIP3    H144289   4.499   7.174   2.508 -2.5944 -0.4665  1.7641
 6698TIP3    H244290   4.600   7.068   2.547 -0.0001  0.5313 -1.7070
 6699TIP3   OH244291   4.785   6.723   1.630  0.3086 -0.3877 -0.5651
 6699TIP3    H144292   4.744   6.810   1.636  0.9208 -0.1232 -0.0327
 6699TIP3    H244293   4.789   6.705   1.536  1.3794  0.7650 -0.7810
 6700TIP3   OH244294   7.464   5.363   0.674 -0.4027 -0.0466  0.4608
 6700TIP3    H144295   7.393   5.320   0.720  0.1555 -1.0534  0.3938
 6700TIP3    H244296   7.526   5.387   0.742 -0.4185  0.1081  0.4232
 6701TIP3   OH244297   0.878   0.806   0.890 -0.2682  0.2806  0.1780
 6701TIP3    H144298   0.951   0.851   0.933  0.4021  1.8510 -2.3606
 6701TIP3    H244299   0.833   0.760   0.961  1.5975  1.4506  2.2636
 6702TIP3   OH244300   1.801   2.006   1.676 -0.0376  0.2973  0.2421
 6702TIP3    H144301   1.755   1.924   1.695  2.1593 -1.3553 -1.0185
 6702TIP3    H244302   1.746   2.049   1.611 -0.0852 -1.3891 -0.9100
 6703TIP3   OH244303   5.304   3.682   1.676  0.1553 -0.7951 -0.6445
 6703TIP3    H144304   5.375   3.676   1.740 -1.3589 -1.0644  1.0887
 6703TIP3    H244305   5.325   3.760   1.624  0.2017  0.9449  1.8236
 6704TIP3   OH244306   4.937   5.346   1.427 -0.1871 -0.5091 -0.1976
 6704TIP3    H144307   4.988   5.364   1.348 -2.3112  1.8814 -1.1612
 6704TIP3    H244308   4.944   5.251   1.438  2.1914 -0.6287 -1.7743
 6705TIP3   OH244309   3.058   7.347   1.061  0.0724  0.4943  0.1363
 6705TIP3    H144310   2.991   7.280   1.073  0.6952 -0.2879 -0.6642
 6705TIP3    H244311   3.011   7.422   1.026 -0.0226 -0.9530 -3.1418
 6706TIP3   OH244312   2.868   7.001   0.583  0.7612  0.3030 -0.4212
 6706TIP3    H144313   2.962   6.978   0.583  0.9573  1.0660 -1.1659
 6706TIP3    H244314   2.840   6.983   0.493  0.5348  1.4317 -0.5811
 6707TIP3   OH244315   2.944   6.307   3.361 -0.4064 -0.1600  0.3198
 6707TIP3    H144316   2.963   6.399   3.380 -0.4703  0.2703 -1.5377
 6707TIP3    H244317   3.030   6.264   3.361 -0.4419 -0.3138  2.0101
 6708TIP3   OH244318   4.088   5.288   2.282  0.3689  0.0459 -0.0429
 6708TIP3    H144319   4.131   5.245   2.356  0.7341 -1.5750 -1.1406
 6708TIP3    H244320   4.117   5.239   2.205 -0.4190  1.3396 -1.2268
 6709TIP3   OH244321   4.951   1.651   2.759  0.5037 -0.4102  0.0971
 6709TIP3    H144322   4.889   1.620   2.824 -1.9284 -0.8438 -2.2423
 6709TIP3    H244323   4.927   1.743   2.744  0.9223 -0.3588 -0.2844
 6710TIP3   OH244324   0.309   5.559   0.755  0.2869  0.2545 -0.0830
 6710TIP3    H144325   0.228   5.564   0.704 -0.0736 -0.3943  0.4067
 6710TIP3    H244326   0.345   5.647   0.752  0.0627  0.3220 -1.1132
 6711TIP3   OH244327   2.530   0.530   0.970  0.3739 -0.0697  0.0022
 6711TIP3    H144328   2.539   0.441   0.938 -1.7195 -0.7054  0.9847
 6711TIP3    H244329   2.618   0.567   0.966  1.6605 -2.7639  1.2372
 6712TIP3   OH244330   3.357   0.261   1.829  0.0209 -0.1186 -0.3226
 6712TIP3    H144331   3.400   0.191   1.780 -0.7278 -1.3477  0.7367
 6712TIP3    H244332   3.394   0.257   1.916  1.4979  2.2044 -0.7533
 6713TIP3   OH244333   5.735   1.169   1.557  0.4723  0.1935  0.1523
 6713TIP3    H144334   5.741   1.173   1.462  0.2075  4.0351  0.1413
 6713TIP3    H244335   5.644   1.148   1.576  0.4466 -0.2219 -0.4408
 6714TIP3   OH244336   4.588   5.983   3.216 -0.1649 -0.0504  0.0483
 6714TIP3    H144337   4.508   5.971   3.267 -0.1538 -2.4237 -0.3789
 6714TIP3    H244338   4.657   5.947   3.271  0.5365  1.3178  0.1039
 6715TIP3   OH244339   1.802   4.635   1.490  0.5382  0.1097 -0.0443
 6715TIP3    H144340   1.807   4.693   1.566 -2.3724  1.2569 -0.5897
 6715TIP3    H244341   1.821   4.691   1.415 -1.6056  0.2733 -0.5236
 6716TIP3   OH244342   0.570   5.492   2.301 -0.0290 -0.1466 -0.2594
 6716TIP3    H144343   0.626   5.457   2.370  0.2381 -0.0191 -0.4043
 6716TIP3    H244344   0.516   5.418   2.274 -2.1792  0.4716  2.0180
 6717TIP3   OH244345   0.493   6.830   0.841 -0.1809  0.0989  0.3826
 6717TIP3    H144346   0.546   6.852   0.917 -0.1219  1.9117 -0.1491
 6717TIP3    H244347   0.545   6.858   0.765 -0.8258 -0.4106 -0.2690
 6718TIP3   OH244348   6.658   0.026   0.830  0.0648  0.2819 -0.5148
 6718TIP3    H144349   6.591  -0.024   0.783  1.4973 -0.9810 -1.2948
 6718TIP3    H244350   6.617   0.047   0.914 -1.4836  0.0037 -1.1656
 6719TIP3   OH244351   3.453   5.118   3.298  0.7437 -0.5747  0.1489
 6719TIP3    H144352   3.410   5.203   3.301 -0.7940 -1.3141  0.0804
 6719TIP3    H244353   3.488   5.107   3.386 -1.8247 -1.1842  1.1978
 6720TIP3   OH244354   2.385   6.987   0.888 -0.1419  0.1257  0.5036
 6720TIP3    H144355   2.434   6.992   0.970 -2.2216 -0.6505  1.8734
 6720TIP3    H244356   2.361   7.078   0.870 -0.0920  0.2450  1.0179
 6721TIP3   OH244357   0.285   6.659   0.784 -0.1465  0.0261  0.1723
 6721TIP3    H144358   0.353   6.725   0.800 -1.0749  1.3841 -1.2321
 6721TIP3    H244359   0.239   6.651   0.867 -0.6924  1.9890  0.1147
 6722TIP3   OH244360   6.211   4.511   0.947  0.6303 -0.2049 -0.0862
 6722TIP3    H144361   6.177   4.426   0.921  0.8374 -0.1747 -0.4646
 6722TIP3    H244362   6.206   4.564   0.868 -0.3239  0.4048  0.3676
 6723TIP3   OH244363   2.885   5.579   1.923  0.2747  0.1958  0.0708
 6723TIP3    H144364   2.934   5.579   2.006  0.5144 -1.7291 -0.0295
 6723TIP3    H244365   2.952   5.564   1.856 -0.3144 -1.8470 -0.1230
 6724TIP3   OH244366   4.057   4.351   2.462 -0.3840 -0.4615  0.0675
 6724TIP3    H144367   4.031   4.319   2.376 -0.8012  2.0467 -0.8180
 6724TIP3    H244368   3.976   4.384   2.501  0.0142 -0.4701  0.9362
 6725TIP3   OH244369   0.222   6.160   1.091 -0.7947  0.6363 -0.5872
 6725TIP3    H144370   0.133   6.147   1.057 -0.7519  0.4995 -0.6479
 6725TIP3    H244371   0.231   6.255   1.099 -1.7175  0.5935  1.4865
 6726TIP3   OH244372   1.193   4.579   1.081  0.0647 -0.4981  0.0705
 6726TIP3    H144373   1.193   4.646   1.149 -2.2904 -0.3184  0.0039
 6726TIP3    H244374   1.207   4.626   0.999  1.8879 -0.5827  0.3070
 6727TIP3   OH244375   4.284   5.423   1.944  0.2560 -0.0269  0.4806
 6727TIP3    H144376   4.258   5.508   1.908  1.0096  0.0576  0.0891
 6727TIP3    H244377   4.211   5.364   1.924 -0.0902  0.4315  0.3825
 6728TIP3   OH244378   4.374   3.024   1.809 -0.6010 -0.1344  0.1759
 6728TIP3    H144379   4.332   2.994   1.889 -1.4579  0.0470 -0.1891
 6728TIP3    H244380   4.302   3.033   1.746 -0.1954  1.4465 -0.0953
 6729TIP3   OH244381   3.094   1.094   2.724 -0.1034  0.1211 -0.1536
 6729TIP3    H144382   3.051   1.015   2.756  0.3598 -0.4541 -0.9249
 6729TIP3    H244383   3.142   1.127   2.800 -1.0715  0.2119  0.4357
 6730TIP3   OH244384   5.772   0.008   0.848  0.0794 -0.0470  0.2950
 6730TIP3    H144385   5.744   0.099   0.859  0.0529 -0.0043 -0.0960
 6730TIP3    H244386   5.717  -0.026   0.778 -0.3756 -0.5765  0.9072
 6731TIP3   OH244387   2.024   5.023   0.960 -0.1265  0.3596  0.4852
 6731TIP3    H144388   2.047   4.930   0.961  2.1323  0.8544  1.6009
 6731TIP3    H244389   2.082   5.061   0.894  0.5490  1.2727  1.5617
 6732TIP3   OH244390   1.955   4.743   1.916 -0.3761 -0.6742  0.2583
 6732TIP3    H144391   1.878   4.774   1.965 -1.1584 -1.2822 -0.5504
 6732TIP3    H244392   1.926   4.743   1.825  0.6218 -0.8469 -0.0626
 6733TIP3   OH244393   4.764   2.575   1.916  0.3322  0.0905  0.1870
 6733TIP3    H144394   4.679   2.574   1.961  1.1175  1.4606  1.8485
 6733TIP3    H244395   4.761   2.500   1.856 -2.4250  0.7253 -0.5952
 6734TIP3   OH244396   7.149   2.028   2.399 -0.6093  0.4701 -0.3003
 6734TIP3    H144397   7.230   2.012   2.447 -0.3079  1.4523 -0.4509
 6734TIP3    H244398   7.167   2.107   2.348 -1.3065  0.0900 -1.1537
 6735TIP3   OH244399   4.355   0.449   1.784  0.0295 -0.2180 -0.1380
 6735TIP3    H144400   4.270   0.483   1.813 -0.9039 -2.9825  0.6913
 6735TIP3    H244401   4.394   0.412   1.863  1.7734  0.4592 -0.6442
 6736TIP3   OH244402   7.387   5.357   1.034  0.4295  0.1570  0.2157
 6736TIP3    H144403   7.349   5.389   1.116 -1.0460  1.3747 -0.8935
 6736TIP3    H244404   7.451   5.424   1.010  0.6140 -0.0343  0.1618
 6737TIP3   OH244405   4.885   4.314   1.662  0.4121  0.7802  0.0145
 6737TIP3    H144406   4.791   4.298   1.666  0.6992 -1.9111 -1.7631
 6737TIP3    H244407   4.900   4.384   1.726 -2.7594  1.3108  0.3304
 6738TIP3   OH244408   2.717   0.439   1.577 -0.5495 -0.7299  0.1330
 6738TIP3    H144409   2.716   0.534   1.569 -0.6454 -0.6743  0.7940
 6738TIP3    H244410   2.810   0.415   1.577 -0.5285 -0.6658 -0.2891
 6739TIP3   OH244411   1.841   3.770   2.003  0.9258 -0.4486 -0.1252
 6739TIP3    H144412   1.771   3.806   1.948  1.1849 -0.7578 -0.6630
 6739TIP3    H244413   1.874   3.694   1.954  2.6731  0.5694 -0.6253
 6740TIP3   OH244414   0.602   3.113   1.662 -0.0721  0.1300 -0.0463
 6740TIP3    H144415   0.584   3.020   1.676  0.2861  0.0813  0.0922
 6740TIP3    H244416   0.664   3.136   1.731 -0.4665  0.5710  0.1602
 6741TIP3   OH244417   2.987   2.499   1.437 -0.0319 -0.0157 -0.2696
 6741TIP3    H144418   2.911   2.448   1.410  0.7563 -0.5645 -1.4981
 6741TIP3    H244419   2.991   2.572   1.375  0.5637 -0.0951 -0.3251
 6742TIP3   OH244420   0.446   7.308   0.988  0.4538 -0.3488 -0.2898
 6742TIP3    H144421   0.508   7.235   0.994  1.3072  0.3978  0.2879
 6742TIP3    H244422   0.491   7.374   0.934  0.1051  0.1349 -0.0036
 6743TIP3   OH244423   3.676   5.394   0.820  0.3111 -0.2658  0.2881
 6743TIP3    H144424   3.668   5.423   0.729  1.5128 -1.9772 -0.4100
 6743TIP3    H244425   3.674   5.475   0.871 -2.4829  0.6468 -1.0346
 6744TIP3   OH244426   1.242   3.231   3.244  0.4638 -0.0472 -0.2382
 6744TIP3    H144427   1.148   3.249   3.243  0.4778  0.1083 -1.7501
 6744TIP3    H244428   1.249   3.138   3.219  0.6634 -0.5286  1.4841
 6745TIP3   OH244429   4.053   7.056   1.280  0.6998 -0.1303 -0.1765
 6745TIP3    H144430   4.020   7.106   1.354  1.4660  0.9499 -0.5410
 6745TIP3    H244431   4.032   6.965   1.301 -2.2283  0.4279 -0.2426
 6746TIP3   OH244432   5.721   1.444   2.246 -0.3805  0.5035  0.3322
 6746TIP3    H144433   5.632   1.448   2.210 -0.6101 -0.2493  0.7984
 6746TIP3    H244434   5.717   1.496   2.326 -0.9974 -1.3157  1.5378
 6747TIP3   OH244435   6.748   3.285   2.647  0.2372 -0.5050 -0.1443
 6747TIP3    H144436   6.776   3.249   2.562 -1.4416 -3.9110  0.5633
 6747TIP3    H244437   6.653   3.292   2.641 -0.5158 -4.6435  2.4765
 6748TIP3   OH244438   6.048   6.449   1.004  0.7389 -0.5681  0.1083
 6748TIP3    H144439   6.140   6.475   1.016 -0.1566  2.2963  1.4296
 6748TIP3    H244440   6.016   6.505   0.934 -0.1695 -1.1473  0.0468
 6749TIP3   OH244441   1.475   2.998   0.760 -0.0525  1.0711 -0.7533
 6749TIP3    H144442   1.394   2.967   0.720 -0.1182  2.0942 -1.4425
 6749TIP3    H244443   1.509   2.922   0.808 -0.6670  0.2107 -1.6509
 6750TIP3   OH244444   1.715   7.509   2.473  0.2045  0.1625  0.0874
 6750TIP3    H144445   1.733   7.554   2.391 -0.2759 -0.1816 -0.2139
 6750TIP3    H244446   1.799   7.508   2.520  0.0718  1.9833  0.4206
 6751TIP3   OH244447   4.165   4.228   1.258 -0.0645 -0.5192  0.3461
 6751TIP3    H144448   4.146   4.292   1.189  0.7525 -1.6645 -1.0009
 6751TIP3    H244449   4.206   4.279   1.327  1.3482  0.3255 -1.0519
 6752TIP3   OH244450   5.041   6.158   2.250  0.1738  0.1338 -0.4644
 6752TIP3    H144451   5.010   6.070   2.228 -0.6636  0.7281 -1.8104
 6752TIP3    H244452   5.045   6.203   2.166 -1.1899  1.9338  0.3753
 6753TIP3   OH244453   7.543   0.818   2.890  0.0058  0.4942  0.2846
 6753TIP3    H144454   7.474   0.788   2.830  0.6314 -1.0601  0.2822
 6753TIP3    H244455   7.572   0.901   2.853  0.3029 -0.3591 -1.5582
 6754TIP3   OH244456   7.218   3.675   1.127 -0.0555 -0.7130  0.6194
 6754TIP3    H144457   7.146   3.641   1.180 -0.0257 -0.1441  1.0417
 6754TIP3    H244458   7.267   3.731   1.187 -0.9992  1.3340 -0.3983
 6755TIP3   OH244459   2.776   0.612   1.869 -0.7743  0.1407 -0.5397
 6755TIP3    H144460   2.692   0.572   1.845  0.4166 -1.3361 -2.6368
 6755TIP3    H244461   2.761   0.706   1.859 -2.0352 -0.1181 -1.4803
 6756TIP3   OH244462   3.288   3.804   2.008  0.2196  0.5948  0.3763
 6756TIP3    H144463   3.236   3.839   1.936  0.8060 -0.6693 -0.6900
 6756TIP3    H244464   3.247   3.719   2.028  2.0416 -0.6131 -0.7482
 6757TIP3   OH244465   4.480   2.588   1.610 -0.2275 -0.1868  0.6424
 6757TIP3    H144466   4.443   2.665   1.568  2.2131  0.1544 -1.1365
 6757TIP3    H244467   4.489   2.613   1.702  0.0206  1.4859  0.2035
 6758TIP3   OH244468   5.989   2.040   1.131 -0.1856  0.4629 -0.1222
 6758TIP3    H144469   6.068   2.088   1.155 -0.2006  0.1693  0.5513
 6758TIP3    H244470   5.927   2.107   1.102  0.5120  0.6377 -1.2599
 6759TIP3   OH244471   0.774   2.513   2.429  0.4469  0.0768 -0.1815
 6759TIP3    H144472   0.688   2.481   2.458 -0.2598  2.0826  0.0954
 6759TIP3    H244473   0.826   2.434   2.416 -1.3199 -1.1732  0.0232
 6760TIP3   OH244474   2.676   5.777   0.652  0.1754  0.3799 -0.2402
 6760TIP3    H144475   2.750   5.757   0.596  1.5188  1.3524  1.1172
 6760TIP3    H244476   2.702   5.855   0.701 -1.1290 -0.1233  1.3569
 6761TIP3   OH244477   0.972   2.856   2.084 -0.1039  0.1933 -0.4717
 6761TIP3    H144478   1.023   2.930   2.116  0.3823 -0.1126 -0.5166
 6761TIP3    H244479   0.970   2.867   1.989  1.9477 -1.0379 -0.7406
 6762TIP3   OH244480   3.370   0.395   0.626  0.2545  0.1756  0.7521
 6762TIP3    H144481   3.392   0.453   0.553  0.9044  0.6283  1.3003
 6762TIP3    H244482   3.362   0.309   0.586 -2.2140  0.8102 -0.3617
 6763TIP3   OH244483   2.102   0.372   2.654  0.1647 -0.2626  0.0601
 6763TIP3    H144484   2.115   0.428   2.577 -0.4098  0.6193  0.5811
 6763TIP3    H244485   2.029   0.315   2.630  1.0004 -1.0801 -0.6173
 6764TIP3   OH244486   6.788   3.174   3.390 -0.6241  0.0632 -0.0238
 6764TIP3    H144487   6.835   3.197   3.471 -0.4709  1.2744 -0.4349
 6764TIP3    H244488   6.842   3.106   3.350  0.0071  0.3948  0.2429
 6765TIP3   OH244489   0.433   1.318   2.972  0.2940  0.5028  0.2539
 6765TIP3    H144490   0.372   1.359   2.911  1.8009  1.5145 -0.6386
 6765TIP3    H244491   0.436   1.378   3.046  0.2938  0.5135  0.2454
 6766TIP3   OH244492   1.265   2.169   0.610 -0.0063 -0.0535 -0.1722
 6766TIP3    H144493   1.216   2.250   0.625  0.7815  0.3909  0.0630
 6766TIP3    H244494   1.355   2.198   0.594 -0.0342 -0.7669 -1.8566
 6767TIP3   OH244495   3.357   5.466   1.113  0.1707 -0.5306 -0.3957
 6767TIP3    H144496   3.311   5.545   1.083  1.4650 -0.1080 -1.3346
 6767TIP3    H244497   3.434   5.499   1.160  1.5073 -1.1856 -2.0171
 6768TIP3   OH244498   1.852   5.802   0.932  0.1401  0.1061 -0.1677
 6768TIP3    H144499   1.803   5.879   0.904 -0.0150 -0.8514 -2.7980
 6768TIP3    H244500   1.942   5.833   0.942 -0.0650  0.7952 -0.3832
 6769TIP3   OH244501   3.022   4.650   0.807 -0.4889  0.2373  0.3911
 6769TIP3    H144502   3.061   4.585   0.748 -1.1368 -1.4354  1.7173
 6769TIP3    H244503   3.092   4.673   0.868 -1.0896 -1.8310  1.9977
 6770TIP3   OH244504   1.683   6.617   0.478 -0.4160  0.0973 -0.1525
 6770TIP3    H144505   1.644   6.617   0.391 -0.3194  0.6159 -0.1993
 6770TIP3    H244506   1.778   6.618   0.462 -0.3962  0.1057 -0.0368
 6771TIP3   OH244507   0.613   4.856   2.549  0.5722 -0.2580 -0.6508
 6771TIP3    H144508   0.581   4.878   2.461 -0.2188 -0.7060 -0.4853
 6771TIP3    H244509   0.534   4.840   2.600  1.0214 -2.9400 -0.6346
 6772TIP3   OH244510   0.229   1.220   1.089  0.5668  0.2119 -0.2749
 6772TIP3    H144511   0.218   1.166   1.010  0.2818  0.8308 -0.6727
 6772TIP3    H244512   0.146   1.211   1.135  0.4595  0.4298 -0.4224
 6773TIP3   OH244513   6.653   6.028   0.456  0.5391  0.2224 -0.0152
 6773TIP3    H144514   6.683   6.100   0.401 -0.1534  1.1254  0.7593
 6773TIP3    H244515   6.583   6.065   0.509  0.3714 -0.9406  0.6265
 6774TIP3   OH244516   3.067   0.265   1.374  0.3675  0.1371 -0.1211
 6774TIP3    H144517   3.135   0.301   1.432 -0.7040  1.2700  0.4861
 6774TIP3    H244518   3.032   0.190   1.422  0.5065  0.1624  0.0204
 6775TIP3   OH244519   0.753   5.233   2.035  0.3995  0.0986 -0.6597
 6775TIP3    H144520   0.797   5.303   1.987  1.1690 -0.3074 -0.5587
 6775TIP3    H244521   0.659   5.251   2.022  0.5761 -0.0335 -2.3523
 6776TIP3   OH244522   1.167   6.779   1.677 -0.0043  0.5263 -0.7556
 6776TIP3    H144523   1.256   6.747   1.696 -0.5822 -2.1405 -1.9554
 6776TIP3    H244524   1.155   6.854   1.735  0.8964 -2.5564  4.0022
 6777TIP3   OH244525   2.654   1.789   2.319 -0.2156 -0.0403 -0.8119
 6777TIP3    H144526   2.589   1.859   2.326  0.4652  0.9192 -3.1020
 6777TIP3    H244527   2.608   1.719   2.272 -0.3675 -0.4542 -0.0639
 6778TIP3   OH244528   0.959   0.788   0.591 -0.0458 -0.3210 -0.0431
 6778TIP3    H144529   0.879   0.790   0.539 -0.0404 -1.2805 -0.0979
 6778TIP3    H244530   0.933   0.818   0.678 -0.0860  1.1499 -0.5286
 6779TIP3   OH244531   3.402   3.791   1.674 -0.2430  0.2211  0.3999
 6779TIP3    H144532   3.485   3.746   1.686  0.8336  2.0676  0.2406
 6779TIP3    H244533   3.396   3.852   1.748 -0.9240  0.8879 -0.1820
 6780TIP3   OH244534   6.490   5.185   1.073 -0.0817 -0.1907  0.4792
 6780TIP3    H144535   6.468   5.092   1.061 -1.6252  0.1723  0.2772
 6780TIP3    H244536   6.462   5.227   0.991 -0.3089  0.6059  0.9586
 6781TIP3   OH244537   2.693   1.090   2.607 -0.5504  0.1348  0.3252
 6781TIP3    H144538   2.663   1.011   2.562 -0.7468 -0.2047  1.0472
 6781TIP3    H244539   2.613   1.135   2.633 -0.4446 -0.3023  1.4320
 6782TIP3   OH244540   6.179   0.511   2.036 -0.0751 -0.1361 -0.5235
 6782TIP3    H144541   6.252   0.568   2.059  0.2872 -0.7869 -0.0170
 6782TIP3    H244542   6.115   0.569   1.994 -0.6427  1.0954  1.8737
 6783TIP3   OH244543   5.425   5.666   2.433  0.0891 -0.0154  0.1693
 6783TIP3    H144544   5.347   5.612   2.416  0.4448  0.0249 -1.7969
 6783TIP3    H244545   5.473   5.618   2.501  0.7716 -2.6547 -2.0170
 6784TIP3   OH244546   6.998   2.251   0.670  0.2538 -0.6011 -0.1147
 6784TIP3    H144547   7.002   2.338   0.709  0.0407 -1.2803  1.4871
 6784TIP3    H244548   6.910   2.220   0.688 -0.1808 -0.5880 -1.9993
 6785TIP3   OH244549   0.612   4.991   1.922 -0.0933 -0.5138 -0.3813
 6785TIP3    H144550   0.571   5.073   1.893  0.0446 -0.1371  0.4784
 6785TIP3    H244551   0.662   5.015   2.000  3.7675 -0.4456 -2.6298
 6786TIP3   OH244552   3.670   6.373   1.289 -0.4027 -0.2997 -0.0291
 6786TIP3    H144553   3.628   6.291   1.264  0.4824 -0.7504 -0.0930
 6786TIP3    H244554   3.661   6.430   1.213 -2.7332  0.3851  0.6903
 6787TIP3   OH244555   0.278   3.602   1.637 -0.4893  0.2160  0.6616
 6787TIP3    H144556   0.243   3.528   1.687  0.3551  0.0296  1.0008
 6787TIP3    H244557   0.254   3.679   1.688  0.2862  0.0323  1.3321
 6788TIP3   OH244558   1.135   2.897   0.642 -0.6167 -0.2620  0.7478
 6788TIP3    H144559   1.145   2.886   0.736  1.9211  1.4400  0.7757
 6788TIP3    H244560   1.049   2.939   0.631 -0.7038  0.0192  2.3463
 6789TIP3   OH244561   4.481   4.271   2.026 -0.1296 -0.3476  0.4145
 6789TIP3    H144562   4.461   4.248   1.936 -0.6089  0.7685  0.2298
 6789TIP3    H244563   4.519   4.358   2.021 -0.6208 -0.0727  1.3425
 6790TIP3   OH244564   0.151   7.106   1.083 -0.3069  0.0349  0.6136
 6790TIP3    H144565   0.155   7.187   1.033 -0.4786 -0.1456  0.3042
 6790TIP3    H244566   0.165   7.037   1.018  1.3388 -0.1302  1.0872
 6791TIP3   OH244567   6.078   5.809   2.426 -0.0321 -0.5019 -0.6649
 6791TIP3    H144568   6.000   5.767   2.388  0.3546 -0.3583 -1.6508
 6791TIP3    H244569   6.151   5.766   2.383  0.4365 -0.5143  0.1351
 6792TIP3   OH244570   4.777   6.679   2.700 -0.1309 -0.1383  0.3864
 6792TIP3    H144571   4.788   6.584   2.693 -0.4242 -0.2675  1.5024
 6792TIP3    H244572   4.720   6.703   2.627  0.2661 -0.7577 -0.1320
 6793TIP3   OH244573   7.152   1.913   1.615  0.7270 -0.5968  0.8835
 6793TIP3    H144574   7.186   1.838   1.567 -0.8011 -0.6345 -0.2134
 6793TIP3    H244575   7.168   1.892   1.707  0.4093 -2.2338  0.5957
 6794TIP3   OH244576   2.315   5.740   2.393  0.0125  0.7162  0.4701
 6794TIP3    H144577   2.236   5.728   2.444 -1.1544 -1.0774 -1.5798
 6794TIP3    H244578   2.302   5.824   2.348 -0.5596  0.6001  0.4150
 6795TIP3   OH244579   2.729   2.194   2.848 -0.2149 -0.0340 -0.0705
 6795TIP3    H144580   2.776   2.141   2.784 -1.2160 -0.3815 -0.5368
 6795TIP3    H244581   2.711   2.276   2.803 -0.1276  0.0688  0.0795
 6796TIP3   OH244582   2.558   2.581   1.283 -0.4216 -0.1698 -0.0528
 6796TIP3    H144583   2.618   2.571   1.357 -1.4253 -1.1183  0.6599
 6796TIP3    H244584   2.611   2.623   1.215  1.7392 -2.9379 -0.2608
 6797TIP3   OH244585   5.902   1.841   0.519 -0.1967  0.1281  0.2276
 6797TIP3    H144586   5.817   1.885   0.521  0.0051  0.5102  0.8696
 6797TIP3    H244587   5.964   1.910   0.497 -0.3693 -0.7754 -3.8078
 6798TIP3   OH244588   1.412   4.004   1.213 -0.1710  0.6093  0.9016
 6798TIP3    H144589   1.455   3.980   1.295  1.4777 -1.3803 -0.4422
 6798TIP3    H244590   1.376   4.091   1.230  2.6711  1.5741  2.8304
 6799TIP3   OH244591   2.574   0.830   2.997  0.3198  0.2919  0.5126
 6799TIP3    H144592   2.554   0.923   3.003 -1.2997 -0.0001  0.3159
 6799TIP3    H244593   2.669   0.824   3.007  0.4306  1.9393  0.6552
 6800TIP3   OH244594   0.428   4.395   0.538  0.2468  0.1589  0.3748
 6800TIP3    H144595   0.518   4.366   0.523  0.3731  0.7569 -0.0580
 6800TIP3    H244596   0.437   4.477   0.586 -0.0791  0.0640  0.6005
 6801TIP3   OH244597   1.971   6.414   0.625  0.6828  0.3671 -0.3082
 6801TIP3    H144598   2.022   6.352   0.677  1.4058 -0.2517 -1.7080
 6801TIP3    H244599   1.881   6.382   0.630  0.7140  0.3937  0.6431
 6802TIP3   OH244600   2.366   6.301   2.630 -0.4028 -0.1736 -0.1160
 6802TIP3    H144601   2.281   6.343   2.641  0.0121  0.6793 -0.0697
 6802TIP3    H244602   2.405   6.301   2.717  0.6552  1.7100 -0.5230
 6803TIP3   OH244603   2.725   3.993   2.950  0.2615  0.0326 -0.5032
 6803TIP3    H144604   2.646   3.945   2.923  0.8195 -0.5406 -1.1828
 6803TIP3    H244605   2.760   3.942   3.023 -0.6661  0.9904  0.6486
 6804TIP3   OH244606   2.014   4.541   2.328 -0.9559 -0.2906  0.1407
 6804TIP3    H144607   1.997   4.475   2.395 -0.6084  0.4836  1.0152
 6804TIP3    H244608   2.096   4.514   2.288 -0.5418 -0.1113  0.8555
 6805TIP3   OH244609   1.183   1.439   2.329 -0.4146  0.2402 -0.1637
 6805TIP3    H144610   1.158   1.497   2.258  2.1035  1.8638  0.1548
 6805TIP3    H244611   1.247   1.379   2.290  1.0820  1.2215  0.6446
 6806TIP3   OH244612   1.033   4.432   1.637  0.0491 -0.3687 -0.0803
 6806TIP3    H144613   0.973   4.499   1.670 -1.0184 -1.3201 -0.0415
 6806TIP3    H244614   1.056   4.461   1.549 -0.4409  0.0316 -0.0779
 6807TIP3   OH244615   2.824   7.271   0.802  0.0805 -0.2064 -0.2872
 6807TIP3    H144616   2.738   7.297   0.770  0.6274  0.2441 -1.4295
 6807TIP3    H244617   2.886   7.326   0.755  1.0270 -0.7609  0.2560
 6808TIP3   OH244618   2.565   0.834   1.775  0.4862  0.3031  0.0552
 6808TIP3    H144619   2.538   0.742   1.783 -0.6429  0.6069 -0.1376
 6808TIP3    H244620   2.542   0.859   1.686  1.6237  0.5309 -0.1937
 6809TIP3   OH244621   1.942   0.691   0.523  0.1528 -0.6462  0.1804
 6809TIP3    H144622   1.974   0.679   0.613 -0.2247 -0.9196  0.2794
 6809TIP3    H244623   2.019   0.721   0.475  0.5609 -1.2827  0.4187
 6810TIP3   OH244624   3.218   6.908   2.869 -0.0513  0.4232  0.4117
 6810TIP3    H144625   3.173   6.856   2.935 -0.4440 -0.0692 -0.2334
 6810TIP3    H244626   3.272   6.845   2.822 -0.6896  0.5506 -0.5178
 6811TIP3   OH244627   7.040   3.022   2.321  0.8388  0.2148 -0.0849
 6811TIP3    H144628   7.085   3.036   2.405  0.1071 -0.4022  0.4180
 6811TIP3    H244629   7.107   3.043   2.255  1.2924  1.1442  0.6372
 6812TIP3   OH244630   1.705   6.564   0.766  0.1686  0.2469  0.3766
 6812TIP3    H144631   1.621   6.519   0.774 -0.0652  0.8415  1.6464
 6812TIP3    H244632   1.709   6.591   0.674 -0.3779 -0.9940 -0.0311
 6813TIP3   OH244633   5.967   2.610   1.964  0.4290  0.6087  0.3045
 6813TIP3    H144634   5.913   2.662   1.904  0.5154 -1.6335 -1.9075
 6813TIP3    H244635   5.935   2.520   1.952  2.1440 -0.2475  1.7949
 6814TIP3   OH244636   2.000   3.440   2.577  0.4986 -0.1367 -0.2954
 6814TIP3    H144637   1.943   3.478   2.644 -0.1954 -2.1441  0.3202
 6814TIP3    H244638   1.975   3.484   2.496 -1.7426 -0.7411  0.0086
 6815TIP3   OH244639   4.058   1.476   2.912 -0.1436  0.0430  0.3438
 6815TIP3    H144640   4.010   1.463   2.830  0.7909  1.7672 -0.5239
 6815TIP3    H244641   4.131   1.414   2.907  0.0634  0.3256 -0.2758
 6816TIP3   OH244642   1.108   6.821   2.277 -0.2768  0.5724 -0.0536
 6816TIP3    H144643   1.172   6.878   2.320 -0.1361  0.0991  0.3758
 6816TIP3    H244644   1.027   6.835   2.326  0.1378 -0.7668  1.1018
 6817TIP3   OH244645   3.074   1.957   0.870  0.0087 -0.4244 -0.0769
 6817TIP3    H144646   3.053   2.048   0.849 -1.8678 -0.4121  1.5480
 6817TIP3    H244647   3.003   1.906   0.832  0.2657 -1.0688  0.2873
 6818TIP3   OH244648   0.984   3.354   1.531  0.0224 -0.1539  0.2358
 6818TIP3    H144649   1.039   3.327   1.458 -0.1041 -0.5195  0.2750
 6818TIP3    H244650   0.965   3.446   1.514  1.4549  0.2563  0.7325
 6819TIP3   OH244651   6.411   5.998   0.575 -0.1300 -0.4962 -0.1034
 6819TIP3    H144652   6.340   6.059   0.595 -0.1345 -0.6272  0.3015
 6819TIP3    H244653   6.402   5.929   0.641  0.2619 -0.6068 -0.1647
 6820TIP3   OH244654   2.968   7.566   1.296 -0.7370 -0.1454 -0.4251
 6820TIP3    H144655   2.925   7.555   1.380 -0.0301  0.9988  0.1262
 6820TIP3    H244656   3.014   7.483   1.281  1.1770  0.4381  1.5752
 6821TIP3   OH244657   4.354   2.100   2.015 -0.0944  0.3325 -0.1230
 6821TIP3    H144658   4.449   2.109   2.001 -0.0383  0.1129  0.1036
 6821TIP3    H244659   4.316   2.115   1.929  0.3857 -3.1354 -1.0814
 6822TIP3   OH244660   2.202   2.202   1.674  0.4377  0.5942 -0.6228
 6822TIP3    H144661   2.120   2.212   1.721  1.1580  1.9207  0.4221
 6822TIP3    H244662   2.239   2.290   1.670  2.7561 -0.2151  0.7515
 6823TIP3   OH244663   4.475   4.035   1.522 -0.1868  0.6344 -0.0457
 6823TIP3    H144664   4.437   4.122   1.515 -0.7243  0.4031 -0.0199
 6823TIP3    H244665   4.400   3.976   1.529  0.0445 -0.0788 -2.4615
 6824TIP3   OH244666   5.258   2.108   8.689  0.6859  0.3391 -0.1335
 6824TIP3    H144667   5.276   2.191   8.646 -0.8058  0.7362 -0.0407
 6824TIP3    H244668   5.345   2.075   8.715  1.5020  0.7320 -2.1902
 6825TIP3   OH244669   1.796   1.769   1.226  0.8023  0.3018  0.4199
 6825TIP3    H144670   1.873   1.769   1.283  1.5538  2.2030 -0.4752
 6825TIP3    H244671   1.772   1.677   1.217  2.8790 -0.3357  0.8629
 6826TIP3   OH244672   3.060   3.127   3.457 -0.2576 -0.5109 -0.1215
 6826TIP3    H144673   3.026   3.207   3.419 -0.0907 -0.2641  0.2448
 6826TIP3    H244674   3.044   3.136   3.551  0.0953 -0.7452 -0.0356
 6827TIP3   OH244675   3.173   6.465   2.872 -0.1209 -0.1185  0.0846
 6827TIP3    H144676   3.151   6.558   2.881 -2.0285 -0.3465 -1.5021
 6827TIP3    H244677   3.146   6.426   2.955  1.2664  0.7991  1.0057
 6828TIP3   OH244678   5.981   1.741   1.892  0.1878  0.0326  0.9113
 6828TIP3    H144679   6.039   1.817   1.888 -1.2279  1.1003 -0.0487
 6828TIP3    H244680   5.945   1.743   1.981  0.8385 -0.0455  1.1770
 6829TIP3   OH244681   0.184   2.432   0.932 -0.5733 -0.4350  0.3487
 6829TIP3    H144682   0.203   2.382   1.012 -0.9922 -0.3487  0.5084
 6829TIP3    H244683   0.160   2.365   0.867 -0.6770 -0.4782  0.4294
 6830TIP3   OH244684   0.068   2.941   1.157  0.7730 -0.2644  0.2879
 6830TIP3    H144685   0.135   2.887   1.117  0.6730  0.9180 -1.5974
 6830TIP3    H244686   0.051   2.900   1.242  3.7950 -0.6385  0.8121
 6831TIP3   OH244687   2.268   4.494   2.234  0.5778 -0.1206  0.2025
 6831TIP3    H144688   2.317   4.456   2.306  2.1460 -0.4228 -0.9751
 6831TIP3    H244689   2.321   4.568   2.205  0.0675 -0.1032 -0.7360
 6832TIP3   OH244690   4.983   6.494   1.480 -0.6933 -0.8662  0.3472
 6832TIP3    H144691   4.914   6.432   1.506 -0.7084 -0.5390  1.1320
 6832TIP3    H244692   5.027   6.516   1.562 -1.1101  0.6582  0.1868
 6833TIP3   OH244693   0.267   2.140   2.937  0.4620  0.3653  0.2139
 6833TIP3    H144694   0.226   2.146   2.851 -0.0414 -1.0286  0.3213
 6833TIP3    H244695   0.194   2.153   2.999  1.0067  2.5297  0.4815
 6834TIP3   OH244696   6.779   3.195   2.385  0.4720 -0.3405  0.2100
 6834TIP3    H144697   6.840   3.176   2.314 -0.5242  1.7067 -1.2772
 6834TIP3    H244698   6.692   3.190   2.345 -0.0633  2.0051  0.9408
 6835TIP3   OH244699   2.214   5.335   0.711 -0.3828 -0.2531  0.2077
 6835TIP3    H144700   2.235   5.361   0.801 -0.0772  0.0592  0.0527
 6835TIP3    H244701   2.129   5.376   0.694  0.5348  1.5483 -0.3675
 6836TIP3   OH244702   5.873   2.949   1.892 -0.7920 -0.3672 -0.3325
 6836TIP3    H144703   5.844   2.963   1.982 -1.6203 -0.8525 -0.5147
 6836TIP3    H244704   5.925   3.026   1.871 -0.6753 -0.2045  0.5274
 6837TIP3   OH244705   6.149   1.816   0.753  0.0131  0.7250 -0.2946
 6837TIP3    H144706   6.125   1.766   0.831  0.4185  2.0702  0.7142
 6837TIP3    H244707   6.104   1.770   0.681 -1.4412  0.2293  0.8785
 6838TIP3   OH244708   6.144   0.061   2.016 -0.0113 -0.0544 -0.2941
 6838TIP3    H144709   6.177  -0.029   2.023 -0.0277  0.0243  1.2345
 6838TIP3    H244710   6.223   0.115   2.011 -0.0030 -0.1542 -1.2847
 6839TIP3   OH244711   5.186   7.017   2.690  0.6390  0.0748  0.1102
 6839TIP3    H144712   5.265   7.064   2.719  0.3593  0.8142 -0.2799
 6839TIP3    H244713   5.123   7.087   2.672  0.4960 -0.4105 -1.3438
 6840TIP3   OH244714   5.400   3.877   0.996 -0.1592  0.2881 -0.0052
 6840TIP3    H144715   5.366   3.922   0.919 -0.3931  0.4399  0.1849
 6840TIP3    H244716   5.483   3.839   0.967  0.3255  1.3149 -0.0212
 6841TIP3   OH244717   0.907   4.289   0.727  0.4890 -0.3161  0.1254
 6841TIP3    H144718   0.989   4.321   0.765  0.8196 -0.9403 -0.0569
 6841TIP3    H244719   0.883   4.356   0.663  1.3833 -0.5965 -0.5325
 6842TIP3   OH244720   2.089   6.584   1.809 -0.2581  0.2600 -0.5911
 6842TIP3    H144721   2.165   6.526   1.806  0.6269  1.2823  0.8968
 6842TIP3    H244722   2.051   6.578   1.721  0.3966 -1.7418 -0.7872
 6843TIP3   OH244723   6.730   7.156   2.988 -0.1696 -1.2195  0.2082
 6843TIP3    H144724   6.778   7.161   3.071 -0.0622 -2.5847  0.2505
 6843TIP3    H244725   6.710   7.247   2.967  1.7544 -0.6605  0.5910
 6844TIP3   OH244726   2.851   1.392   0.807 -0.4050 -0.3374 -0.0647
 6844TIP3    H144727   2.809   1.464   0.759  1.2612  1.3346  0.8703
 6844TIP3    H244728   2.794   1.378   0.883 -0.0051  1.0289  0.5188
 6845TIP3   OH244729   3.738   1.009   2.737  0.1955 -0.8769  0.3580
 6845TIP3    H144730   3.805   1.075   2.751  0.3990 -1.1874  0.8729
 6845TIP3    H244731   3.670   1.030   2.802  0.2946 -1.2171  0.5710
 6846TIP3   OH244732   2.460   4.100   1.141 -0.0226  0.0072  0.3315
 6846TIP3    H144733   2.536   4.056   1.104 -0.6841 -0.9478  0.0749
 6846TIP3    H244734   2.421   4.036   1.200 -0.5910  0.5098  0.5119
 6847TIP3   OH244735   2.063   3.417   1.273 -0.3033 -0.2939  0.2262
 6847TIP3    H144736   2.018   3.335   1.293 -1.2038  0.0913 -0.1484
 6847TIP3    H244737   2.037   3.477   1.343 -1.9280  0.4830 -0.9593
 6848TIP3   OH244738   7.228   3.074   0.660 -0.3171  0.2588 -0.1257
 6848TIP3    H144739   7.220   3.103   0.569  0.6003 -0.5145 -0.4599
 6848TIP3    H244740   7.247   2.981   0.655 -0.8107  0.0815  0.8845
 6849TIP3   OH244741   1.708   5.858   1.350 -0.3806  0.5300 -0.4712
 6849TIP3    H144742   1.666   5.811   1.423  2.3353  1.9495  2.2523
 6849TIP3    H244743   1.724   5.791   1.284  0.5644 -1.7888  1.9360
 6850TIP3   OH244744   5.589   3.928   2.059  0.1726  0.0833 -0.4266
 6850TIP3    H144745   5.657   3.976   2.013  0.0455 -0.1336 -0.8458
 6850TIP3    H244746   5.515   3.989   2.063  0.3166  0.2401 -0.1673
 6851TIP3   OH244747   4.777   5.103   2.100 -0.0416  0.0293 -0.6573
 6851TIP3    H144748   4.849   5.043   2.115  1.0448  1.0866 -1.4913
 6851TIP3    H244749   4.793   5.140   2.013  1.2813  4.0230  1.0192
 6852TIP3   OH244750   4.338   2.073   0.588  0.0931 -0.2187  0.5124
 6852TIP3    H144751   4.351   2.167   0.578  1.2503 -0.4751 -0.6716
 6852TIP3    H244752   4.303   2.063   0.677  2.2286  1.1357  1.5883
 6853TIP3   OH244753   5.582   6.214   2.963  0.2562  0.7104  0.1366
 6853TIP3    H144754   5.513   6.202   3.028  1.6812 -0.7043  1.4799
 6853TIP3    H244755   5.657   6.166   2.998  1.2169  0.1942 -2.3940
 6854TIP3   OH244756   0.986   3.957   1.362 -0.1654 -0.7209  0.0121
 6854TIP3    H144757   0.945   4.043   1.348  0.6345 -0.0702  1.4482
 6854TIP3    H244758   0.929   3.896   1.316  0.9216  0.8637 -3.8802
 6855TIP3   OH244759   6.317   6.815   0.560  0.2179  0.3107 -0.0161
 6855TIP3    H144760   6.343   6.906   0.545 -0.5192  0.3280 -1.2246
 6855TIP3    H244761   6.400   6.769   0.570  0.6213  1.3582  2.4416
 6856TIP3   OH244762   6.304   6.760   2.384 -0.2949  0.3603 -0.0901
 6856TIP3    H144763   6.347   6.762   2.469 -1.2895 -1.4157  0.5285
 6856TIP3    H244764   6.255   6.677   2.384 -1.7578  1.1513 -1.6824
 6857TIP3   OH244765   4.940   2.231   3.192 -0.4407  0.2219  0.1572
 6857TIP3    H144766   4.851   2.207   3.218  0.0831  0.3623  2.2878
 6857TIP3    H244767   4.987   2.148   3.187 -1.0826 -0.0688 -2.9522
 6858TIP3   OH244768   5.247   0.469   1.476  0.1803 -0.6306 -0.5660
 6858TIP3    H144769   5.197   0.536   1.522  0.1159  0.0027 -1.5267
 6858TIP3    H244770   5.338   0.485   1.501  0.0870 -0.6841 -0.1824
 6859TIP3   OH244771   1.091   3.062   1.539  0.2556  0.1457 -0.6462
 6859TIP3    H144772   1.186   3.060   1.529  0.3488 -2.7181 -0.2054
 6859TIP3    H244773   1.068   3.155   1.539  3.2331  1.0093  0.9980
 6860TIP3   OH244774   1.352   1.306   0.838 -0.4596  0.0797 -0.5333
 6860TIP3    H144775   1.404   1.293   0.759  2.3130  2.8420  0.6142
 6860TIP3    H244776   1.367   1.226   0.890  0.6035 -0.2529 -1.3161
 6861TIP3   OH244777   3.374   0.056   0.936 -0.6566 -0.0198 -0.0016
 6861TIP3    H144778   3.335   0.133   0.894  1.5045  1.2435  0.1460
 6861TIP3    H244779   3.340   0.057   1.025  0.1159  1.4374  0.3197
 6862TIP3   OH244780   5.388   6.395   2.639  0.0706  0.3813  0.0394
 6862TIP3    H144781   5.406   6.309   2.678 -0.0170 -0.1504 -1.0737
 6862TIP3    H244782   5.296   6.412   2.661  0.0521  0.1373  0.1519
 6863TIP3   OH244783   3.406   4.111   2.092 -0.0781  0.5218 -0.0497
 6863TIP3    H144784   3.394   4.204   2.110 -1.2658  0.3635  0.0913
 6863TIP3    H244785   3.339   4.067   2.145  0.3304 -0.4025 -0.2656
 6864TIP3   OH244786   1.344   6.251   2.950  0.5364  0.2493 -0.0149
 6864TIP3    H144787   1.418   6.243   3.011  0.5316  3.4008  0.5661
 6864TIP3    H244788   1.382   6.290   2.871  0.2179 -2.1816 -1.4541
 6865TIP3   OH244789   0.087   6.430   1.519  0.7345 -0.0622  0.3096
 6865TIP3    H144790   0.015   6.395   1.466 -1.7838  1.3793  2.5090
 6865TIP3    H244791   0.059   6.416   1.610  2.2942  2.3359  1.2694
 6866TIP3   OH244792   6.138   3.285   1.641 -0.1403 -0.0853  0.4348
 6866TIP3    H144793   6.075   3.299   1.570  1.9451 -1.4944 -1.8315
 6866TIP3    H244794   6.192   3.364   1.642 -1.1925  0.6636  1.6709
 6867TIP3   OH244795   6.958   1.555   1.528 -0.4057  0.4107 -0.1813
 6867TIP3    H144796   6.922   1.643   1.529 -0.1263  0.5200  0.7394
 6867TIP3    H244797   6.896   1.502   1.577 -0.0230  0.3229  0.2192
 6868TIP3   OH244798   1.219   5.672   2.900  0.2510 -0.4483  0.1217
 6868TIP3    H144799   1.234   5.621   2.820 -0.7511 -0.5239 -0.0241
 6868TIP3    H244800   1.275   5.749   2.889  1.6170 -1.3891  0.2524
 6869TIP3   OH244801   7.337   5.310   1.427 -0.1256 -0.3637  0.3123
 6869TIP3    H144802   7.271   5.267   1.481 -0.0530  0.8817  1.4507
 6869TIP3    H244803   7.421   5.288   1.469  0.1214 -1.0950 -0.5296
 6870TIP3   OH244804   1.261   7.216   2.991  0.0327  0.0742  0.4241
 6870TIP3    H144805   1.216   7.299   3.006 -0.2523  0.6393 -2.9191
 6870TIP3    H244806   1.191   7.155   2.969  0.5270 -0.1540 -0.5318
 6871TIP3   OH244807   4.011   0.997   2.053 -0.7521  0.0739  0.4931
 6871TIP3    H144808   4.096   1.017   2.091  0.2686 -2.3599 -0.3055
 6871TIP3    H244809   4.016   1.030   1.963  0.5077 -2.4265 -0.4639
 6872TIP3   OH244810   0.703   2.179   1.330 -0.1259  0.0764  0.0556
 6872TIP3    H144811   0.675   2.096   1.291  0.2110 -0.6021  1.1857
 6872TIP3    H244812   0.731   2.155   1.418 -1.8634  1.7004  1.1135
 6873TIP3   OH244813   4.219   4.083   2.447 -0.3412 -0.6624 -0.4525
 6873TIP3    H144814   4.140   4.109   2.493  0.1902 -2.7643  1.8560
 6873TIP3    H244815   4.241   4.158   2.392 -2.5215  0.9379  0.7400
 6874TIP3   OH244816   2.812   4.597   0.340  0.1513  0.3407  0.3973
 6874TIP3    H144817   2.717   4.602   0.325 -0.0252 -0.4473  1.1926
 6874TIP3    H244818   2.832   4.676   0.390  0.0881  0.9839 -0.5511
 6875TIP3   OH244819   4.813   4.017   2.135  0.1126 -0.0036  0.0115
 6875TIP3    H144820   4.736   3.979   2.093 -0.3421  0.9877 -0.0761
 6875TIP3    H244821   4.825   3.965   2.215 -1.1499  0.3478  0.4514
 6876TIP3   OH244822   4.639   0.966   1.665 -0.1048 -0.3365  0.3029
 6876TIP3    H144823   4.735   0.967   1.670 -0.1095 -1.3112  0.8869
 6876TIP3    H244824   4.611   0.950   1.755 -0.8198 -0.0071  0.1421
 6877TIP3   OH244825   5.792   5.429   0.854 -0.3886 -0.1770 -0.2278
 6877TIP3    H144826   5.846   5.499   0.817 -0.0308  0.0283  0.6502
 6877TIP3    H244827   5.821   5.350   0.809 -1.4097  0.3275 -1.8743
 6878TIP3   OH244828   3.000   6.344   0.438  0.0797  0.1322 -1.0592
 6878TIP3    H144829   2.919   6.386   0.466  0.3167 -0.4967  0.7396
 6878TIP3    H244830   2.976   6.292   0.362 -1.3788 -0.5237 -0.1887
 6879TIP3   OH244831   2.745   6.421   3.195 -0.1430 -0.2009 -0.3311
 6879TIP3    H144832   2.790   6.500   3.167 -0.4522  0.1761  0.2238
 6879TIP3    H244833   2.800   6.386   3.265  0.3384 -0.8415 -1.0100
 6880TIP3   OH244834   5.032   7.022   1.367 -0.2729  0.3085  0.5392
 6880TIP3    H144835   5.091   7.087   1.404  1.7604 -0.5191 -1.0324
 6880TIP3    H244836   5.035   6.949   1.429 -1.7739  1.2609  1.7947
 6881TIP3   OH244837   3.651   3.678   1.512 -0.0502 -0.3233  0.2161
 6881TIP3    H144838   3.557   3.699   1.515  0.0985  0.4326 -0.1654
 6881TIP3    H244839   3.675   3.665   1.604 -1.0391 -2.9964  0.2078
 6882TIP3   OH244840   1.133   4.621   2.403  0.3518 -0.0005  0.6878
 6882TIP3    H144841   1.056   4.635   2.348 -0.4560 -0.5044  1.6724
 6882TIP3    H244842   1.112   4.543   2.455  1.8329 -0.6066  0.4395
 6883TIP3   OH244843   6.724   4.827   2.526  0.2731 -0.4601  0.8997
 6883TIP3    H144844   6.695   4.903   2.577 -1.3505 -0.0227 -0.5682
 6883TIP3    H244845   6.722   4.755   2.589 -0.1519  0.3389  1.8442
 6884TIP3   OH244846   5.263   7.061   1.135  0.4334  0.1092  0.2885
 6884TIP3    H144847   5.223   6.974   1.135 -2.3091  1.2582  0.2986
 6884TIP3    H244848   5.306   7.068   1.220  0.8464 -1.2627  0.2196
 6885TIP3   OH244849   0.344   5.846   0.738  0.3173  0.0872 -0.2365
 6885TIP3    H144850   0.430   5.805   0.732  0.4791  0.3188  0.4564
 6885TIP3    H244851   0.362   5.939   0.756 -0.0768  0.1412 -0.1043
 6886TIP3   OH244852   1.948   7.516   2.633 -0.2331  0.0606 -0.3177
 6886TIP3    H144853   2.041   7.524   2.613 -0.0318 -0.8693  0.1620
 6886TIP3    H244854   1.946   7.470   2.717 -1.0252  3.2444  1.5854
 6887TIP3   OH244855   4.440   6.314   1.638  0.0268  0.3523 -0.2014
 6887TIP3    H144856   4.407   6.323   1.727 -1.0805  1.2716 -0.6749
 6887TIP3    H244857   4.520   6.261   1.647  0.4704  1.2379  1.4318
 6888TIP3   OH244858   7.330   7.153   1.624 -0.2933 -0.5495  0.1903
 6888TIP3    H144859   7.333   7.060   1.649 -0.9966 -1.0599 -1.4825
 6888TIP3    H244860   7.378   7.157   1.542 -0.5510  0.5072  0.0862
 6889TIP3   OH244861   4.469   2.998   1.540 -0.1900 -0.0996  0.8762
 6889TIP3    H144862   4.558   3.015   1.509 -0.5948 -0.6674 -0.6747
 6889TIP3    H244863   4.475   3.009   1.635  1.3789  0.5168  0.7418
 6890TIP3   OH244864   6.098   3.477   0.892 -0.1468  0.5096  0.2647
 6890TIP3    H144865   6.109   3.398   0.840 -1.2820  0.7638 -0.3959
 6890TIP3    H244866   6.077   3.445   0.980  2.2752  0.0756  0.7542
 6891TIP3   OH244867   4.433   0.996   2.817  0.3820  0.1901  0.2310
 6891TIP3    H144868   4.457   1.053   2.890  1.4691 -0.1266  0.1479
 6891TIP3    H244869   4.467   0.910   2.842  0.9284  0.1148 -0.7017
 6892TIP3   OH244870   2.540   2.211   1.731  0.1144 -0.1356  0.0885
 6892TIP3    H144871   2.501   2.293   1.701  1.4097  0.8376  0.9828
 6892TIP3    H244872   2.554   2.223   1.825  0.7120 -1.2138  0.1614
 6893TIP3   OH244873   2.953   6.116   2.325 -0.3214  0.2645  0.5286
 6893TIP3    H144874   2.964   6.041   2.267 -1.0614 -0.3000  1.0975
 6893TIP3    H244875   2.859   6.119   2.343 -0.0778  0.1769  1.9918
 6894TIP3   OH244876   1.475   6.319   2.098 -0.6005 -0.0280  0.5264
 6894TIP3    H144877   1.499   6.322   2.190  0.0860 -1.4974  0.4288
 6894TIP3    H244878   1.383   6.346   2.095  0.0223  2.4379  1.3140
 6895TIP3   OH244879   7.084   2.721   1.303 -0.1413  0.5984 -0.0104
 6895TIP3    H144880   7.176   2.698   1.292 -0.3202 -0.7402  1.0485
 6895TIP3    H244881   7.038   2.664   1.242 -0.3308  0.5532  0.1734
 6896TIP3   OH244882   4.548   1.464   2.175 -0.1859 -0.1230 -0.3598
 6896TIP3    H144883   4.486   1.535   2.159 -1.7811 -1.2224  0.5554
 6896TIP3    H244884   4.512   1.389   2.126  1.0508 -0.4879 -0.7271
 6897TIP3   OH244885   4.446   0.098   2.299 -0.0609 -0.1749  0.3101
 6897TIP3    H144886   4.490   0.075   2.217  1.3170 -0.1700  1.0332
 6897TIP3    H244887   4.493   0.049   2.366  0.0554  1.2743  1.3282
 6898TIP3   OH244888   2.255   0.605   1.634  0.7662  0.3174 -0.3236
 6898TIP3    H144889   2.187   0.610   1.567  1.1895  0.7248 -0.7319
 6898TIP3    H244890   2.319   0.543   1.599  0.6110 -0.0682  0.0614
 6899TIP3   OH244891   0.017   2.638   0.832  0.4998  0.1240 -0.5823
 6899TIP3    H144892   0.075   2.563   0.843  2.4470  1.6300 -0.1865
 6899TIP3    H244893   0.010   2.650   0.737 -0.0057 -0.6535 -0.6548
 6900TIP3   OH244894   5.116   7.093   2.291 -0.4781 -0.5516  0.4203
 6900TIP3    H144895   5.206   7.070   2.310 -1.1036 -2.1928  1.5942
 6900TIP3    H244896   5.094   7.161   2.356  0.3319  0.9934 -0.8564
 6901TIP3   OH244897   0.852   1.811   0.987  0.3879  0.0336  0.5357
 6901TIP3    H144898   0.843   1.816   0.892  0.0799 -1.3180  0.4777
 6901TIP3    H244899   0.872   1.901   1.014  0.3697  0.4520 -0.7867
 6902TIP3   OH244900   7.271   0.025   0.806  0.1275  0.2328  0.2126
 6902TIP3    H144901   7.296   0.004   0.716 -0.9154  1.7537 -0.4655
 6902TIP3    H244902   7.194  -0.030   0.823 -0.1170  0.4812 -0.0870
 6903TIP3   OH244903   4.225   4.699   1.480 -0.4858  0.1781  0.7107
 6903TIP3    H144904   4.288   4.764   1.447  3.2156 -4.1460 -2.0127
 6903TIP3    H244905   4.155   4.698   1.414  0.6022 -0.0434 -0.4883
 6904TIP3   OH244906   0.928   4.695   1.376  0.4438 -0.3828 -0.0198
 6904TIP3    H144907   0.853   4.637   1.374  0.4696 -0.5906 -4.0182
 6904TIP3    H244908   0.893   4.780   1.402 -0.7879 -0.8724 -0.0318
 6905TIP3   OH244909   6.776   5.460   0.785 -0.1689 -0.3340 -0.4417
 6905TIP3    H144910   6.771   5.387   0.723  0.2922  0.4620 -1.4389
 6905TIP3    H244911   6.867   5.487   0.784 -0.1557 -0.2807  0.5836
 6906TIP3   OH244912   0.211   7.266   1.337 -0.0111  0.2462  0.1523
 6906TIP3    H144913   0.233   7.355   1.364 -0.8613  0.6983 -0.5892
 6906TIP3    H244914   0.164   7.277   1.254 -1.9889 -0.7201  1.0788
 6907TIP3   OH244915   2.819   2.841   1.501  0.1447 -0.6964  0.0557
 6907TIP3    H144916   2.771   2.759   1.495  0.0386 -0.7110  0.9428
 6907TIP3    H244917   2.785   2.882   1.581  0.4385  0.0501 -0.1965
 6908TIP3   OH244918   2.226   1.765   0.505 -0.2858  0.1240 -0.0225
 6908TIP3    H144919   2.272   1.699   0.557  0.4892  0.1105 -0.7059
 6908TIP3    H244920   2.137   1.766   0.541 -0.1705 -0.9234  0.3313
 6909TIP3   OH244921   2.676   6.382   0.822  0.3435 -0.8414 -0.4762
 6909TIP3    H144922   2.757   6.416   0.784  0.7501  0.1365  1.1795
 6909TIP3    H244923   2.697   6.366   0.914 -1.3852 -0.3820  0.0382
 6910TIP3   OH244924   0.007   1.373   2.987 -0.3007 -0.8930  0.1064
 6910TIP3    H144925   0.010   1.286   3.025  0.4582 -0.2044  1.7253
 6910TIP3    H244926   0.086   1.379   2.934  0.4367 -0.7013  1.1923
 6911TIP3   OH244927   4.325   4.893   1.299  0.2351  0.7536 -0.2992
 6911TIP3    H144928   4.283   4.851   1.224  0.4798  1.0653 -0.6121
 6911TIP3    H244929   4.416   4.861   1.297 -0.0730 -0.2684  0.6310
 6912TIP3   OH244930   7.313   7.138   2.652  0.2382  0.5630 -0.4480
 6912TIP3    H144931   7.371   7.214   2.647 -0.4349  1.1265  0.0546
 6912TIP3    H244932   7.330   7.100   2.738  0.3504  0.3271 -0.5739
 6913TIP3   OH244933   2.949   2.671   2.944 -0.1653  0.2941  0.1667
 6913TIP3    H144934   2.886   2.735   2.977 -0.9820 -0.4851  0.1791
 6913TIP3    H244935   2.901   2.623   2.877  0.7560  0.3564 -0.5554
 6914TIP3   OH244936   1.966   0.613   2.166 -0.0311 -0.5324  0.1382
 6914TIP3    H144937   1.933   0.528   2.195 -1.1884 -0.3753 -0.6550
 6914TIP3    H244938   1.945   0.616   2.072 -0.4784  0.8271  0.2628
 6915TIP3   OH244939   0.897   0.248   1.667  0.4103 -0.3011 -0.1909
 6915TIP3    H144940   0.854   0.282   1.745 -0.0368 -2.2856  0.4978
 6915TIP3    H244941   0.990   0.259   1.683  0.2814  0.8848 -0.1677
 6916TIP3   OH244942   1.860   6.315   2.656 -0.5178  0.3911 -0.1389
 6916TIP3    H144943   1.849   6.270   2.740 -0.2924  1.6083  0.5763
 6916TIP3    H244944   1.943   6.283   2.622 -0.6018 -0.1012  0.1141
 6917TIP3   OH244945   6.872   6.062   2.009 -0.6399 -0.1185  0.0799
 6917TIP3    H144946   6.950   6.008   1.992 -1.0719 -0.1673 -2.0561
 6917TIP3    H244947   6.907   6.143   2.045  0.3556 -0.3649 -0.2910
 6918TIP3   OH244948   3.829   6.174   1.175 -0.3444 -0.1029  0.4591
 6918TIP3    H144949   3.800   6.244   1.233  3.8117  2.0825  0.3042
 6918TIP3    H244950   3.861   6.105   1.234  2.0135  1.2606  0.9104
 6919TIP3   OH244951   6.328   1.879   1.638 -0.1603 -0.0541  0.0703
 6919TIP3    H144952   6.321   1.822   1.562  0.3240 -0.4051  0.2822
 6919TIP3    H244953   6.421   1.900   1.644 -0.1710 -0.1462  0.6461
 6920TIP3   OH244954   7.399   4.317   1.772 -0.5504 -0.0647 -0.1638
 6920TIP3    H144955   7.371   4.341   1.860 -0.7965 -0.0542 -0.2440
 6920TIP3    H244956   7.493   4.302   1.780  0.0456  2.8963 -0.5196
 6921TIP3   OH244957   5.472   0.512   1.618 -0.4076  0.0275 -0.3163
 6921TIP3    H144958   5.432   0.444   1.671  0.0018 -1.0668 -1.3456
 6921TIP3    H244959   5.564   0.512   1.644 -0.5364  0.6799  0.1640
 6922TIP3   OH244960   4.707   0.578   2.238  0.0566 -0.0743 -0.3474
 6922TIP3    H144961   4.650   0.651   2.263 -0.9105 -0.5229 -1.1623
 6922TIP3    H244962   4.646   0.510   2.208  0.8169 -1.7220  1.5890
 6923TIP3   OH244963   4.883   1.033   2.076 -0.3378  0.0648 -0.0479
 6923TIP3    H144964   4.805   0.999   2.031 -1.2519  2.0506 -0.0677
 6923TIP3    H244965   4.945   1.051   2.005  0.6809 -2.6004  0.0459
 6924TIP3   OH244966   1.033   1.964   1.497 -0.2286  0.4621  0.8300
 6924TIP3    H144967   1.020   2.059   1.491 -0.4601  0.4356  0.9152
 6924TIP3    H244968   1.019   1.933   1.407  0.6741  0.6076  0.6270
 6925TIP3   OH244969   4.709   6.773   0.569  0.2573 -0.2827  0.5641
 6925TIP3    H144970   4.780   6.722   0.531 -0.3862  0.6261 -2.0310
 6925TIP3    H244971   4.635   6.712   0.572  0.4699 -0.5272  0.9742
 6926TIP3   OH244972   2.708   1.300   0.460  0.3367  0.0083 -0.0652
 6926TIP3    H144973   2.796   1.280   0.427  1.1357  0.9708  1.3651
 6926TIP3    H244974   2.682   1.220   0.506  2.1252  0.8875  2.7766
 6927TIP3   OH244975   1.046   5.020   0.809 -0.0038  0.0867 -0.4521
 6927TIP3    H144976   0.974   5.005   0.871 -0.9332  1.8151 -1.0284
 6927TIP3    H244977   1.068   5.113   0.820  0.4155  0.2047 -2.0430
 6928TIP3   OH244978   3.340   5.260   1.341  0.9209 -0.0517  0.1564
 6928TIP3    H144979   3.390   5.194   1.292 -1.1825 -0.1406 -2.0729
 6928TIP3    H244980   3.345   5.339   1.286  1.1794  0.8880  1.4758
 6929TIP3   OH244981   6.049   2.132   2.049 -0.2889 -0.1261 -0.1875
 6929TIP3    H144982   6.081   2.057   1.999 -0.1090  1.1856 -2.1788
 6929TIP3    H244983   6.034   2.098   2.137  0.2229 -2.3661 -0.8951
 6930TIP3   OH244984   2.521   6.993   0.381 -0.3115 -0.0521 -0.5344
 6930TIP3    H144985   2.545   6.904   0.408 -0.4724 -0.2913 -1.1597
 6930TIP3    H244986   2.441   7.012   0.429 -0.4764 -0.3843 -0.6783
 6931TIP3   OH244987   7.059   0.794   1.031  0.3618  0.6156 -0.2582
 6931TIP3    H144988   7.054   0.714   0.979 -1.1445  0.7102 -0.3032
 6931TIP3    H244989   7.133   0.780   1.089 -0.5508 -1.3309  0.5423
 6932TIP3   OH244990   0.047   3.903   1.285  0.8812  0.1279 -0.0542
 6932TIP3    H144991   0.098   3.977   1.253  2.2239  0.8828  3.3702
 6932TIP3    H244992   0.113   3.837   1.307  0.3069  0.2417  2.3152
 6933TIP3   OH244993   3.693   0.277   1.243  0.5533 -0.7371  0.1418
 6933TIP3    H144994   3.704   0.234   1.328 -0.2880  1.5584  1.5053
 6933TIP3    H244995   3.601   0.260   1.220 -0.0921  1.0332  1.1895
 6934TIP3   OH244996   4.973   3.211   1.871 -0.3511 -0.2459 -0.5431
 6934TIP3    H144997   5.039   3.256   1.924  0.2521 -2.5906  0.8360
 6934TIP3    H244998   5.023   3.151   1.816 -1.2831 -1.8394  0.2894
 6935TIP3   OH244999   7.244   4.329   0.450 -0.1264 -0.0332  0.0581
 6935TIP3    H145000   7.278   4.239   0.453  1.6192  0.6036  0.5183
 6935TIP3    H245001   7.322   4.384   0.456 -1.1240  1.5309 -0.7354
 6936TIP3   OH245002   1.434   7.198   2.492  0.3535 -0.3982 -0.6365
 6936TIP3    H145003   1.435   7.241   2.406 -1.3231  0.2761 -0.3609
 6936TIP3    H245004   1.465   7.266   2.553  0.8772 -0.6530 -0.6171
 6937TIP3   OH245005   3.847   5.744   0.844  0.4534  0.2542 -0.6969
 6937TIP3    H145006   3.876   5.701   0.763  1.3992  0.9320 -0.7412
 6937TIP3    H245007   3.929   5.760   0.892  0.1686  2.2396 -0.8116
 6938TIP3   OH245008   5.428   3.138   1.426  0.1043  0.0852  0.5436
 6938TIP3    H145009   5.437   3.050   1.463  0.5739 -0.1393 -0.0940
 6938TIP3    H245010   5.388   3.124   1.340  0.7133  0.4401  0.1989
 6939TIP3   OH245011   6.536   0.850   1.180 -0.5442 -0.0649  0.3522
 6939TIP3    H145012   6.565   0.884   1.265  0.5032  1.9623 -0.7437
 6939TIP3    H245013   6.463   0.907   1.156 -2.6555 -2.3373  1.0544
 6940TIP3   OH245014   4.291   5.311   2.682 -0.4609 -0.0569  0.3732
 6940TIP3    H145015   4.313   5.401   2.661  0.4824 -0.7604 -1.8743
 6940TIP3    H245016   4.369   5.277   2.727  0.5561 -0.6625 -1.7521
 6941TIP3   OH245017   5.678   6.136   0.555 -0.6782  0.6698 -0.3705
 6941TIP3    H145018   5.730   6.175   0.626 -1.7934 -0.6551  1.2417
 6941TIP3    H245019   5.743   6.098   0.496  0.2686  1.5525  0.0663
 6942TIP3   OH245020   1.038   1.339   0.837 -0.7118  0.1126 -0.0840
 6942TIP3    H145021   1.036   1.435   0.829  1.2660  0.5313  3.0280
 6942TIP3    H245022   1.117   1.313   0.791 -0.1490  0.2494  0.7799
 6943TIP3   OH245023   2.710   0.008   0.785  0.0711  0.7409 -0.4792
 6943TIP3    H145024   2.662  -0.074   0.797 -0.7422  1.0343 -1.5752
 6943TIP3    H245025   2.642   0.072   0.762  0.3264  2.3104  2.6295
 6944TIP3   OH245026   4.149   2.949   2.067  0.0325 -0.7007  0.5247
 6944TIP3    H145027   4.085   3.019   2.056  0.2266 -0.5146  0.5805
 6944TIP3    H245028   4.199   2.975   2.145 -0.3751 -1.2654  0.9847
 6945TIP3   OH245029   1.474   6.959   0.913  0.5642 -0.3813 -0.1026
 6945TIP3    H145030   1.501   6.926   0.998 -0.7489  2.6386  1.6415
 6945TIP3    H245031   1.380   6.974   0.921  0.4358  0.1187 -2.0220
 6946TIP3   OH245032   3.077   6.590   1.861  0.2585 -0.0274  0.1638
 6946TIP3    H145033   3.052   6.497   1.859 -0.8560  0.2537  0.0936
 6946TIP3    H245034   3.147   6.595   1.926  2.7124 -1.4415 -2.2035
 6947TIP3   OH245035   4.257   3.578   3.117  0.1974  0.3974 -0.0786
 6947TIP3    H145036   4.217   3.524   3.186  0.8523 -0.0132 -0.0146
 6947TIP3    H245037   4.206   3.659   3.118 -0.8135 -0.2211 -0.1892
 6948TIP3   OH245038   6.831   1.469   2.134  0.1118  0.4820  0.4192
 6948TIP3    H145039   6.925   1.464   2.121  0.1787  0.7134  0.8346
 6948TIP3    H245040   6.815   1.428   2.219 -0.1432  0.6131  0.4368
 6949TIP3   OH245041   2.033   4.427   0.606  0.2832  0.1626  0.1528
 6949TIP3    H145042   1.981   4.475   0.670  1.3726 -1.0859  2.1102
 6949TIP3    H245043   1.996   4.339   0.606  0.9075 -0.1074 -0.2133
 6950TIP3   OH245044   2.760   4.935   1.540  0.6142  0.3360 -0.5020
 6950TIP3    H145045   2.695   4.979   1.485  0.7602 -0.0538 -0.9937
 6950TIP3    H245046   2.746   4.842   1.524 -1.0960  0.0197  2.0921
 6951TIP3   OH245047   5.066   3.590   2.633 -0.0458 -0.0354 -0.0441
 6951TIP3    H145048   5.160   3.577   2.638  0.1747  1.5517  0.5325
 6951TIP3    H245049   5.053   3.682   2.657 -1.9516 -0.8905  2.7014
 6952TIP3   OH245050   2.447   4.901   1.351  0.7102  0.2362 -0.2806
 6952TIP3    H145051   2.402   4.978   1.316  0.6681  1.6560  2.5504
 6952TIP3    H245052   2.393   4.827   1.325  0.6204  1.1400 -2.9003
 6953TIP3   OH245053   5.223   2.958   1.306  0.0282  0.0703  0.1532
 6953TIP3    H145054   5.197   3.015   1.234 -0.2177 -0.1284  0.0786
 6953TIP3    H245055   5.211   2.869   1.271  0.6252 -0.0240  0.1909
 6954TIP3   OH245056   3.770   2.828   1.340  0.0166  0.3187  0.0753
 6954TIP3    H145057   3.845   2.818   1.280 -0.5234  0.3030 -0.6168
 6954TIP3    H245058   3.721   2.902   1.304  0.4827  1.2858  1.3827
 6955TIP3   OH245059   5.637   3.472   2.319 -0.1616  0.1626  0.5577
 6955TIP3    H145060   5.644   3.555   2.274  0.6948  0.1205  0.6012
 6955TIP3    H245061   5.576   3.489   2.391 -1.8114  0.1444 -0.7628
 6956TIP3   OH245062   2.674   1.326   1.867  0.1769  0.3855  0.0417
 6956TIP3    H145063   2.766   1.302   1.858  0.0004 -0.8322  1.0813
 6956TIP3    H245064   2.675   1.418   1.895  1.1011  0.2749  0.4018
 6957TIP3   OH245065   1.020   4.064   1.982  0.3589 -0.1099  0.2060
 6957TIP3    H145066   1.072   4.139   1.951  0.4248  0.2782  1.2089
 6957TIP3    H245067   1.049   4.051   2.072 -0.9489 -0.1804  0.6343
 6958TIP3   OH245068   3.564   1.332   0.347  0.0122  0.1211  0.3204
 6958TIP3    H145069   3.571   1.240   0.369  0.9273  0.1200  0.0542
 6958TIP3    H245070   3.651   1.368   0.363  0.0697  0.6165 -0.9918
 6959TIP3   OH245071   6.565   7.462   1.356 -0.1249  0.1392 -0.1643
 6959TIP3    H145072   6.496   7.473   1.422 -0.3466 -0.3097 -0.3113
 6959TIP3    H245073   6.626   7.534   1.371 -0.0498 -0.0996  0.6833
 6960TIP3   OH245074   3.814   3.831   1.312  0.1382  0.0770  0.1274
 6960TIP3    H145075   3.765   3.797   1.238 -2.0884  2.7024  0.2498
 6960TIP3    H245076   3.783   3.781   1.387  0.6080 -0.9265 -0.3276
 6961TIP3   OH245077   2.556   0.070   2.414  0.3146  0.5754 -0.0245
 6961TIP3    H145078   2.510   0.067   2.498  1.3198  1.7395  0.6078
 6961TIP3    H245079   2.539  -0.015   2.374 -1.1835  0.4504  0.8121
 6962TIP3   OH245080   4.083   7.526   1.004 -0.4204 -0.0562  0.1941
 6962TIP3    H145081   4.129   7.537   0.921  1.4895  0.2599  1.2467
 6962TIP3    H245082   4.150   7.540   1.071 -1.9273 -0.2145  1.8038
 6963TIP3   OH245083   4.172   1.620   3.184  0.4661  0.3482  0.3383
 6963TIP3    H145084   4.109   1.664   3.128 -1.7405 -1.0664  1.5841
 6963TIP3    H245085   4.213   1.554   3.129 -0.9963 -0.3979  0.1070
 6964TIP3   OH245086   4.000   0.266   1.880  1.0133  0.0562  0.3305
 6964TIP3    H145087   4.050   0.198   1.836  0.2597 -0.1152 -0.2894
 6964TIP3    H245088   3.976   0.228   1.964  0.7213 -0.3914  0.0452
 6965TIP3   OH245089   3.208   6.149   1.424  0.2378  0.6343  0.1707
 6965TIP3    H145090   3.142   6.085   1.395  1.3262 -0.6953  0.5306
 6965TIP3    H245091   3.186   6.166   1.516 -0.1281  0.8984  0.0400
 6966TIP3   OH245092   5.991   1.015   2.198 -0.1629 -0.4804  0.2056
 6966TIP3    H145093   6.038   1.074   2.257  2.5403 -0.2498 -1.9391
 6966TIP3    H245094   6.011   0.928   2.230  2.7830 -0.4376 -1.1790
 6967TIP3   OH245095   1.612   1.523   2.556  0.1095 -0.5101  0.6557
 6967TIP3    H145096   1.576   1.449   2.605  1.5365 -0.5110  1.7454
 6967TIP3    H245097   1.656   1.577   2.621  0.9003  0.2067 -0.4330
 6968TIP3   OH245098   5.741   0.335   1.149 -0.2371  0.0673 -0.1791
 6968TIP3    H145099   5.692   0.254   1.164  2.4439 -1.4174  1.4757
 6968TIP3    H245100   5.798   0.343   1.226  0.8814  2.5504 -1.1610
 6969TIP3   OH245101   7.524   1.773   1.675  0.0914 -0.7025 -0.1275
 6969TIP3    H145102   7.461   1.707   1.647 -0.1850 -0.6086  0.2716
 6969TIP3    H245103   7.547   1.748   1.765  1.1201 -1.1128 -0.4817
 6970TIP3   OH245104   1.051   0.098   1.145  0.1954 -0.2274 -0.7203
 6970TIP3    H145105   1.096   0.014   1.139 -1.2152 -0.9555 -2.1362
 6970TIP3    H245106   0.968   0.083   1.099  0.5025  2.3304 -2.3136
 6971TIP3   OH245107   3.874   0.860   2.980  0.0346 -0.1439 -0.4823
 6971TIP3    H145108   3.859   0.937   3.036 -0.1449  0.7005 -1.6600
 6971TIP3    H245109   3.786   0.828   2.961  0.1193 -0.8677  0.2808
 6972TIP3   OH245110   7.387   0.902   0.557  0.1346 -0.1310 -0.0417
 6972TIP3    H145111   7.323   0.830   0.555  0.0158 -0.0577  0.6821
 6972TIP3    H245112   7.348   0.967   0.615 -0.9899  1.7359 -2.7050
 6973TIP3   OH245113   3.554   0.940   1.270  0.1433 -0.2700  0.2861
 6973TIP3    H145114   3.615   0.869   1.251  0.9292 -0.4779  3.0287
 6973TIP3    H245115   3.468   0.898   1.272  0.2827 -0.6134 -0.5460
 6974TIP3   OH245116   2.913   0.620   2.432 -0.3571  0.3777 -0.2404
 6974TIP3    H145117   2.875   0.629   2.344  0.4331  0.0324 -0.6357
 6974TIP3    H245118   2.848   0.657   2.491 -0.7963  0.8406 -1.0011
 6975TIP3   OH245119   6.893   4.710   0.929 -0.4137 -0.7046  0.0604
 6975TIP3    H145120   6.811   4.755   0.946 -0.0509 -1.2284  4.0961
 6975TIP3    H245121   6.872   4.617   0.934  0.5834 -0.9058  3.5794
 6976TIP3   OH245122   5.986   3.621   0.510 -0.3614  0.2230 -0.3600
 6976TIP3    H145123   5.910   3.570   0.483 -0.0675  0.1412 -1.0566
 6976TIP3    H245124   5.976   3.631   0.605  1.0398 -3.6337  0.3656
 6977TIP3   OH245125   2.113   0.702   1.859 -0.2359  0.5344  0.1934
 6977TIP3    H145126   2.166   0.662   1.791  1.0692  1.4181  0.6618
 6977TIP3    H245127   2.148   0.791   1.868 -1.5644  1.0310  0.7607
 6978TIP3   OH245128   6.139   0.974   2.722  0.1712  0.1443  0.2242
 6978TIP3    H145129   6.105   1.038   2.659  0.4420  1.6268  1.5146
 6978TIP3    H245130   6.234   0.987   2.721  0.3294 -0.9784 -0.2489
 6979TIP3   OH245131   3.609   6.998   1.564 -0.0961  0.1826 -0.1207
 6979TIP3    H145132   3.615   7.061   1.492  3.1640 -1.9195 -1.9751
 6979TIP3    H245133   3.634   7.047   1.642 -0.3984  1.7718 -0.9847
 6980TIP3   OH245134   6.058   4.195   1.617  0.0017 -0.8348  0.0190
 6980TIP3    H145135   6.152   4.196   1.600 -0.0110 -2.6145 -0.3597
 6980TIP3    H245136   6.047   4.250   1.694  1.3340 -0.5105  0.0008
 6981TIP3   OH245137   3.898   0.741   2.112 -0.5020 -0.6686  0.2958
 6981TIP3    H145138   3.926   0.832   2.101  1.2465 -1.1767  0.2592
 6981TIP3    H245139   3.959   0.705   2.176 -1.6345 -1.6366  0.8604
 6982TIP3   OH245140   6.002   6.839   2.430  0.2686 -0.1148 -0.5323
 6982TIP3    H145141   6.094   6.838   2.458  0.4429  0.4423 -1.0470
 6982TIP3    H245142   5.952   6.842   2.511  0.6677 -1.4690 -0.2111
 6983TIP3   OH245143   6.075   1.151   0.870  0.0555  0.0967  0.3618
 6983TIP3    H145144   6.010   1.128   0.936 -0.1762 -0.2835  0.0064
 6983TIP3    H245145   6.031   1.213   0.812  0.1960  0.2798  0.4480
 6984TIP3   OH245146   1.272   5.966   2.956 -0.3589 -0.0669  0.5822
 6984TIP3    H145147   1.279   6.062   2.955  0.7943 -0.0976  2.0721
 6984TIP3    H245148   1.207   5.948   3.024  0.4238 -0.3560  1.2733
 6985TIP3   OH245149   2.121   4.260   2.041  0.8231  0.2448  0.3328
 6985TIP3    H145150   2.144   4.236   2.131  2.3795 -0.4567 -0.2133
 6985TIP3    H245151   2.203   4.293   2.004  0.4251 -0.3014 -1.0874
 6986TIP3   OH245152   5.999   3.166   1.883 -0.1333  0.1316  0.2854
 6986TIP3    H145153   6.038   3.193   1.800  0.9936  0.3266  0.8477
 6986TIP3    H245154   6.064   3.193   1.949 -0.7422 -0.5243  1.1749
 6987TIP3   OH245155   0.151   3.283   0.776 -0.6625  0.0732  0.4137
 6987TIP3    H145156   0.158   3.379   0.779 -2.5330  0.2402  1.9104
 6987TIP3    H245157   0.065   3.265   0.815 -0.0080 -2.2585  0.9145
 6988TIP3   OH245158   4.403   2.487   0.625 -0.5848 -0.2510 -0.3150
 6988TIP3    H145159   4.440   2.469   0.539 -1.3112 -2.4190 -0.2317
 6988TIP3    H245160   4.367   2.575   0.618 -0.2705 -0.2297 -2.1026
 6989TIP3   OH245161   3.492   1.731   0.850 -0.3228  0.0635  0.7786
 6989TIP3    H145162   3.410   1.746   0.898 -1.0219 -0.0399 -0.3516
 6989TIP3    H245163   3.550   1.691   0.915 -0.9140  0.7993  1.7985
 6990TIP3   OH245164   2.618   4.253   2.889  0.2929 -0.2452  0.0591
 6990TIP3    H145165   2.652   4.327   2.940 -0.4696 -0.0963  0.3637
 6990TIP3    H245166   2.627   4.178   2.947 -1.5741  0.1052  0.8573
 6991TIP3   OH245167   6.790   5.017   1.208  0.2464 -0.0711  0.2759
 6991TIP3    H145168   6.874   5.009   1.253  0.8011  0.7333 -0.5765
 6991TIP3    H245169   6.780   5.111   1.192 -0.1919 -0.2814 -0.7571
 6992TIP3   OH245170   6.626   3.777   1.015 -0.3450  0.1576  0.2673
 6992TIP3    H145171   6.693   3.845   1.006  0.9178 -1.0107  0.4749
 6992TIP3    H245172   6.674   3.695   1.001 -1.8216 -0.6894  0.0463
 6993TIP3   OH245173   1.090   7.436   2.939 -0.3035 -0.5686 -0.2471
 6993TIP3    H145174   0.996   7.425   2.923 -0.5448 -0.5750  1.0688
 6993TIP3    H245175   1.100   7.529   2.960 -0.0353 -0.5976 -0.2445
 6994TIP3   OH245176   0.442   0.849   2.109  0.3225  0.1270  0.0624
 6994TIP3    H145177   0.407   0.786   2.047  2.1201 -0.9206  0.0455
 6994TIP3    H245178   0.423   0.934   2.070  1.4506 -0.5012 -1.9861
 6995TIP3   OH245179   7.307   5.812   0.993 -0.0172  0.4165 -0.5167
 6995TIP3    H145180   7.348   5.796   1.078  0.1851 -0.0153 -0.6921
 6995TIP3    H245181   7.318   5.729   0.945 -1.9531 -0.0575 -0.2278
 6996TIP3   OH245182   5.226   1.021   2.189 -0.2390 -0.6736  0.1077
 6996TIP3    H145183   5.155   1.084   2.201  0.8386  1.0620 -1.9400
 6996TIP3    H245184   5.255   1.000   2.278 -3.4135 -1.6970  1.0517
 6997TIP3   OH245185   4.391   0.516   0.662  0.2025  0.2586  0.0909
 6997TIP3    H145186   4.300   0.533   0.636 -0.5832 -3.4164 -0.0535
 6997TIP3    H245187   4.442   0.538   0.584 -1.2166 -2.4602 -1.7746
 6998TIP3   OH245188   0.750   2.962   0.639  0.6587  0.4678  0.5406
 6998TIP3    H145189   0.828   3.006   0.672  1.0941  0.7136 -0.7586
 6998TIP3    H245190   0.766   2.869   0.653  2.0059  0.3664 -1.2934
 6999TIP3   OH245191   1.698   0.952   0.863  0.0433 -0.0001  0.0028
 6999TIP3    H145192   1.617   0.989   0.899 -0.0153 -0.2961  0.1790
 6999TIP3    H245193   1.669   0.902   0.786 -0.4688 -3.0108  1.9443
 7000TIP3   OH245194   0.725   5.411   2.517  0.1779 -0.1895  0.0275
 7000TIP3    H145195   0.773   5.330   2.495 -0.5198 -0.7530  0.5311
 7000TIP3    H245196   0.762   5.438   2.601 -0.9459 -1.1177  0.8656
 7001TIP3   OH245197   7.286   6.321   2.973 -0.0598 -0.0280 -0.0587
 7001TIP3    H145198   7.259   6.413   2.978 -1.2137 -0.3804  0.4880
 7001TIP3    H245199   7.381   6.325   2.961 -0.1914  1.2372 -0.8553
 7002TIP3   OH245200   2.088   1.179   1.233 -0.5001  0.2977  0.2936
 7002TIP3    H145201   2.032   1.150   1.305 -1.5032 -0.1255 -0.6282
 7002TIP3    H245202   2.060   1.125   1.158 -0.8143  2.0446 -0.8992
 7003TIP3   OH245203   2.217   0.297   2.295  0.1168 -0.8503 -0.0265
 7003TIP3    H145204   2.124   0.297   2.274  0.1129  0.9004 -0.1661
 7003TIP3    H245205   2.258   0.248   2.224 -0.5272 -0.1157 -0.9354
 7004TIP3   OH245206   7.274   3.053   2.554 -0.5597 -0.4849 -0.3223
 7004TIP3    H145207   7.192   3.022   2.592 -0.1635 -0.4054  0.6225
 7004TIP3    H245208   7.285   3.142   2.589 -0.3948 -0.2461 -0.9654
 7005TIP3   OH245209   4.761   4.689   2.653  0.0709  0.0678 -0.6249
 7005TIP3    H145210   4.790   4.767   2.606 -0.2169  1.0993  0.8410
 7005TIP3    H245211   4.746   4.719   2.742 -0.1303 -1.6642 -0.0403
 7006TIP3   OH245212   0.967   3.491   0.569  0.2333  0.5123  0.4653
 7006TIP3    H145213   0.981   3.585   0.559  0.3327  0.6370  1.7010
 7006TIP3    H245214   1.002   3.470   0.656  0.3753 -0.7016  0.1379
 7007TIP3   OH245215   4.768   0.963   3.616  0.3264 -0.0732  0.4045
 7007TIP3    H145216   4.739   1.050   3.589  1.8404  0.1496 -0.6608
 7007TIP3    H245217   4.699   0.904   3.587 -0.4679  0.7237  0.6554
 7008TIP3   OH245218   1.846   6.217   2.371  0.5741 -0.0478 -0.0267
 7008TIP3    H145219   1.792   6.162   2.428  1.0352 -1.3273 -0.7784
 7008TIP3    H245220   1.829   6.306   2.401  0.5269 -0.6436  1.8550
 7009TIP3   OH245221   2.314   2.624   2.392 -0.1833  0.2472  0.2725
 7009TIP3    H145222   2.308   2.550   2.453  0.3591  3.1186  4.1247
 7009TIP3    H245223   2.388   2.602   2.335  2.0978 -0.8903  3.3932
 7010TIP3   OH245224   4.260   6.284   1.395 -0.4656 -0.6489 -0.2230
 7010TIP3    H145225   4.233   6.373   1.416 -3.7086 -1.5757  0.1086
 7010TIP3    H245226   4.311   6.256   1.471  1.8067  1.2888 -0.9307
 7011TIP3   OH245227   5.660   5.718   0.616 -1.0574 -0.1755 -0.0169
 7011TIP3    H145228   5.596   5.655   0.651 -0.9746 -1.2665 -1.7142
 7011TIP3    H245229   5.669   5.784   0.684 -0.5144 -2.4378  2.2742
 7012TIP3   OH245230   4.831   5.814   2.857 -0.3071 -0.0087 -0.5820
 7012TIP3    H145231   4.825   5.865   2.937 -0.9763  0.9807 -1.2385
 7012TIP3    H245232   4.823   5.723   2.886 -0.1615  0.3115  0.5023
 7013TIP3   OH245233   6.837   1.854   2.167  0.9118 -0.1694  0.4401
 7013TIP3    H145234   6.903   1.786   2.151  0.9594  0.2252 -1.2183
 7013TIP3    H245235   6.805   1.836   2.255  0.3236 -2.8701 -0.2293
 7014TIP3   OH245236   1.100   5.334   2.771  0.0359 -0.2151  0.4187
 7014TIP3    H145237   1.023   5.392   2.777 -1.0952 -1.5785 -0.4761
 7014TIP3    H245238   1.105   5.294   2.858  0.3657  0.6123  0.7997
 7015TIP3   OH245239   0.683   5.889   2.442 -0.2227 -0.6726  0.2511
 7015TIP3    H145240   0.597   5.911   2.405  0.0059 -0.5128 -0.1978
 7015TIP3    H245241   0.671   5.894   2.536 -0.1693  1.4804  0.1952
 7016TIP3   OH245242   1.504   6.340   2.369  0.5650 -0.4330 -0.1575
 7016TIP3    H145243   1.494   6.425   2.413 -0.9911 -0.6704 -0.0195
 7016TIP3    H245244   1.579   6.300   2.413  0.2951  0.1769  0.9083
 7017TIP3   OH245245   4.085   6.531   1.191 -0.3529 -0.0605  0.2440
 7017TIP3    H145246   4.055   6.457   1.138 -1.4604  0.7294 -0.2635
 7017TIP3    H245247   4.090   6.604   1.130  0.9364  0.2519  0.7024
 7018TIP3   OH245248   0.631   2.704   1.374  0.0285  0.3626 -0.4455
 7018TIP3    H145249   0.715   2.695   1.330  1.7394  1.2900  2.3886
 7018TIP3    H245250   0.597   2.614   1.379  1.0109 -0.0738 -1.2286
 7019TIP3   OH245251   4.607   4.354   1.760 -0.1405 -0.2304 -0.1892
 7019TIP3    H145252   4.597   4.423   1.825  1.4317  1.2052 -1.3729
 7019TIP3    H245253   4.538   4.373   1.695  1.2738  1.2977 -1.3373
 7020TIP3   OH245254   4.404   3.366   0.613  0.1320  0.3324 -0.2470
 7020TIP3    H145255   4.412   3.439   0.551 -0.2436 -0.3782 -1.1551
 7020TIP3    H245256   4.474   3.305   0.588  0.6398  0.5108  0.7021
 7021TIP3   OH245257   6.072   4.848   2.321 -0.0972  0.2459 -0.1418
 7021TIP3    H145258   6.071   4.922   2.260  1.4953 -0.0095 -0.5251
 7021TIP3    H245259   6.165   4.832   2.338 -0.4735 -0.1982  1.7557
 7022TIP3   OH245260   6.378   1.095   2.715 -0.0334 -0.1469  0.0741
 7022TIP3    H145261   6.431   1.097   2.635 -2.0595  0.1112 -1.3176
 7022TIP3    H245262   6.371   1.187   2.741 -0.0173 -0.1616  0.1318
 7023TIP3   OH245263   3.292   3.380   1.009  0.1654  0.0477 -0.2018
 7023TIP3    H145264   3.326   3.330   1.083  1.9008  1.0853 -0.2365
 7023TIP3    H245265   3.231   3.443   1.047  0.7151  0.2822  0.2935
 7024TIP3   OH245266   1.088   6.943   1.439  0.3567 -0.9992  0.8420
 7024TIP3    H145267   1.023   6.900   1.495  0.5839  0.2688  2.1508
 7024TIP3    H245268   1.120   7.016   1.492  1.6057 -0.5750 -0.4435
 7025TIP3   OH245269   6.752   4.541   1.125 -0.1819  0.0049 -0.4251
 7025TIP3    H145270   6.800   4.560   1.205 -0.5124 -0.6729 -0.0534
 7025TIP3    H245271   6.677   4.601   1.127 -0.0908  0.1161 -0.3254
 7026TIP3   OH245272   3.597   7.217   1.428 -0.7387 -0.5438  0.6510
 7026TIP3    H145273   3.576   7.236   1.336 -0.4068 -0.9488  0.4866
 7026TIP3    H245274   3.692   7.225   1.432 -0.7221 -0.8448  0.8833
 7027TIP3   OH245275   4.720   4.192   0.737 -0.3835 -0.3520 -0.4343
 7027TIP3    H145276   4.750   4.111   0.779  0.5097  0.3252  0.2873
 7027TIP3    H245277   4.626   4.195   0.755 -0.2418 -0.7137  0.4441
 7028TIP3   OH245278   6.142   3.730   1.209  0.9916  0.0570  0.2014
 7028TIP3    H145279   6.123   3.693   1.295 -1.3704 -1.2980 -0.7970
 7028TIP3    H245280   6.073   3.794   1.195  0.7208 -0.4965 -1.0936
 7029TIP3   OH245281   0.833   7.016   0.730 -0.2799 -0.0748 -0.4010
 7029TIP3    H145282   0.910   6.959   0.726  0.4515  0.9522 -1.7782
 7029TIP3    H245283   0.868   7.104   0.714 -1.4104  0.7533  1.3943
 7030TIP3   OH245284   4.876   1.597   0.546 -0.0257  0.0823  0.0979
 7030TIP3    H145285   4.791   1.618   0.508 -1.1442 -0.4770  2.1246
 7030TIP3    H245286   4.878   1.645   0.629  1.5394 -0.1040  0.2116
 7031TIP3   OH245287   4.085   0.124   1.637  0.1427  0.1837 -0.2497
 7031TIP3    H145288   4.161   0.067   1.646 -0.4982 -0.6227  0.1633
 7031TIP3    H245289   4.107   0.183   1.565  0.4356 -1.2205 -1.3521
 7032TIP3   OH245290   1.109   3.829   2.813 -0.3203 -0.1730 -0.1888
 7032TIP3    H145291   1.177   3.882   2.854 -1.9599  2.1697 -0.2997
 7032TIP3    H245292   1.084   3.766   2.881 -1.2860  2.0359  1.6267
 7033TIP3   OH245293   4.310   2.621   1.016  0.1335  0.1114  0.1058
 7033TIP3    H145294   4.274   2.710   1.023 -1.0969 -0.4791  2.0254
 7033TIP3    H245295   4.236   2.564   1.037  1.0650 -1.3618 -0.4892
 7034TIP3   OH245296   3.915   1.340   0.846 -1.0434 -0.0928 -0.4105
 7034TIP3    H145297   3.935   1.433   0.835  1.3973 -0.3566  1.0554
 7034TIP3    H245298   3.884   1.333   0.936 -0.0500 -0.8194 -0.1035
 7035TIP3   OH245299   5.732   0.565   2.560 -0.0834  0.8242  0.1953
 7035TIP3    H145300   5.653   0.539   2.607  0.1488  1.0827  0.7381
 7035TIP3    H245301   5.703   0.579   2.470  0.0438 -2.7345 -0.5463
 7036TIP3   OH245302   1.225   5.237   1.681 -0.3976  0.6180  0.4163
 7036TIP3    H145303   1.290   5.211   1.747 -1.1697  1.4904  1.5562
 7036TIP3    H245304   1.150   5.180   1.698 -0.5376  0.7354  0.1922
 7037TIP3   OH245305   7.069   1.731   0.544 -0.1145 -0.5549  0.3142
 7037TIP3    H145306   7.048   1.824   0.553  0.6630 -0.3948  0.5648
 7037TIP3    H245307   7.141   1.729   0.480 -2.2545 -1.2559 -2.2683
 7038TIP3   OH245308   1.709   4.363   9.756  0.0659 -0.1697 -0.4218
 7038TIP3    H145309   1.620   4.376   9.788 -0.4616  0.5209 -2.0529
 7038TIP3    H245310   1.726   4.270   9.770  0.3863  0.2545  2.9329
 7039TIP3   OH245311   3.576   5.932   3.088 -0.5041 -0.3560  0.0367
 7039TIP3    H145312   3.655   5.962   3.133 -0.8482  0.6815 -0.0122
 7039TIP3    H245313   3.517   6.007   3.093 -1.5878 -1.2087  0.2993
 7040TIP3   OH245314   3.377   3.424   1.579  0.2603 -0.0821 -0.3851
 7040TIP3    H145315   3.301   3.385   1.622 -0.2494  0.5236 -0.7249
 7040TIP3    H245316   3.341   3.467   1.502  0.3876  3.2623  1.2406
 7041TIP3   OH245317   6.154   7.171   2.898 -0.1580 -0.3742  0.5535
 7041TIP3    H145318   6.126   7.081   2.880  0.7336 -0.7774  1.1537
 7041TIP3    H245319   6.241   7.178   2.860 -0.2609  0.2777  0.4160
 7042TIP3   OH245320   3.463   1.415   1.045  0.2130  0.3886 -0.0604
 7042TIP3    H145321   3.483   1.341   1.103  1.3968  0.4449 -0.3809
 7042TIP3    H245322   3.386   1.456   1.085 -1.1501 -1.6287 -0.4580
 7043TIP3   OH245323   3.839   1.953   1.518 -0.1991  0.0734  0.5730
 7043TIP3    H145324   3.886   1.883   1.472  0.6502 -0.1404  1.7155
 7043TIP3    H245325   3.750   1.949   1.482  0.7012  0.7769 -1.9872
 7044TIP3   OH245326   1.124   1.897   0.907 -0.0847 -0.0425  0.3701
 7044TIP3    H145327   1.129   1.993   0.906  1.5654 -0.0947 -0.2039
 7044TIP3    H245328   1.144   1.872   0.816  0.5612 -0.9454  0.7513
 7045TIP3   OH245329   1.334   7.418   0.588 -0.1447  0.0997  0.4045
 7045TIP3    H145330   1.415   7.469   0.577 -0.8216  1.1154 -0.0882
 7045TIP3    H245331   1.265   7.478   0.561 -0.8783 -1.5796 -1.7027
 7046TIP3   OH245332   6.973   3.364   1.250 -0.0272  0.3079  0.0399
 7046TIP3    H145333   7.062   3.399   1.255 -0.6520  1.8468  2.4856
 7046TIP3    H245334   6.919   3.440   1.230 -0.9794 -0.1392  0.8204
 7047TIP3   OH245335   3.043   2.744   1.635 -0.1988  0.0468 -0.5979
 7047TIP3    H145336   3.103   2.677   1.604  0.9760  0.4777  0.6817
 7047TIP3    H245337   2.983   2.758   1.561  1.2176 -0.4434 -1.8905
 7048TIP3   OH245338   0.344   3.823   2.298  0.1550 -0.0662 -0.0108
 7048TIP3    H145339   0.418   3.764   2.310  0.4233  0.5916  1.9740
 7048TIP3    H245340   0.281   3.796   2.365 -1.7715 -1.0549 -2.0799
 7049TIP3   OH245341   3.107   5.521   1.762 -0.9186  0.4024  0.8392
 7049TIP3    H145342   3.120   5.432   1.793 -0.4463 -0.5572 -1.7925
 7049TIP3    H245343   3.150   5.523   1.676 -0.4245  3.3445  1.0333
 7050TIP3   OH245344   4.142   3.222   1.483 -0.2492 -0.3259 -0.1055
 7050TIP3    H145345   4.118   3.312   1.462  1.5693  0.0568 -0.7158
 7050TIP3    H245346   4.210   3.230   1.551  0.3213 -1.1919 -0.5507
 7051TIP3   OH245347   3.591   7.440   1.795 -0.1990  0.1745  0.1637
 7051TIP3    H145348   3.680   7.457   1.765 -0.8702  0.7342 -1.5972
 7051TIP3    H245349   3.593   7.462   1.889  1.2089  1.3715 -0.1066
 7052TIP3   OH245350   6.461   6.053   1.669 -0.1150  0.1734 -0.1523
 7052TIP3    H145351   6.514   6.062   1.748 -2.7301  0.8002  1.6398
 7052TIP3    H245352   6.524   6.061   1.597  2.2860  0.1239  1.8157
 7053TIP3   OH245353   1.559   6.795   1.116 -0.1226 -0.6632 -0.3028
 7053TIP3    H145354   1.489   6.762   1.173 -0.9651  1.3576 -0.0716
 7053TIP3    H245355   1.608   6.855   1.172 -0.3090  0.5334 -1.3707
 7054TIP3   OH245356   7.158   6.080   2.971  0.4186  0.4232  0.2812
 7054TIP3    H145357   7.171   6.083   3.066 -1.6011  0.9070  0.6057
 7054TIP3    H245358   7.185   6.167   2.941 -3.1806  2.0965  1.1884
 7055TIP3   OH245359   2.952   6.187   0.785 -0.5802 -0.2986  0.1232
 7055TIP3    H145360   2.915   6.236   0.859 -1.9312  0.4661 -1.0042
 7055TIP3    H245361   3.018   6.246   0.748 -0.6138 -0.2564  0.1295
 7056TIP3   OH245362   4.630   3.853   1.376  0.2740  0.3898  0.1946
 7056TIP3    H145363   4.578   3.887   1.449  0.6738  0.9739  0.2150
 7056TIP3    H245364   4.566   3.813   1.317 -0.0949  0.2765  0.6673
 7057TIP3   OH245365   0.961   4.897   1.077 -0.2690 -0.0945  0.1783
 7057TIP3    H145366   0.953   4.808   1.113 -0.7363  0.2024  0.8223
 7057TIP3    H245367   0.939   4.954   1.150 -0.0521  0.5570 -0.2589
 7058TIP3   OH245368   5.391   5.536   3.193 -0.0184  0.0339  0.3964
 7058TIP3    H145369   5.374   5.446   3.220 -1.4230 -0.2770 -1.4060
 7058TIP3    H245370   5.454   5.528   3.121 -0.4652  0.4438 -0.0487
 7059TIP3   OH245371   1.252   6.984   2.489 -0.7006 -0.0961  0.4152
 7059TIP3    H145372   1.192   7.000   2.561  0.0832 -0.1033  1.0792
 7059TIP3    H245373   1.319   7.051   2.497  0.5470 -1.3624  0.9686
 7060TIP3   OH245374   3.986   0.630   3.008 -0.3618 -0.3443  0.5324
 7060TIP3    H145375   3.979   0.616   3.103 -0.2904 -0.2906  0.5459
 7060TIP3    H245376   3.971   0.724   2.997  1.2559 -0.0467  0.6659
 7061TIP3   OH245377   3.481   6.867   0.782 -0.0337 -0.5257 -0.0133
 7061TIP3    H145378   3.568   6.877   0.745 -0.5339 -2.0093 -1.7382
 7061TIP3    H245379   3.462   6.952   0.822  1.7260  0.2071 -0.6388
 7062TIP3   OH245380   6.464   7.262   1.978 -0.2938  0.3759 -0.0907
 7062TIP3    H145381   6.523   7.334   1.998 -1.6639  1.7384 -0.7395
 7062TIP3    H245382   6.491   7.233   1.891 -0.5502  0.9838 -0.3797
 7063TIP3   OH245383   3.018   1.174   0.862 -0.2503  0.0345  0.2625
 7063TIP3    H145384   3.033   1.139   0.775  2.5035  2.2169 -0.3031
 7063TIP3    H245385   2.960   1.249   0.849 -0.8059 -0.3468  0.5029
 7064TIP3   OH245386   0.295   3.866   2.917 -0.4093  0.6357  0.1037
 7064TIP3    H145387   0.361   3.797   2.917 -1.3132 -0.2508 -0.4996
 7064TIP3    H245388   0.345   3.947   2.933  0.6135 -0.1738  1.1371
 7065TIP3   OH245389   0.312   2.722   1.830 -0.1679 -0.0565  0.3050
 7065TIP3    H145390   0.361   2.792   1.787 -1.4354  1.4752  1.1892
 7065TIP3    H245391   0.377   2.672   1.877  0.8170  0.3936 -0.5374
 7066TIP3   OH245392   7.406   3.539   0.987 -0.4281 -0.4560 -0.1807
 7066TIP3    H145393   7.319   3.564   1.018  0.3683 -0.2292  2.0470
 7066TIP3    H245394   7.461   3.540   1.065  1.9379  0.8366 -1.7361
 7067TIP3   OH245395   6.206   6.882   1.934  0.2789  0.2426  0.0025
 7067TIP3    H145396   6.130   6.844   1.977  0.5871  0.4850  0.7771
 7067TIP3    H245397   6.270   6.894   2.004  0.4264  1.5793 -0.3202
 7068TIP3   OH245398   3.983   2.996   0.454  0.1572  0.7013 -0.3142
 7068TIP3    H145399   3.939   3.030   0.533  0.3076 -1.4008  0.7400
 7068TIP3    H245400   4.058   3.054   0.442  0.9090  0.3243  1.9331
 7069TIP3   OH245401   7.220   3.313   2.669 -0.9552  0.2692  0.8042
 7069TIP3    H145402   7.152   3.370   2.635 -0.4072  1.9116  2.2675
 7069TIP3    H245403   7.220   3.330   2.764  1.9314  0.9266  0.7911
 7070TIP3   OH245404   0.330   7.444   1.834 -0.2381  0.0339  0.6902
 7070TIP3    H145405   0.242   7.480   1.834 -0.6334 -0.8308 -1.3110
 7070TIP3    H245406   0.345   7.418   1.925 -1.1027  2.3190  1.5509
 7071TIP3   OH245407   4.315   7.018   2.686 -0.6778  0.2558  0.2910
 7071TIP3    H145408   4.399   7.057   2.663 -1.2800  1.8863  0.6732
 7071TIP3    H245409   4.283   6.980   2.605  0.3295 -0.2016  0.0961
 7072TIP3   OH245410   0.185   5.214   2.036  0.0470 -0.0204  0.2191
 7072TIP3    H145411   0.097   5.183   2.052  0.3824 -1.0318  0.1559
 7072TIP3    H245412   0.231   5.139   1.997  0.6716  0.7686 -0.6255
 7073TIP3   OH245413   6.133   7.104   2.203 -0.0115  0.0475  0.2444
 7073TIP3    H145414   6.176   7.028   2.163 -1.4035 -0.9119  0.5164
 7073TIP3    H245415   6.195   7.134   2.270  0.8643 -0.3999 -0.3415
 7074TIP3   OH245416   4.524   2.524   2.110 -0.3666  0.4548  0.0434
 7074TIP3    H145417   4.481   2.561   2.033  0.6916 -0.0486 -0.8154
 7074TIP3    H245418   4.486   2.571   2.184 -2.3568  0.0749 -0.6605
 7075TIP3   OH245419   3.578   7.195   2.932 -0.5775 -0.3503 -0.1464
 7075TIP3    H145420   3.544   7.203   3.021 -0.3811  0.4722 -0.1366
 7075TIP3    H245421   3.662   7.240   2.935  0.3936 -2.0701 -0.2489
 7076TIP3   OH245422   0.778   7.102   2.795 -0.4716  0.0149 -0.7083
 7076TIP3    H145423   0.767   7.126   2.703 -0.7339 -0.6535 -0.8582
 7076TIP3    H245424   0.690   7.108   2.832 -0.9615 -2.6580 -1.2454
 7077TIP3   OH245425   6.980   5.921   2.427  0.3712  0.3589  0.3036
 7077TIP3    H145426   6.900   5.962   2.395  1.4452  0.5625 -2.3231
 7077TIP3    H245427   7.050   5.984   2.409  1.6878 -1.4487 -1.3617
 7078TIP3   OH245428   5.826   4.422   2.345 -0.3768  0.4789  0.0573
 7078TIP3    H145429   5.852   4.498   2.397  0.8048  0.1035  0.0390
 7078TIP3    H245430   5.832   4.348   2.406 -0.6748  0.2712 -0.1600
 7079TIP3   OH245431   1.071   0.657   1.610 -0.0327 -0.3179  0.1861
 7079TIP3    H145432   1.049   0.564   1.604  0.1757 -0.5052  1.8275
 7079TIP3    H245433   1.094   0.671   1.702 -0.7667  1.5062  0.1575
 7080TIP3   OH245434   3.870   7.193   1.136 -0.1449 -0.2923  1.2330
 7080TIP3    H145435   3.890   7.257   1.205  2.1786 -0.2067  0.5538
 7080TIP3    H245436   3.933   7.123   1.149 -2.2395 -2.2182  1.5580
 7081TIP3   OH245437   4.017   4.601   0.562  0.0661 -0.0325  0.2967
 7081TIP3    H145438   3.981   4.541   0.627  0.3512  0.4281  0.8918
 7081TIP3    H245439   4.031   4.683   0.610  0.3886  0.2798 -0.3167
 7082TIP3   OH245440   1.711   2.378   2.433  0.1041 -0.5742 -1.3094
 7082TIP3    H145441   1.688   2.432   2.357  2.3620  0.2237 -1.4896
 7082TIP3    H245442   1.806   2.386   2.441 -0.0819 -0.2466  1.9187
 7083TIP3   OH245443   4.665   2.324   2.257 -0.1021  0.3480  0.1549
 7083TIP3    H145444   4.662   2.377   2.178 -1.6548  0.8108  0.4986
 7083TIP3    H245445   4.604   2.367   2.317 -0.6237 -1.2447  0.8194
 7084TIP3   OH245446   1.412   7.040   1.573  0.2856 -0.2602 -0.5625
 7084TIP3    H145447   1.333   7.083   1.605  0.5763 -0.4349  0.4451
 7084TIP3    H245448   1.479   7.108   1.577  0.3755 -0.3477 -0.5744
 7085TIP3   OH245449   0.796   4.488   0.548 -0.1151 -0.4111  0.1947
 7085TIP3    H145450   0.726   4.538   0.589 -0.0756 -0.4406  0.2984
 7085TIP3    H245451   0.870   4.549   0.542  0.1817 -0.6761  1.0186
 7086TIP3   OH245452   1.038   5.375   0.470 -0.1788 -0.4842  0.1591
 7086TIP3    H145453   0.985   5.428   0.409 -1.6892 -0.5130  1.3796
 7086TIP3    H245454   1.077   5.440   0.529 -0.6580 -0.5836  0.6018
 7087TIP3   OH245455   2.475   1.801   2.666 -0.6097  0.4210 -0.1643
 7087TIP3    H145456   2.516   1.714   2.675  2.1006  1.5683 -0.3957
 7087TIP3    H245457   2.503   1.848   2.744  0.4957  1.9843 -1.4400
 7088TIP3   OH245458   6.755   6.554   0.731  0.5210  0.1205  0.1766
 7088TIP3    H145459   6.729   6.579   0.819 -0.2177 -2.2548  0.7050
 7088TIP3    H245460   6.736   6.460   0.726 -2.5134  0.6742 -3.5173
 7089TIP3   OH245461   7.339   1.747   1.453  0.6993  0.4133  0.5210
 7089TIP3    H145462   7.331   1.687   1.380 -1.1900  1.3297 -0.0881
 7089TIP3    H245463   7.332   1.834   1.414 -1.3289  0.9070  1.8272
 7090TIP3   OH245464   0.627   5.438   0.665  0.3979  0.3355 -0.3539
 7090TIP3    H145465   0.621   5.439   0.570 -1.0796  2.4749 -0.3126
 7090TIP3    H245466   0.605   5.527   0.692  2.4828  0.2801  1.9391
 7091TIP3   OH245467   5.188   5.816   2.439  0.6433 -0.4763 -0.5554
 7091TIP3    H145468   5.213   5.893   2.490 -0.2502 -1.1251  0.9339
 7091TIP3    H245469   5.270   5.770   2.423  1.0239  0.1062 -0.3098
 7092TIP3   OH245470   5.516   3.200   2.329 -0.0821  0.1620  0.1681
 7092TIP3    H145471   5.476   3.174   2.246  0.1636 -1.7507  0.6062
 7092TIP3    H245472   5.583   3.264   2.305 -0.4481  0.1104 -1.0329
 7093TIP3   OH245473   2.642   0.222   1.795 -0.4311  0.3001  0.2706
 7093TIP3    H145474   2.675   0.304   1.758  0.0982  0.6116  1.3663
 7093TIP3    H245475   2.720   0.166   1.802 -0.9084 -0.5936 -1.1458
 7094TIP3   OH245476   0.992   3.948   1.732  0.4612  0.8963 -0.0771
 7094TIP3    H145477   1.076   3.968   1.690  0.5194  2.2250  0.6424
 7094TIP3    H245478   1.000   3.984   1.820  0.8944 -3.0772  1.7210
 7095TIP3   OH245479   3.210   2.454   1.609 -0.6070 -0.4207 -0.4819
 7095TIP3    H145480   3.146   2.488   1.546 -0.6644 -0.4223 -0.4241
 7095TIP3    H245481   3.185   2.363   1.622  0.4537 -0.9340 -1.8019
 7096TIP3   OH245482   1.464   1.777   0.880 -0.8407  0.3652  0.4796
 7096TIP3    H145483   1.476   1.711   0.812 -2.5247  2.8754 -2.4801
 7096TIP3    H245484   1.381   1.754   0.922 -0.5662 -0.3140  0.6683
 7097TIP3   OH245485   7.165   6.678   2.219 -0.2323 -0.0093  0.0436
 7097TIP3    H145486   7.193   6.657   2.130 -0.3300  0.7689 -0.1772
 7097TIP3    H245487   7.236   6.732   2.254 -0.7691  0.7456 -0.0110
 7098TIP3   OH245488   6.440   6.236   1.019 -0.2021  0.2297 -0.1707
 7098TIP3    H145489   6.474   6.276   1.100  1.4150 -1.6221  0.1601
 7098TIP3    H245490   6.502   6.165   1.000 -1.5613 -0.5375 -2.0516
 7099TIP3   OH245491   2.503   0.577   1.809 -0.1120 -0.3744 -0.5594
 7099TIP3    H145492   2.481   0.558   1.900 -1.2978  1.2725 -0.4609
 7099TIP3    H245493   2.427   0.550   1.759 -0.2305  0.4241 -0.8334
 7100TIP3   OH245494   6.497   5.459   0.868  0.0696 -0.4315 -0.0905
 7100TIP3    H145495   6.456   5.391   0.815 -1.6427  0.3704  0.1412
 7100TIP3    H245496   6.590   5.434   0.871  0.3170 -0.4906 -3.5061
 7101TIP3   OH245497   0.582   4.893   1.538 -0.0254 -0.2746  0.0740
 7101TIP3    H145498   0.643   4.904   1.611  0.6958  0.6681 -0.6421
 7101TIP3    H245499   0.518   4.830   1.569 -0.5791  1.1935  2.0669
 7102TIP3   OH245500   5.655   4.844   1.185  0.4659  0.4330  1.0436
 7102TIP3    H145501   5.689   4.807   1.266  0.6935  0.1361  0.8157
 7102TIP3    H245502   5.704   4.799   1.116  0.4081  0.8182  0.7484
 7103TIP3   OH245503   1.060   5.853   1.448 -0.6059  0.0327 -0.0335
 7103TIP3    H145504   1.030   5.885   1.363 -0.0221  1.7157  0.3357
 7103TIP3    H245505   1.001   5.895   1.511 -0.9629 -1.1094  0.4045
 7104TIP3   OH245506   3.818   5.640   2.129  0.2495  0.6458 -0.1648
 7104TIP3    H145507   3.882   5.612   2.196 -1.5060  0.0866  1.3570
 7104TIP3    H245508   3.814   5.735   2.140 -0.2457  0.5300  0.7667
 7105TIP3   OH245509   1.692   1.103   2.050  0.5028  0.0618  0.1945
 7105TIP3    H145510   1.620   1.155   2.015  1.0795  0.1643 -0.8558
 7105TIP3    H245511   1.720   1.150   2.129  0.1965  0.6509 -0.0445
 7106TIP3   OH245512   1.545   4.884   2.879 -0.2368 -0.1809 -0.1523
 7106TIP3    H145513   1.492   4.942   2.935 -1.1322 -0.9426 -0.1833
 7106TIP3    H245514   1.490   4.869   2.803 -0.2036 -1.4240  0.0563
 7107TIP3   OH245515   7.250   7.357   2.476 -0.0682 -0.2039 -0.0219
 7107TIP3    H145516   7.318   7.310   2.428 -0.9357 -0.1390 -1.3496
 7107TIP3    H245517   7.210   7.291   2.533  1.9666  0.0406  1.8285
 7108TIP3   OH245518   5.444   3.980   1.255  0.0013  0.0058 -0.3543
 7108TIP3    H145519   5.380   4.052   1.247  0.9312  0.8556 -0.3157
 7108TIP3    H245520   5.461   3.954   1.165  0.9232  1.0026 -0.4989
 7109TIP3   OH245521   4.877   0.723   1.847  0.5205  0.0665  0.3874
 7109TIP3    H145522   4.810   0.682   1.793  1.4960  0.7603 -1.4213
 7109TIP3    H245523   4.856   0.816   1.845  2.1427  0.4511 -1.1914
 7110TIP3   OH245524   3.768   4.894   2.221  1.0700 -0.7399 -0.2910
 7110TIP3    H145525   3.707   4.849   2.279  1.3215  0.1849  0.7397
 7110TIP3    H245526   3.737   4.874   2.133  0.1993 -1.5299  0.1761
 7111TIP3   OH245527   2.077   5.338   3.551 -0.0594  0.0713 -0.5908
 7111TIP3    H145528   2.069   5.271   3.482  0.8642 -1.1395  0.4427
 7111TIP3    H245529   2.089   5.288   3.632  2.2511  1.4745  0.0164
 7112TIP3   OH245530   3.288   1.886   0.471 -0.1392  0.0900 -0.0639
 7112TIP3    H145531   3.255   1.822   0.408 -1.7358 -0.5352  1.3296
 7112TIP3    H245532   3.382   1.867   0.478 -0.6014 -2.3350  0.5131
 7113TIP3   OH245533   2.866   6.732   0.672 -0.7123  0.0037 -0.0605
 7113TIP3    H145534   2.809   6.781   0.732  1.3785  2.3633  0.1609
 7113TIP3    H245535   2.913   6.800   0.623 -0.4029 -1.8562 -2.5143
 7114TIP3   OH245536   7.276   2.517   2.650  0.4468  0.4337  0.0447
 7114TIP3    H145537   7.233   2.479   2.574 -1.1901  0.5789  0.8623
 7114TIP3    H245538   7.284   2.610   2.630  0.0776  0.4598  0.0091
 7115TIP3   OH245539   1.599   4.136   1.642 -0.0753  0.3582 -0.1727
 7115TIP3    H145540   1.643   4.202   1.589  2.0817 -1.0897 -0.3498
 7115TIP3    H245541   1.669   4.101   1.699 -1.1985 -1.4761  0.1701
 7116TIP3   OH245542   5.642   5.240   0.673 -0.6020 -0.7936  0.1587
 7116TIP3    H145543   5.734   5.218   0.683 -0.7964 -1.2295  1.1657
 7116TIP3    H245544   5.613   5.191   0.596 -0.3400 -1.8437  0.7122
 7117TIP3   OH245545   2.400   0.008   1.226  0.0393  0.0009 -0.1310
 7117TIP3    H145546   2.483  -0.035   1.246  0.8341  1.9041  0.9167
 7117TIP3    H245547   2.340  -0.064   1.207  1.5686 -1.4945  0.4243
 7118TIP3   OH245548   3.203   5.574   0.908  0.2645  0.1746  0.1890
 7118TIP3    H145549   3.237   5.513   0.842  1.4413  0.0959  0.8565
 7118TIP3    H245550   3.260   5.650   0.902 -0.6471  0.8604 -0.0085
 7119TIP3   OH245551   2.233   1.325   2.891 -0.1055  0.0262  0.4979
 7119TIP3    H145552   2.296   1.380   2.845  1.5222  0.1462  2.7160
 7119TIP3    H245553   2.205   1.261   2.826 -0.1021  1.8407 -1.4278
 7120TIP3   OH245554   1.751   1.784   0.931  0.5004 -0.1573 -0.4528
 7120TIP3    H145555   1.758   1.814   1.022  0.2749 -0.4234 -0.3498
 7120TIP3    H245556   1.659   1.796   0.909  0.7730  1.0176 -1.0275
 7121TIP3   OH245557   0.623   4.860   0.719 -0.8091  0.4205 -0.3090
 7121TIP3    H145558   0.695   4.915   0.748 -1.0368  0.8401 -0.5438
 7121TIP3    H245559   0.545   4.914   0.728 -1.1375 -0.1264  0.2178
 7122TIP3   OH245560   2.049   2.862   2.859  0.1888  0.0444 -0.2692
 7122TIP3    H145561   2.133   2.857   2.811 -0.2167 -1.7233 -0.8969
 7122TIP3    H245562   2.066   2.923   2.930  2.7310 -1.8748  0.9359
 7123TIP3   OH245563   2.135   6.919   0.752 -1.0577  0.3157  0.0811
 7123TIP3    H145564   2.063   6.873   0.709 -0.3870  0.1297 -0.8768
 7123TIP3    H245565   2.104   7.009   0.761 -0.7284  0.7090 -2.0821
 7124TIP3   OH245566   3.797   0.578   2.812  0.2418 -0.4526 -0.1897
 7124TIP3    H145567   3.803   0.483   2.826  0.3376 -0.9195 -2.9004
 7124TIP3    H245568   3.873   0.614   2.858  1.1097 -1.8691 -0.4491
 7125TIP3   OH245569   7.364   3.817   3.274 -0.1446  0.3344  0.1983
 7125TIP3    H145570   7.379   3.799   3.367  1.1218  1.6904  0.2935
 7125TIP3    H245571   7.447   3.795   3.232  0.4222  2.7840 -0.1064
 7126TIP3   OH245572   4.996   4.079   1.775  0.2580 -0.5691 -0.2770
 7126TIP3    H145573   4.912   4.109   1.742  0.3339  0.0652  0.0935
 7126TIP3    H245574   5.008   4.126   1.857  2.0821  1.2352 -1.4817
 7127TIP3   OH245575   4.588   5.282   2.174 -0.5740  0.4833 -0.2325
 7127TIP3    H145576   4.646   5.211   2.149 -2.5486 -0.9772 -0.9708
 7127TIP3    H245577   4.568   5.266   2.267  1.1263  1.7364  0.3977
 7128TIP3   OH245578   4.764   6.517   3.385 -0.7412 -0.0310  0.1919
 7128TIP3    H145579   4.826   6.444   3.394  1.0328  1.6468  3.1043
 7128TIP3    H245580   4.818   6.591   3.358 -1.8712  0.9507  0.5455
 7129TIP3   OH245581   4.463   1.703   0.856  0.5033 -0.6332  0.2022
 7129TIP3    H145582   4.421   1.754   0.926 -0.0638  0.3667 -0.8327
 7129TIP3    H245583   4.500   1.627   0.901  0.1258 -0.0361  1.5833
 7130TIP3   OH245584   2.987   4.382   2.864 -0.1959 -1.1731 -0.7006
 7130TIP3    H145585   2.998   4.288   2.882  0.6511 -0.8405  0.6575
 7130TIP3    H245586   2.933   4.414   2.936 -0.5641 -0.6225 -1.2098
 7131TIP3   OH245587   1.719   0.098   0.358  0.3647 -0.4053  0.2299
 7131TIP3    H145588   1.632   0.066   0.338 -0.1789  0.7446  0.6429
 7131TIP3    H245589   1.706   0.190   0.383  1.4428 -0.7009  2.1344
 7132TIP3   OH245590   2.657   4.984   0.591  0.2870  0.3885  0.2451
 7132TIP3    H145591   2.653   4.910   0.530  0.5141  0.1057  0.5661
 7132TIP3    H245592   2.749   4.986   0.620 -0.1492 -0.5536  1.8663
 7133TIP3   OH245593   2.969   4.446   3.565 -0.0497  0.4166  0.8022
 7133TIP3    H145594   2.938   4.530   3.531  0.0462 -0.2032 -0.9192
 7133TIP3    H245595   3.050   4.429   3.517 -0.5952 -1.1204  0.3361
 7134TIP3   OH245596   0.433   1.333   2.118  0.2189  0.1063  0.2223
 7134TIP3    H145597   0.425   1.241   2.093  3.5338 -0.4200  0.5619
 7134TIP3    H245598   0.493   1.371   2.053 -1.7264  2.3267 -0.4202
 7135TIP3   OH245599   2.123   7.327   1.543 -0.1989  0.5817 -0.3124
 7135TIP3    H145600   2.089   7.416   1.551  1.9497  1.6119 -1.4965
 7135TIP3    H245601   2.161   7.308   1.628 -0.0524  1.1133 -0.2508
 7136TIP3   OH245602   4.952   5.229   0.573 -0.4278  0.3654  0.6724
 7136TIP3    H145603   4.901   5.151   0.552  1.6638 -0.6639 -1.0458
 7136TIP3    H245604   5.031   5.196   0.616  2.1459  0.9450 -3.0395
 7137TIP3   OH245605   2.720   4.314   3.676 -0.6320 -0.1178  0.0280
 7137TIP3    H145606   2.804   4.356   3.664 -0.9817  0.7165  0.4272
 7137TIP3    H245607   2.739   4.237   3.730 -0.4620  1.4803  2.3855
 7138TIP3   OH245608   6.468   6.455   2.789  0.2893  0.4901 -0.1567
 7138TIP3    H145609   6.495   6.382   2.844 -0.9462  0.1576  0.0366
 7138TIP3    H245610   6.417   6.512   2.846  0.6343  1.1381 -0.4821
 7139TIP3   OH245611   1.997   7.003   2.447 -0.2486 -0.5464  0.5836
 7139TIP3    H145612   2.008   7.075   2.510 -1.1921  1.0858 -0.9993
 7139TIP3    H245613   1.903   6.985   2.449  0.1977 -3.1036  2.2977
 7140TIP3   OH245614   6.407   2.863   1.227 -0.7799  0.2621 -0.5964
 7140TIP3    H145615   6.342   2.799   1.199 -0.9602  0.3528 -0.3833
 7140TIP3    H245616   6.412   2.853   1.322 -0.5495  0.3188 -0.6014
 7141TIP3   OH245617   5.673   0.885   1.112  0.1063 -0.4249  0.2801
 7141TIP3    H145618   5.609   0.930   1.056 -0.2653  0.8734  1.6844
 7141TIP3    H245619   5.649   0.793   1.107 -2.0363  0.0460  0.9273
 7142TIP3   OH245620   5.398   7.352   1.947 -0.5945 -0.3189  0.0607
 7142TIP3    H145621   5.480   7.315   1.981 -0.3420 -0.9407 -1.1499
 7142TIP3    H245622   5.332   7.328   2.012 -0.0218 -0.8751  0.4545
 7143TIP3   OH245623   1.909   3.462   2.036  1.0644 -0.2819  0.2968
 7143TIP3    H145624   1.930   3.537   1.979 -1.1628 -0.0987 -0.4142
 7143TIP3    H245625   1.889   3.391   1.975  0.9948 -0.7980  0.9170
 7144TIP3   OH245626   1.080   0.254   1.369  0.1471  0.0926 -0.3078
 7144TIP3    H145627   1.000   0.254   1.422 -0.9208  2.0621 -1.8057
 7144TIP3    H245628   1.059   0.199   1.294  1.0335 -1.2315  0.3800
 7145TIP3   OH245629   7.555   0.154   2.409  0.1083 -0.2375  0.0499
 7145TIP3    H145630   7.545   0.175   2.502  0.8119  0.8939 -0.1080
 7145TIP3    H245631   7.466   0.140   2.377 -0.3756  1.7701  0.3763
 7146TIP3   OH245632   0.401   1.640   2.466  0.4352 -0.0814  0.4312
 7146TIP3    H145633   0.367   1.638   2.555 -0.5171  1.3778  0.1378
 7146TIP3    H245634   0.360   1.565   2.423  0.1793 -0.2609  0.9795
 7147TIP3   OH245635   0.474   5.010   3.112  0.1981  0.4274 -0.1319
 7147TIP3    H145636   0.378   5.017   3.107  0.1858 -0.4810 -2.5794
 7147TIP3    H245637   0.489   4.943   3.179 -0.8053  1.4137  1.1236
 7148TIP3   OH245638   6.441   6.964   3.046  0.5419 -0.4235  0.2765
 7148TIP3    H145639   6.489   6.992   3.125  0.7114  1.4128 -0.4194
 7148TIP3    H245640   6.352   6.997   3.060  0.9756  1.4581 -0.9815
 7149TIP3   OH245641   6.880   5.062   2.086  0.1412 -0.0741 -0.7737
 7149TIP3    H145642   6.928   5.032   2.163 -0.8925  0.9769  0.3287
 7149TIP3    H245643   6.928   5.026   2.012  2.1180  0.2435  0.3059
 7150TIP3   OH245644   4.654   1.910   0.891  0.2987 -0.3351  0.1206
 7150TIP3    H145645   4.721   1.845   0.874  1.0384  0.6426 -0.8160
 7150TIP3    H245646   4.573   1.860   0.897  0.8578 -1.3442 -0.5514
 7151TIP3   OH245647   0.986   6.234   3.016 -0.4470 -0.3874  0.4403
 7151TIP3    H145648   1.064   6.279   3.049 -0.2286  0.2612 -0.8963
 7151TIP3    H245649   0.919   6.302   3.013 -0.4469 -0.4215 -0.4853
 7152TIP3   OH245650   2.760   7.100   1.744 -0.2383 -0.4615 -0.2846
 7152TIP3    H145651   2.778   7.039   1.815 -0.1547 -0.0284  0.0757
 7152TIP3    H245652   2.842   7.148   1.732 -0.4158 -0.1580 -0.3000
 7153TIP3   OH245653   6.772   7.049   1.927 -0.3295  0.2682  0.1310
 7153TIP3    H145654   6.850   7.040   1.872 -0.9503  0.3724 -0.7935
 7153TIP3    H245655   6.708   7.092   1.870 -0.1459  2.9331  1.7913
 7154TIP3   OH245656   3.394   0.117   0.568  0.0862 -0.3597  0.4970
 7154TIP3    H145657   3.398   0.069   0.485  0.5472 -0.5334  0.6150
 7154TIP3    H245658   3.460   0.075   0.623  0.8124  0.6894  0.4590
 7155TIP3   OH245659   5.297   4.004   0.770 -0.3574  0.7691 -0.3118
 7155TIP3    H145660   5.215   3.965   0.739 -0.9086  0.9696  0.8599
 7155TIP3    H245661   5.362   3.980   0.703 -0.8347 -1.5046 -0.0159
 7156TIP3   OH245662   1.052   3.171   2.476  0.3389 -0.0379 -0.2978
 7156TIP3    H145663   1.113   3.244   2.461  3.0889 -1.6599  1.9093
 7156TIP3    H245664   1.018   3.186   2.564  0.0898 -0.8377 -0.2526
 7157TIP3   OH245665   0.242   4.360   2.682 -0.3710 -0.0058 -0.0671
 7157TIP3    H145666   0.248   4.346   2.587 -2.2525  3.1185 -0.8147
 7157TIP3    H245667   0.191   4.441   2.690 -0.4835 -0.3024  3.6593
 7158TIP3   OH245668   7.550   3.628   3.129  0.2071  0.2111  0.1845
 7158TIP3    H145669   7.508   3.554   3.085  0.6957 -0.1496  0.3183
 7158TIP3    H245670   7.564   3.692   3.059 -2.2791  1.1520  0.4510
 7159TIP3   OH245671   2.782   4.050   1.146 -0.3177 -0.4059 -0.2604
 7159TIP3    H145672   2.834   4.105   1.204  0.7409 -0.7193 -0.8871
 7159TIP3    H245673   2.778   4.098   1.063 -1.4831 -0.1425 -0.0627
 7160TIP3   OH245674   6.785   0.624   1.225 -0.0706  0.2689  0.8421
 7160TIP3    H145675   6.794   0.656   1.135  1.7598 -1.8005  0.1892
 7160TIP3    H245676   6.692   0.602   1.233 -0.2721  0.4985 -0.5525
 7161TIP3   OH245677   4.391   3.872   1.160 -0.5966  0.1513 -0.2144
 7161TIP3    H145678   4.331   3.888   1.233  0.2084  1.5363  0.1993
 7161TIP3    H245679   4.339   3.827   1.094 -1.1840 -1.7446  1.4625
 7162TIP3   OH245680   2.408   0.403   0.659  0.0809 -0.0197 -0.0158
 7162TIP3    H145681   2.318   0.375   0.642  0.3725 -0.0388 -1.7160
 7162TIP3    H245682   2.401   0.497   0.676 -0.3243 -0.1439  0.5471
 7163TIP3   OH245683   4.163   0.679   1.683 -0.4010  0.1282  0.0743
 7163TIP3    H145684   4.214   0.738   1.738  1.4009 -0.4642 -0.8814
 7163TIP3    H245685   4.117   0.737   1.623 -0.0134  0.6422  0.2630
 7164TIP3   OH245686   6.007   2.818   0.429 -0.1260  0.1516 -0.3081
 7164TIP3    H145687   5.912   2.811   0.430 -0.1391 -0.0213 -1.6817
 7164TIP3    H245688   6.036   2.744   0.376  0.8292 -0.2397  0.7106
 7165TIP3   OH245689   7.412   3.478   0.602 -0.2447 -0.2911  0.2746
 7165TIP3    H145690   7.338   3.499   0.545 -0.4015 -0.4420  0.4245
 7165TIP3    H245691   7.448   3.563   0.626  1.0215 -0.2128 -1.6097
 7166TIP3   OH245692   1.177   3.832   1.116  0.0797 -0.1340  0.3483
 7166TIP3    H145693   1.086   3.858   1.130  0.0891  0.6673 -0.9513
 7166TIP3    H245694   1.228   3.901   1.158  0.0871  0.1968 -0.1968
 7167TIP3   OH245695   4.357   6.177   0.741  0.0898  0.1393  0.2599
 7167TIP3    H145696   4.316   6.147   0.660  0.2149  0.1124  0.2066
 7167TIP3    H245697   4.304   6.138   0.810  0.0480  0.0727  0.1900
 7168TIP3   OH245698   1.148   2.643   2.145  0.2458  0.2229  0.0782
 7168TIP3    H145699   1.211   2.696   2.195  0.4565 -0.4665  0.5580
 7168TIP3    H245700   1.074   2.702   2.129  0.4877  0.6693  0.5776
 7169TIP3   OH245701   7.184   5.009   0.822  0.2897 -0.0135 -0.5912
 7169TIP3    H145702   7.109   4.984   0.769  0.5041 -0.4102 -0.7119
 7169TIP3    H245703   7.197   4.936   0.883 -0.3421  0.7228  0.4368
 7170TIP3   OH245704   5.808   3.932   2.620 -0.5077 -0.3103  0.8788
 7170TIP3    H145705   5.863   3.893   2.552 -2.1607  1.6784 -1.8507
 7170TIP3    H245706   5.852   3.912   2.702  3.2056 -0.4895 -0.9533
 7171TIP3   OH245707   0.567   0.626   2.194  1.0972 -0.1236 -0.1904
 7171TIP3    H145708   0.577   0.621   2.289 -0.8460 -0.5073  0.0214
 7171TIP3    H245709   0.532   0.713   2.177  0.3535 -0.4558 -0.4244
 7172TIP3   OH245710   0.904   1.221   1.463  0.2367  0.1263 -0.3579
 7172TIP3    H145711   0.900   1.131   1.493  0.6507  0.2186 -0.0195
 7172TIP3    H245712   0.987   1.228   1.416 -0.4908 -0.0684 -1.7166
 7173TIP3   OH245713   6.673   1.175   1.655  0.2896 -0.0994  0.6994
 7173TIP3    H145714   6.712   1.181   1.743  1.1512 -0.1978  0.3312
 7173TIP3    H245715   6.640   1.085   1.651  2.4321 -0.9137  0.0541
 7174TIP3   OH245716   4.851   0.980   2.361 -0.5812  0.5785 -0.3470
 7174TIP3    H145717   4.859   0.968   2.266 -0.5160 -1.7504 -0.1153
 7174TIP3    H245718   4.768   1.025   2.373 -2.2929 -2.0556 -1.4266
 7175TIP3   OH245719   2.460   0.994   2.027  0.0950  0.2457 -0.2868
 7175TIP3    H145720   2.527   0.943   1.983  1.6998  1.1185  1.0567
 7175TIP3    H245721   2.418   0.933   2.087  2.2293  0.4864  1.5597
 7176TIP3   OH245722   2.039   3.717   1.521  0.5953  0.4675  0.2725
 7176TIP3    H145723   1.984   3.639   1.512  0.0494  0.8872 -0.0378
 7176TIP3    H245724   1.990   3.773   1.582  0.8927  0.6556  0.3366
 7177TIP3   OH245725   7.534   6.883   0.476 -0.6004 -0.8233 -0.6825
 7177TIP3    H145726   7.621   6.887   0.437  0.2988 -1.0562  1.1966
 7177TIP3    H245727   7.498   6.799   0.447  0.5977 -1.6241  0.0729
 7178TIP3   OH245728   5.710   7.259   1.807 -0.0197  0.6518 -0.1641
 7178TIP3    H145729   5.705   7.176   1.853 -0.0977  0.3108 -0.7733
 7178TIP3    H245730   5.758   7.317   1.866 -0.5750  0.3822  0.5603
 7179TIP3   OH245731   1.819   1.004   1.372  0.2401 -0.5479 -0.4526
 7179TIP3    H145732   1.861   0.926   1.336  0.8394 -0.7977  0.7235
 7179TIP3    H245733   1.856   1.012   1.460 -0.5841  0.4786 -0.1834
 7180TIP3   OH245734   2.123   4.509   1.436 -0.8192 -0.3989  0.0876
 7180TIP3    H145735   2.060   4.518   1.365  0.3229  0.3969 -0.8733
 7180TIP3    H245736   2.193   4.455   1.400  0.4911  1.2320  0.0264
 7181TIP3   OH245737   1.106   5.432   2.219  0.3671  0.0173  0.4129
 7181TIP3    H145738   1.145   5.492   2.155 -0.6326 -0.8348 -1.0787
 7181TIP3    H245739   1.053   5.489   2.275  1.0647  0.7618  0.3438
 7182TIP3   OH245740   1.645   2.876   0.445  0.0099  0.2683 -0.3234
 7182TIP3    H145741   1.561   2.846   0.411  0.3135  0.2142 -1.0438
 7182TIP3    H245742   1.622   2.942   0.511 -0.5914  1.4553 -1.6568
 7183TIP3   OH245743   4.186   3.760   0.988  0.0592  0.0955  0.2407
 7183TIP3    H145744   4.114   3.702   1.016 -1.0226  0.9378 -0.6900
 7183TIP3    H245745   4.186   3.753   0.893  1.0850  0.2861  0.2232
 7184TIP3   OH245746   6.225   2.145   1.613 -0.0499  0.1238  0.0445
 7184TIP3    H145747   6.144   2.195   1.604 -0.2688 -0.5048 -2.0075
 7184TIP3    H245748   6.195   2.054   1.625  0.3477 -0.0252 -0.0831
 7185TIP3   OH245749   5.838   7.532   1.283  0.3196 -0.2146  0.3635
 7185TIP3    H145750   5.896   7.607   1.292  0.1364 -0.0470  0.1602
 7185TIP3    H245751   5.750   7.569   1.293  0.2469 -0.4608  0.6463
 7186TIP3   OH245752   4.693   4.624   1.528 -0.3577  0.5592 -0.1981
 7186TIP3    H145753   4.742   4.660   1.603 -1.2885  0.1966  0.6027
 7186TIP3    H245754   4.761   4.586   1.472  0.4141  1.3817  0.1475
 7187TIP3   OH245755   3.461   6.554   1.736  0.2604 -0.2653  0.5689
 7187TIP3    H145756   3.461   6.502   1.816  1.0073 -0.5430  0.3933
 7187TIP3    H245757   3.533   6.518   1.684  0.4025  0.5570  0.1891
 7188TIP3   OH245758   5.160   4.604   2.002 -0.2961 -0.4903 -0.2315
 7188TIP3    H145759   5.175   4.536   2.068 -0.0495  0.9622  1.2755
 7188TIP3    H245760   5.183   4.686   2.046  1.2385  0.4395 -2.5572
 7189TIP3   OH245761   3.417   6.292   0.332  0.1088 -0.2100 -0.5489
 7189TIP3    H145762   3.427   6.346   0.254  1.9305 -1.9788 -1.6547
 7189TIP3    H245763   3.459   6.342   0.402  1.3155  0.0439 -1.4274
 7190TIP3   OH245764   6.541   7.166   1.729  0.4115  0.0023 -0.1245
 7190TIP3    H145765   6.624   7.184   1.684  0.6656 -0.2829  0.2256
 7190TIP3    H245766   6.483   7.135   1.659  0.8409 -0.5575 -0.2433
 7191TIP3   OH245767   5.822   1.999   1.880 -0.0160 -0.2943 -0.0130
 7191TIP3    H145768   5.892   1.967   1.822 -0.1323 -1.5571  0.5041
 7191TIP3    H245769   5.791   1.920   1.925 -2.2135  0.1392 -0.6815
 7192TIP3   OH245770   2.297   4.369   1.663 -0.1296 -0.2696 -0.1541
 7192TIP3    H145771   2.277   4.462   1.672 -1.7367 -0.5750 -0.3689
 7192TIP3    H245772   2.338   4.344   1.746 -0.8952  0.3347  0.4072
 7193TIP3   OH245773   3.653   6.802   0.407  0.0545  0.4737  0.2735
 7193TIP3    H145774   3.569   6.807   0.361  0.8349  0.8476 -1.1787
 7193TIP3    H245775   3.672   6.893   0.429  1.6427  0.9089 -2.4505
 7194TIP3   OH245776   5.100   5.618   0.600 -0.1815  0.2140  0.0704
 7194TIP3    H145777   5.128   5.694   0.550 -0.0403  0.2540  0.2127
 7194TIP3    H245778   5.169   5.553   0.587  0.0295  0.3505  0.5079
 7195TIP3   OH245779   5.487   5.512   1.853  0.4367  0.0986  0.0316
 7195TIP3    H145780   5.486   5.515   1.758 -0.4637  0.4714  0.0454
 7195TIP3    H245781   5.553   5.577   1.878 -2.1282  3.0167 -0.2709
 7196TIP3   OH245782   6.087   1.308   1.508 -0.2337  0.7499  0.2394
 7196TIP3    H145783   6.167   1.329   1.555 -0.7456  0.5107  1.2426
 7196TIP3    H245784   6.024   1.284   1.576 -0.4794 -1.3955 -0.6525
 7197TIP3   OH245785   4.178   5.824   2.081 -0.2528 -0.3246  0.0358
 7197TIP3    H145786   4.223   5.785   2.157  0.1544 -0.9983 -0.5341
 7197TIP3    H245787   4.156   5.749   2.026 -2.5577 -0.0722  0.5155
 7198TIP3   OH245788   3.546   7.516   2.059  0.4295  0.3513 -0.1969
 7198TIP3    H145789   3.453   7.539   2.047  0.3901  2.0154  2.5059
 7198TIP3    H245790   3.545   7.444   2.122  0.9950 -0.3341 -0.9416
 7199TIP3   OH245791   1.794   3.633   0.500 -0.2725 -0.2910  0.3710
 7199TIP3    H145792   1.703   3.657   0.484 -0.0672  0.3871  0.1811
 7199TIP3    H245793   1.819   3.683   0.578  0.2176  0.2915 -0.1436
 7200TIP3   OH245794   7.171   1.059   2.392 -0.2677 -0.2207 -0.1132
 7200TIP3    H145795   7.180   1.135   2.449 -3.2668 -0.0038  0.2254
 7200TIP3    H245796   7.119   1.091   2.318  0.7950 -1.2929 -1.3592
 7201TIP3   OH245797   4.162   4.746   1.748 -0.0391  0.1592 -0.2059
 7201TIP3    H145798   4.091   4.810   1.750 -0.1744  0.0331 -0.6757
 7201TIP3    H245799   4.196   4.751   1.659 -1.1906 -1.6338 -0.8057
 7202TIP3   OH245800   3.066   4.978   0.621  0.1231  0.2278  0.3502
 7202TIP3    H145801   3.121   4.907   0.653  0.9253  0.2194 -0.9653
 7202TIP3    H245802   3.127   5.041   0.583 -0.7606 -0.3368 -2.2191
 7203TIP3   OH245803   3.951   4.842   1.589  0.2035 -0.2029 -0.1950
 7203TIP3    H145804   3.949   4.772   1.523  1.1312  0.5914 -1.0942
 7203TIP3    H245805   3.999   4.913   1.547 -1.4129  1.3012  0.3916
 7204TIP3   OH245806   1.373   3.777   0.635 -0.2361 -0.3353  0.0292
 7204TIP3    H145807   1.291   3.790   0.682  1.1172  2.3461  1.9524
 7204TIP3    H245808   1.417   3.862   0.641  3.0486 -1.8726 -0.1497
 7205TIP3   OH245809   2.875   5.687   1.267 -0.6246 -0.5835 -0.2479
 7205TIP3    H145810   2.927   5.626   1.319  0.7395  1.1023  0.4767
 7205TIP3    H245811   2.843   5.634   1.193  0.3513 -2.1871  0.4166
 7206TIP3   OH245812   3.353   4.134   0.656  0.4333  0.1890  0.0154
 7206TIP3    H145813   3.398   4.051   0.643 -0.4424 -0.2056 -0.6498
 7206TIP3    H245814   3.298   4.143   0.578 -0.1772  0.9348  0.5196
 7207TIP3   OH245815   5.798   2.174   2.842  0.4934  0.2658  0.4703
 7207TIP3    H145816   5.750   2.249   2.808 -2.2310 -1.5768 -0.1086
 7207TIP3    H245817   5.747   2.145   2.918  2.5997  0.1310  1.9347
 7208TIP3   OH245818   5.511   5.981   0.979 -0.0686  0.0657 -0.5405
 7208TIP3    H145819   5.488   5.993   1.071 -0.6558  0.4121 -0.7264
 7208TIP3    H245820   5.582   5.916   0.980 -0.0280  0.1164  0.1554
 7209TIP3   OH245821   4.022   4.932   2.321  0.0474 -0.1331 -0.3790
 7209TIP3    H145822   4.076   4.854   2.329 -0.2067 -0.4044 -1.2473
 7209TIP3    H245823   3.954   4.909   2.257 -2.3131 -0.4996  2.0500
 7210TIP3   OH245824   3.047   1.441   0.563 -0.1990  0.5042  0.6573
 7210TIP3    H145825   2.994   1.427   0.642 -0.4606  0.1929  0.4252
 7210TIP3    H245826   3.106   1.512   0.587  1.0631 -0.8674  1.7993
 7211TIP3   OH245827   1.286   4.097   3.096 -0.1680  0.0103  0.2559
 7211TIP3    H145828   1.352   4.149   3.142 -0.9694  1.4171 -0.1184
 7211TIP3    H245829   1.240   4.161   3.041 -2.2198 -0.8093  0.9505
 7212TIP3   OH245830   0.205   5.727   1.146  0.0305  0.3868 -0.3274
 7212TIP3    H145831   0.222   5.637   1.118  0.6898  0.7211 -1.0279
 7212TIP3    H245832   0.118   5.723   1.187  0.3340 -0.6922  0.2569
 7213TIP3   OH245833   1.285   5.279   1.430  0.1471  0.1237 -0.9173
 7213TIP3    H145834   1.268   5.285   1.524  0.5454 -1.4954 -0.7132
 7213TIP3    H245835   1.235   5.352   1.392 -0.0021  0.8110  0.5337
 7214TIP3   OH245836   6.266   1.190   1.793 -0.2090  0.0777  0.2642
 7214TIP3    H145837   6.173   1.190   1.814 -0.2583  0.3074  0.0448
 7214TIP3    H245838   6.310   1.183   1.878 -0.4034  1.0754  0.4576
 7215TIP3   OH245839   0.023   2.828   1.406 -0.3891  0.2813 -0.1527
 7215TIP3    H145840   0.041   2.887   1.480 -0.5421 -0.4411  0.4685
 7215TIP3    H245841   0.101   2.773   1.400 -0.7154 -0.2071  0.0046
 7216TIP3   OH245842   1.142   4.905   1.710 -0.0663  0.1099 -0.2942
 7216TIP3    H145843   1.229   4.865   1.705 -0.0975  0.0922 -0.7893
 7216TIP3    H245844   1.119   4.924   1.619  0.2755  1.9812 -0.0319
 7217TIP3   OH245845   2.336   1.114   1.245 -0.8166 -0.0554  0.0098
 7217TIP3    H145846   2.247   1.148   1.255 -1.4016 -1.8221  1.5829
 7217TIP3    H245847   2.333   1.063   1.164 -0.5650  1.7054 -1.1417
 7218TIP3   OH245848   2.193   1.043   0.716  0.3654  0.3976 -0.0654
 7218TIP3    H145849   2.165   1.133   0.698 -1.8186 -0.2851 -0.3310
 7218TIP3    H245850   2.125   1.007   0.772  2.1811 -0.5550  1.6802
 7219TIP3   OH245851   3.880   5.369   1.524 -0.2415 -0.1501  0.2998
 7219TIP3    H145852   3.967   5.332   1.539  0.4661  0.9865 -0.7635
 7219TIP3    H245853   3.829   5.296   1.490 -0.3549 -1.3653  2.8914
 7220TIP3   OH245854   3.738   0.174   0.460 -0.4052 -0.7276 -0.0189
 7220TIP3    H145855   3.722   0.149   0.368  1.0414 -0.4458 -0.3776
 7220TIP3    H245856   3.697   0.259   0.469  0.0127 -0.4488 -0.6214
 7221TIP3   OH245857   7.092   4.382   0.881 -0.3743  1.1071  0.0528
 7221TIP3    H145858   7.043   4.422   0.810  0.8453  1.1446 -0.7921
 7221TIP3    H245859   7.183   4.405   0.864  0.3458 -1.6455 -0.2232
 7222TIP3   OH245860   1.150   7.332   2.421  0.0859  0.4121 -0.0336
 7222TIP3    H145861   1.145   7.343   2.516 -1.8356 -0.8683  0.0690
 7222TIP3    H245862   1.236   7.294   2.406  0.8536  1.6491  1.0563
 7223TIP3   OH245863   5.538   3.029   0.436 -0.0687  0.1350 -0.0308
 7223TIP3    H145864   5.470   3.051   0.372 -0.5521 -1.1661  0.0041
 7223TIP3    H245865   5.524   3.092   0.507  0.0179  1.1338 -0.8580
 7224TIP3   OH245866   2.093   1.814   1.639 -0.2564 -0.1477 -0.2189
 7224TIP3    H145867   2.054   1.738   1.597  0.1961 -0.4261 -0.1425
 7224TIP3    H245868   2.060   1.889   1.590 -2.1493 -0.2489  0.8094
 7225TIP3   OH245869   5.016   2.472   2.048  0.0810  0.2852 -0.0186
 7225TIP3    H145870   4.943   2.534   2.042 -0.7692 -0.4918  1.6496
 7225TIP3    H245871   5.090   2.519   2.010 -0.8337  1.8484  0.0315
 7226TIP3   OH245872   4.912   4.637   2.240  0.0803 -0.6322  0.0143
 7226TIP3    H145873   4.826   4.596   2.232 -0.7909  1.1607 -0.3328
 7226TIP3    H245874   4.973   4.574   2.203 -1.5183 -0.4993 -3.1477
 7227TIP3   OH245875   2.695   6.178   1.565  0.1962 -0.3464 -0.1663
 7227TIP3    H145876   2.609   6.138   1.550  0.1850 -0.6332  0.6190
 7227TIP3    H245877   2.680   6.240   1.636  0.6692 -0.5260  0.0945
 7228TIP3   OH245878   0.219   4.811   3.188  0.0672 -0.1369 -0.3638
 7228TIP3    H145879   0.231   4.813   3.093  0.3708  0.4313 -0.3198
 7228TIP3    H245880   0.308   4.798   3.222 -0.3170 -2.8436 -0.2123
 7229TIP3   OH245881   7.522   5.633   3.147  0.4471 -0.5535 -0.7517
 7229TIP3    H145882   7.452   5.626   3.082  0.9485  0.3259 -1.4224
 7229TIP3    H245883   7.494   5.578   3.220 -0.7018 -0.5992 -1.2126
 7230TIP3   OH245884   0.838   1.232   2.530  0.3821 -0.0849 -0.1282
 7230TIP3    H145885   0.889   1.207   2.453 -1.1313  0.9981 -1.5394
 7230TIP3    H245886   0.901   1.279   2.586  1.6774 -1.5043 -0.3210
 7231TIP3   OH245887   5.987   2.208   0.840  0.1064 -0.0708  0.8641
 7231TIP3    H145888   5.984   2.252   0.925 -0.6183  2.3456 -0.3246
 7231TIP3    H245889   6.055   2.256   0.791 -0.6033 -0.3622 -0.4431
 7232TIP3   OH245890   3.570   0.459   1.540  0.5275  0.0131  0.8142
 7232TIP3    H145891   3.484   0.417   1.530  0.3081  0.4506  0.8689
 7232TIP3    H245892   3.620   0.398   1.594  1.0169 -1.3678 -1.0970
 7233TIP3   OH245893   1.377   4.732   0.894  0.0670 -0.2854  0.2187
 7233TIP3    H145894   1.288   4.743   0.860  0.0335 -0.6822  0.1695
 7233TIP3    H245895   1.396   4.814   0.939 -0.7475 -0.6179  1.1864
 7234TIP3   OH245896   7.200   3.611   0.459 -0.1197  0.4725  0.5477
 7234TIP3    H145897   7.201   3.661   0.541 -1.6533  1.2187  0.1428
 7234TIP3    H245898   7.263   3.656   0.403  0.8415  0.0365  1.2621
 7235TIP3   OH245899   0.054   2.469   1.251 -0.4814  0.2582  0.2317
 7235TIP3    H145900   0.081   2.520   1.328  0.9393 -0.8759  0.5207
 7235TIP3    H245901   0.133   2.423   1.224 -0.9220  0.6848 -1.9856
 7236TIP3   OH245902   0.925   0.126   2.004  0.5149 -0.1484  0.4347
 7236TIP3    H145903   0.948   0.213   2.037  0.4087 -0.3133  0.9575
 7236TIP3    H245904   0.829   0.125   2.003  0.5058  0.1895 -0.7989
 7237TIP3   OH245905   1.124   3.240   1.869 -0.3650 -0.4840  0.3095
 7237TIP3    H145906   1.035   3.210   1.854  0.6123 -2.5678 -2.1852
 7237TIP3    H245907   1.116   3.334   1.884 -3.0856 -0.9119  2.1414
 7238TIP3   OH245908   6.683   4.862   0.989  0.2100 -0.2499 -0.3278
 7238TIP3    H145909   6.725   4.923   1.050  0.9007  1.3203 -2.2697
 7238TIP3    H245910   6.590   4.873   1.006  0.2991  1.5236 -0.7071
 7239TIP3   OH245911   3.287   6.768   1.049 -0.0959  0.6059  0.4868
 7239TIP3    H145912   3.271   6.862   1.038  0.8884  0.6507 -0.7482
 7239TIP3    H245913   3.339   6.762   1.130  1.2643  1.3102 -0.3025
 7240TIP3   OH245914   1.074   4.427   1.359  0.5105 -0.1164 -1.0053
 7240TIP3    H145915   1.137   4.499   1.364  0.7806 -0.3233 -1.3820
 7240TIP3    H245916   1.047   4.425   1.267  0.2954 -0.3151 -0.9369
 7241TIP3   OH245917   5.823   6.256   0.746 -0.0984  0.2280 -0.3767
 7241TIP3    H145918   5.854   6.240   0.835 -0.9620 -1.0275 -0.2704
 7241TIP3    H245919   5.808   6.351   0.742 -1.3525  0.1368  1.2598
 7242TIP3   OH245920   4.746   4.097   3.460  0.0691 -0.6808  0.2150
 7242TIP3    H145921   4.667   4.104   3.515  1.1498  0.3689  1.7049
 7242TIP3    H245922   4.712   4.084   3.372 -1.8424  1.1112  0.6077
 7243TIP3   OH245923   0.618   1.401   1.909  0.1414  0.4309  0.5154
 7243TIP3    H145924   0.646   1.486   1.875 -0.7359  0.6186  0.2380
 7243TIP3    H245925   0.661   1.337   1.853  1.6976  0.6443  1.4057
 7244TIP3   OH245926   6.547   3.091   0.434 -0.1039 -0.1632  0.3778
 7244TIP3    H145927   6.614   3.036   0.392 -0.4248 -1.5094  1.5585
 7244TIP3    H245928   6.575   3.096   0.525 -0.5485  0.9645  0.4636
 7245TIP3   OH245929   2.851   4.969   2.087 -0.1558  0.4596  0.0793
 7245TIP3    H145930   2.758   4.953   2.104 -0.5614 -0.3172 -2.4085
 7245TIP3    H245931   2.894   4.887   2.111 -0.3384  0.2809 -0.2001
 7246TIP3   OH245932   6.596   6.706   1.299 -0.2249  0.1384  0.2210
 7246TIP3    H145933   6.632   6.783   1.255  1.3096 -0.2929  0.6867
 7246TIP3    H245934   6.531   6.742   1.361 -1.1042  0.8678 -1.0835
 7247TIP3   OH245935   3.199   3.969   2.546 -0.2620 -0.0536 -0.3988
 7247TIP3    H145936   3.267   3.902   2.549 -0.0851  0.0148 -2.1431
 7247TIP3    H245937   3.247   4.051   2.533 -0.5620  0.2638  0.4339
 7248TIP3   OH245938   2.216   5.627   0.542  0.4532  0.6350 -0.1913
 7248TIP3    H145939   2.140   5.572   0.557  0.8100  0.4530  1.1382
 7248TIP3    H245940   2.288   5.565   0.529  0.3839  0.8050 -1.4790
 7249TIP3   OH245941   7.552   6.921   1.197 -1.1069  0.3199  0.1466
 7249TIP3    H145942   7.544   6.911   1.102  1.5135 -0.3695 -0.0925
 7249TIP3    H245943   7.622   6.985   1.208 -2.1027  1.2036  1.6570
 7250TIP3   OH245944   6.473   4.532   3.128  0.2979  1.0212  0.5589
 7250TIP3    H145945   6.443   4.608   3.078 -0.4157 -0.7188 -1.7863
 7250TIP3    H245946   6.552   4.503   3.083 -0.8197 -1.0829 -0.1473
 7251TIP3   OH245947   1.388   4.988   0.673  0.0198  0.1097 -0.2360
 7251TIP3    H145948   1.464   5.034   0.708  0.8191  0.5084 -2.3414
 7251TIP3    H245949   1.335   5.057   0.632 -1.5780 -0.1461  1.2800
 7252TIP3   OH245950   6.570   4.878   1.356  0.5315 -0.3354 -0.5530
 7252TIP3    H145951   6.517   4.957   1.346  0.4598 -0.3489 -0.3007
 7252TIP3    H245952   6.659   4.905   1.334  0.4822 -0.2213 -0.6121
 7253TIP3   OH245953   6.490   7.279   3.334 -0.1544 -0.1961 -0.2160
 7253TIP3    H145954   6.453   7.362   3.361 -1.2324 -0.5168 -0.6504
 7253TIP3    H245955   6.581   7.299   3.310  0.2236  0.4494  1.6423
 7254TIP3   OH245956   4.799   4.396   0.942 -0.8476 -0.0139 -0.0514
 7254TIP3    H145957   4.870   4.408   1.005 -1.1856 -1.2455  0.5937
 7254TIP3    H245958   4.826   4.321   0.890  0.7719  2.5851 -3.3398
 7255TIP3   OH245959   2.031   4.023   1.434  0.5487 -0.5038  0.3468
 7255TIP3    H145960   2.088   3.956   1.469  1.6078  0.2132  0.0483
 7255TIP3    H245961   2.022   4.087   1.505  0.6059 -0.3248  0.1957
 7256TIP3   OH245962   1.088   2.423   1.055  0.3315  0.5321 -0.0691
 7256TIP3    H145963   1.165   2.441   1.110  0.1552  2.5134 -0.3840
 7256TIP3    H245964   1.017   2.408   1.118  0.5080  0.9886  0.2485
 7257TIP3   OH245965   0.295   3.837   1.799 -0.0032  0.3073  0.0432
 7257TIP3    H145966   0.263   3.847   1.888 -0.2101  1.1409 -0.1167
 7257TIP3    H245967   0.377   3.886   1.797 -0.0397  0.3588 -0.2417
 7258TIP3   OH245968   0.927   6.066   2.748  0.1841  0.6911  0.2522
 7258TIP3    H145969   0.920   6.057   2.843 -1.8258  0.5087  0.1314
 7258TIP3    H245970   0.919   6.160   2.732 -1.0469  0.5964  0.2011
 7259TIP3   OH245971   5.540   7.426   0.744 -0.1130  0.0158 -0.0410
 7259TIP3    H145972   5.485   7.379   0.681 -0.2998 -1.1778  0.9758
 7259TIP3    H245973   5.480   7.483   0.791 -0.5560 -1.3703  1.1465
 7260TIP3   OH245974   1.375   5.203   0.925  0.1676  0.0551  0.3181
 7260TIP3    H145975   1.300   5.173   0.874 -0.4091  0.0911  1.1249
 7260TIP3    H245976   1.450   5.193   0.866 -0.4597 -0.0272 -0.4819
 7261TIP3   OH245977   4.454   3.913   0.797  0.2289  0.1435  0.5814
 7261TIP3    H145978   4.529   3.898   0.740 -0.2009  0.4885 -0.0950
 7261TIP3    H245979   4.479   3.987   0.852  0.4942  0.0709  0.5590
 7262TIP3   OH245980   6.743   0.124   1.835 -0.1302 -0.3480 -0.6897
 7262TIP3    H145981   6.742   0.215   1.807 -0.6598 -0.0226  0.3299
 7262TIP3    H245982   6.777   0.075   1.760 -0.9750  0.5427 -1.6693
 7263TIP3   OH245983   1.320   0.679   0.905 -0.4814 -0.1351  0.3564
 7263TIP3    H145984   1.311   0.774   0.912 -0.2980 -0.0448 -0.6104
 7263TIP3    H245985   1.246   0.645   0.956 -1.7263  0.5476 -0.9135
 7264TIP3   OH245986   2.853   2.705   1.922 -0.1366  0.1438 -0.2937
 7264TIP3    H145987   2.861   2.637   1.989 -2.0422 -0.9905 -1.1232
 7264TIP3    H245988   2.851   2.656   1.839  0.8812  1.4173 -1.1116
 7265TIP3   OH245989   0.309   1.735   9.603  0.0546  0.3118  0.1072
 7265TIP3    H145990   0.278   1.675   9.535  1.8589  0.7671 -1.2012
 7265TIP3    H245991   0.394   1.699   9.629 -0.4082  0.4107  1.8115
 7266TIP3   OH245992   0.341   0.664   1.887 -0.0033  0.5024 -0.6143
 7266TIP3    H145993   0.330   0.741   1.831 -1.6509  0.8587  0.1500
 7266TIP3    H245994   0.318   0.590   1.831 -0.0855  0.7131 -0.8611
 7267TIP3   OH245995   6.525   7.076   0.896  0.1213  0.2664 -0.4395
 7267TIP3    H145996   6.592   7.139   0.868 -0.5941  0.3362 -2.1054
 7267TIP3    H245997   6.468   7.067   0.820 -2.0850  0.6015  1.0894
 7268TIP3   OH245998   0.247   4.720   1.834 -0.0376  0.6412 -0.2478
 7268TIP3    H145999   0.310   4.697   1.902  0.0863  0.0132 -0.5641
 7268TIP3    H246000   0.163   4.690   1.869  0.3256 -1.8547 -1.3196
 7269TIP3   OH246001   1.671   5.371   2.264 -0.1739  0.0132  0.4323
 7269TIP3    H146002   1.713   5.296   2.305 -1.4021 -0.4607  0.8702
 7269TIP3    H246003   1.578   5.353   2.270 -0.5133  1.7029  0.7911
 7270TIP3   OH246004   5.178   0.120   1.834 -0.1601  0.0504  0.4311
 7270TIP3    H146005   5.147   0.193   1.780 -0.3892  0.0125  0.5120
 7270TIP3    H246006   5.231   0.162   1.902 -1.5617  0.3071  1.4218
 7271TIP3   OH246007   1.487   5.325   2.029  0.2160  0.3391  0.0670
 7271TIP3    H146008   1.492   5.396   1.965 -1.1095  0.1294 -0.3001
 7271TIP3    H246009   1.436   5.362   2.101 -0.4408 -0.2124 -0.1060
 7272TIP3   OH246010   3.873   5.903   2.159 -0.6347  0.2838  0.8013
 7272TIP3    H146011   3.911   5.962   2.224  0.6760 -1.1593  1.3910
 7272TIP3    H246012   3.915   5.927   2.076 -0.9254  0.8875  0.8238
 7273TIP3   OH246013   2.061   4.473   3.337  0.1970 -0.4134 -0.3446
 7273TIP3    H146014   2.136   4.511   3.291 -0.8923  0.9787 -1.0527
 7273TIP3    H246015   2.034   4.399   3.282  0.0920  0.0655 -0.9534
 7274TIP3   OH246016   7.049   0.973   0.798  0.0143 -0.1007 -0.0344
 7274TIP3    H146017   7.071   0.934   0.882 -2.1298 -0.6303  0.3249
 7274TIP3    H246018   7.054   0.901   0.735 -1.5814 -0.4716  0.2250
 7275TIP3   OH246019   3.998   0.854   1.536 -0.1765 -0.4419 -0.6741
 7275TIP3    H146020   3.918   0.811   1.566 -1.2589  1.1503 -1.1450
 7275TIP3    H246021   3.984   0.947   1.557  0.6164  0.1789 -2.6705
 7276TIP3   OH246022   4.666   0.943   1.943  0.3515  0.0020 -0.2584
 7276TIP3    H146023   4.620   0.861   1.961 -1.1087  0.5924 -1.1841
 7276TIP3    H246024   4.602   1.012   1.963  1.6558  0.9629  0.8211
 7277TIP3   OH246025   4.740   3.104   1.711  0.0805  0.1991 -0.0717
 7277TIP3    H146026   4.745   3.098   1.616 -0.0032  1.0811 -0.1404
 7277TIP3    H246027   4.814   3.051   1.742  0.7149  0.7179 -0.6614
 7278TIP3   OH246028   5.634   5.170   2.946  0.2036 -0.2572 -0.2058
 7278TIP3    H146029   5.723   5.182   2.979  1.2638  0.5555 -3.0505
 7278TIP3    H246030   5.624   5.076   2.936  0.7786 -0.3466  0.0353
 7279TIP3   OH246031   5.273   3.294   1.849  0.3534  0.1208  0.3088
 7279TIP3    H146032   5.258   3.207   1.814 -1.5267  0.2500  0.7173
 7279TIP3    H246033   5.335   3.334   1.788 -1.2544 -0.3626 -1.7387
 7280TIP3   OH246034   4.424   2.261   1.035  0.0767  0.8605 -0.5822
 7280TIP3    H146035   4.383   2.307   0.962  1.4511  1.4223 -1.0373
 7280TIP3    H246036   4.501   2.314   1.055  0.9804 -0.5556 -0.2427
 7281TIP3   OH246037   3.329   1.079   1.831 -0.3146  0.2864  0.4949
 7281TIP3    H146038   3.291   0.995   1.805  1.3575 -0.7426  1.2410
 7281TIP3    H246039   3.376   1.109   1.754 -0.7093  0.4227  0.3055
 7282TIP3   OH246040   5.983   5.569   0.401 -0.0011  0.3736  0.3302
 7282TIP3    H146041   5.989   5.604   0.312  1.9782 -1.6981 -0.4567
 7282TIP3    H246042   5.891   5.542   0.410 -0.2440  0.6613 -1.0700
 7283TIP3   OH246043   6.185   3.970   2.780  0.1686 -0.3450 -0.0797
 7283TIP3    H146044   6.104   3.977   2.831  1.2410  0.4746  1.5886
 7283TIP3    H246045   6.156   3.970   2.689 -1.7420 -0.6227  0.4857
 7284TIP3   OH246046   0.484   1.273   0.492 -0.2846  0.4616 -0.4443
 7284TIP3    H146047   0.516   1.190   0.459  0.2128  0.6504 -0.4439
 7284TIP3    H246048   0.389   1.266   0.486 -0.3832 -1.0484  1.7962
 7285TIP3   OH246049   4.922   4.512   1.851  0.0282 -0.3985 -0.3176
 7285TIP3    H146050   4.903   4.595   1.809  0.7056  0.7828  1.5624
 7285TIP3    H246051   5.001   4.529   1.903  1.1206 -2.6684 -1.1076
 7286TIP3   OH246052   6.032   3.094   2.771 -0.4821 -0.2117  0.0225
 7286TIP3    H146053   5.976   3.091   2.693 -1.3946  0.4945  0.6319
 7286TIP3    H246054   6.077   3.009   2.771 -1.0377 -0.5214 -0.8577
 7287TIP3   OH246055   2.374   4.436   1.983  0.2770 -0.7915  0.2528
 7287TIP3    H146056   2.372   4.426   2.078 -0.3159 -1.4013  0.1848
 7287TIP3    H246057   2.299   4.492   1.963  0.4093 -0.6512  0.1441
 7288TIP3   OH246058   0.747   5.666   1.548  0.7063  0.0743  0.3062
 7288TIP3    H146059   0.667   5.718   1.546  1.1339  0.7529  0.0985
 7288TIP3    H246060   0.814   5.728   1.580  1.4884  0.0179 -1.1251
 7289TIP3   OH246061   3.292   1.158   2.921 -0.1067 -0.3577  0.4369
 7289TIP3    H146062   3.356   1.218   2.883 -0.5899  0.5817  1.0604
 7289TIP3    H246063   3.248   1.209   2.989 -0.2533 -1.5454  1.2745
 7290TIP3   OH246064   5.753   2.606   0.406 -0.0476 -0.0302 -0.3275
 7290TIP3    H146065   5.725   2.679   0.351 -0.1558  0.0838 -0.1255
 7290TIP3    H246066   5.679   2.591   0.466  0.3238  0.2889  0.2245
 7291TIP3   OH246067   6.142   0.418   2.305  0.3674  0.2794 -0.1900
 7291TIP3    H146068   6.111   0.479   2.238 -1.1831  0.3550  0.5611
 7291TIP3    H246069   6.120   0.459   2.388  0.3422 -0.7672  0.3397
 7292TIP3   OH246070   6.572   4.132   1.640 -0.1435  0.5134 -0.3010
 7292TIP3    H146071   6.626   4.151   1.563  0.4960  0.9021  0.2362
 7292TIP3    H246072   6.634   4.110   1.709 -0.7398 -0.6699 -0.0987
 7293TIP3   OH246073   1.028   5.555   3.086 -0.7802 -0.6472 -0.2936
 7293TIP3    H146074   1.086   5.596   3.022 -0.9628  0.8451  0.4590
 7293TIP3    H246075   1.025   5.463   3.060  0.0046 -0.2819 -1.7689
 7294TIP3   OH246076   0.322   0.232   0.690  0.1561 -0.2548 -0.1773
 7294TIP3    H146077   0.374   0.197   0.617  0.1291 -0.9075  0.1137
 7294TIP3    H246078   0.296   0.319   0.660  0.8989 -0.1595 -0.5832
 7295TIP3   OH246079   5.668   6.547   1.141  0.8370 -0.0968 -0.8558
 7295TIP3    H146080   5.668   6.456   1.170 -0.6246 -0.1951 -1.0970
 7295TIP3    H246081   5.576   6.566   1.120  0.7432  2.0507  1.1356
 7296TIP3   OH246082   3.560   1.413   1.574  0.2812 -0.7709 -0.2136
 7296TIP3    H146083   3.563   1.359   1.653  1.9194  1.5106  1.4038
 7296TIP3    H246084   3.652   1.432   1.554 -0.2031  2.1368 -0.1095
 7297TIP3   OH246085   0.746   6.747   0.637  0.0699  0.1499  0.1806
 7297TIP3    H146086   0.699   6.823   0.601  1.7902  0.8664 -0.6399
 7297TIP3    H246087   0.697   6.672   0.603 -0.8645  0.8759 -0.1316
 7298TIP3   OH246088   3.502   1.261   2.528 -0.1357  0.0871 -0.2690
 7298TIP3    H146089   3.577   1.208   2.500  0.6586  2.0304 -2.0442
 7298TIP3    H246090   3.530   1.299   2.611  0.1792 -0.4504 -0.1189
 7299TIP3   OH246091   2.226   5.057   0.607 -0.7812  0.2345 -0.6338
 7299TIP3    H146092   2.139   5.051   0.647  0.2180 -1.5724  1.4889
 7299TIP3    H246093   2.249   5.150   0.613 -1.0293  0.2004  2.4707
 7300TIP3   OH246094   6.410   3.842   2.834 -0.0571 -0.3270 -0.4195
 7300TIP3    H146095   6.332   3.892   2.811  0.3398  1.5342  1.9309
 7300TIP3    H246096   6.376   3.758   2.865 -1.2317  0.6650  1.1457
 7301TIP3   OH246097   6.857   3.760   1.533  0.2420 -0.5364 -0.0625
 7301TIP3    H146098   6.763   3.772   1.521  0.7606  1.1469 -3.9262
 7301TIP3    H246099   6.865   3.684   1.590 -3.4997 -2.4338 -1.7610
 7302TIP3   OH246100   5.247   6.650   0.556 -0.1169  0.2300  0.1506
 7302TIP3    H146101   5.329   6.602   0.549  0.7267  1.7154 -0.5943
 7302TIP3    H246102   5.233   6.661   0.651  1.5350  1.5451  0.2883
 7303TIP3   OH246103   5.892   6.369   2.394  0.6473 -0.1726  0.4424
 7303TIP3    H146104   5.854   6.457   2.404  2.1415  0.5876 -0.2369
 7303TIP3    H246105   5.862   6.340   2.308  2.4990  0.9449 -0.6456
 7304TIP3   OH246106   6.141   1.424   2.462  0.0177  0.1772 -0.1593
 7304TIP3    H146107   6.095   1.488   2.407 -1.0274 -1.5477 -1.3904
 7304TIP3    H246108   6.083   1.412   2.537  1.1910  2.1292  1.1554
 7305TIP3   OH246109   6.795   0.722   0.360 -0.6418 -0.5907 -0.0987
 7305TIP3    H146110   6.703   0.707   0.340 -0.6090  0.5942 -1.2328
 7305TIP3    H246111   6.829   0.635   0.381 -1.6472 -1.3104 -1.2814
 7306TIP3   OH246112   2.436   5.713   0.758  0.3439  0.3461 -0.5780
 7306TIP3    H146113   2.530   5.715   0.739  0.1788 -0.2189 -1.4978
 7306TIP3    H246114   2.397   5.670   0.682 -0.5374 -0.4446  0.2956
 7307TIP3   OH246115   6.346   4.939   1.985 -0.1385 -0.0952  0.1316
 7307TIP3    H146116   6.400   4.911   1.910  1.7950  2.2323  0.5279
 7307TIP3    H246117   6.403   4.998   2.035 -2.2189  0.4049  2.0781
 7308TIP3   OH246118   2.687   6.487   1.193  0.2864  0.1114  0.4664
 7308TIP3    H146119   2.730   6.569   1.217 -0.1224  0.2255  0.8257
 7308TIP3    H246120   2.608   6.514   1.146  0.7020 -0.0985 -0.3725
 7309TIP3   OH246121   5.945   7.241   0.420 -0.1774 -0.4401 -0.1013
 7309TIP3    H146122   5.872   7.280   0.373  0.1832 -1.2233 -1.3740
 7309TIP3    H246123   5.915   7.235   0.511 -0.7772  1.4014 -0.1438
 7310TIP3   OH246124   5.543   5.684   2.848 -0.2656 -0.0583 -0.3052
 7310TIP3    H146125   5.472   5.740   2.879  0.8942  1.0120  0.5241
 7310TIP3    H246126   5.527   5.600   2.890  0.5358  0.9863  2.3612
 7311TIP3   OH246127   3.088   2.042   1.148 -0.1409 -0.2384 -0.3129
 7311TIP3    H146128   3.094   1.972   1.083  0.4532  1.0141 -1.6636
 7311TIP3    H246129   3.180   2.063   1.168 -0.3147 -0.7580  1.1250
 7312TIP3   OH246130   5.277   2.323   0.816  0.6167 -0.7202  0.2248
 7312TIP3    H146131   5.260   2.391   0.751  3.0661 -0.9539 -0.7486
 7312TIP3    H246132   5.272   2.241   0.767  0.6674 -1.0406  0.7473
 7313TIP3   OH246133   2.826   2.424   2.383  0.2400 -0.0522 -0.1854
 7313TIP3    H146134   2.793   2.366   2.315 -1.4146  0.9916 -0.3293
 7313TIP3    H246135   2.756   2.426   2.449  0.5877  1.1874  0.1695
 7314TIP3   OH246136   5.077   2.831   0.646  0.2576 -0.0386  0.1185
 7314TIP3    H146137   5.063   2.846   0.740  0.1197 -0.9185  0.2552
 7314TIP3    H246138   5.144   2.893   0.621  0.3491  0.1567  0.8246
 7315TIP3   OH246139   2.747   6.114   3.403 -0.5957 -0.2212  0.0570
 7315TIP3    H146140   2.658   6.137   3.430 -0.7594  0.5161 -1.0230
 7315TIP3    H246141   2.787   6.198   3.380  0.0161 -0.6565 -0.5133
 7316TIP3   OH246142   7.040   7.199   2.732  0.0685 -0.1857 -0.1958
 7316TIP3    H146143   7.131   7.172   2.722  0.6887  1.2901  1.0002
 7316TIP3    H246144   7.032   7.225   2.824 -1.7154 -0.7851 -0.1402
 7317TIP3   OH246145   5.812   0.823   2.628  0.1830 -0.2290  0.3453
 7317TIP3    H146146   5.905   0.813   2.650  0.3121  1.5899  0.8216
 7317TIP3    H246147   5.778   0.734   2.626  2.2151 -1.0681 -1.1406
 7318TIP3   OH246148   4.984   3.507   2.386  0.4853  0.7040  0.3225
 7318TIP3    H146149   4.993   3.491   2.480 -0.0601  2.3208  0.6761
 7318TIP3    H246150   5.011   3.598   2.375  0.1561  0.6518 -1.0380
 7319TIP3   OH246151   1.248   6.186   0.616  0.8131  0.2168 -0.2780
 7319TIP3    H146152   1.232   6.280   0.614  0.3898  0.1679  0.4741
 7319TIP3    H246153   1.204   6.152   0.538  0.0377  0.5105  0.0214
 7320TIP3   OH246154   6.635   5.123   1.692  0.3345 -0.0667 -0.0663
 7320TIP3    H146155   6.624   5.187   1.761  2.0770 -0.0533  0.2644
 7320TIP3    H246156   6.730   5.114   1.683  0.1398 -1.8075 -0.8326
 7321TIP3   OH246157   5.152   0.406   2.451  0.3121 -0.2212 -0.0579
 7321TIP3    H146158   5.236   0.363   2.432  0.0403 -0.6677 -0.2575
 7321TIP3    H246159   5.175   0.478   2.510  0.9412  0.1295 -0.7207
 7322TIP3   OH246160   2.643   4.438   1.775  0.0284  0.1121  0.0238
 7322TIP3    H146161   2.671   4.522   1.810  0.1549  0.4474 -0.8595
 7322TIP3    H246162   2.553   4.427   1.807  0.0561  0.5189  0.2392
 7323TIP3   OH246163   2.414   7.012   2.511  0.0039  0.1194  0.2261
 7323TIP3    H146164   2.403   7.037   2.603 -1.4451 -0.6666  0.2928
 7323TIP3    H246165   2.350   7.066   2.464  1.2175  1.0272 -0.4328
 7324TIP3   OH246166   5.534   5.415   2.971  0.2636  0.5101  0.0885
 7324TIP3    H146167   5.624   5.433   2.997  0.9809 -1.0145 -1.1892
 7324TIP3    H246168   5.534   5.323   2.944 -1.4020  0.7906 -1.0479
 7325TIP3   OH246169   3.876   4.694   1.101  0.0659 -0.3116 -0.4913
 7325TIP3    H146170   3.788   4.675   1.133  0.4180 -1.1508  0.0121
 7325TIP3    H246171   3.862   4.736   1.016 -0.8153 -0.3221 -0.3616
 7326TIP3   OH246172   7.016   0.047   0.566  0.0774 -0.7431  0.0958
 7326TIP3    H146173   7.002   0.141   0.559  2.2193 -0.4249 -0.9698
 7326TIP3    H246174   7.029   0.031   0.660 -1.8254 -0.2712  0.4657
 7327TIP3   OH246175   5.906   7.187   0.684  0.2832 -0.0060 -0.1559
 7327TIP3    H146176   5.967   7.114   0.677 -1.7548 -1.8323  0.4228
 7327TIP3    H246177   5.926   7.227   0.769 -0.4661 -1.7049  0.8631
 7328TIP3   OH246178   7.513   0.068   0.910 -0.2688  0.0412 -0.1686
 7328TIP3    H146179   7.524   0.114   0.827  0.1392 -0.9465 -0.6906
 7328TIP3    H246180   7.430   0.021   0.901  0.0587 -0.5285 -0.2570
 7329TIP3   OH246181   0.912   5.252   2.262  0.8253  0.0970 -0.2010
 7329TIP3    H146182   0.989   5.299   2.229 -0.0181  1.0085 -0.9266
 7329TIP3    H246183   0.850   5.255   2.190 -0.4375  0.6285  0.8811
 7330TIP3   OH246184   7.312   0.040   2.355  0.4017  0.1208  0.2404
 7330TIP3    H146185   7.297  -0.043   2.400  0.6060  0.6121  1.2462
 7330TIP3    H246186   7.235   0.093   2.376  1.6525  1.2740  2.2150
 7331TIP3   OH246187   0.593   2.340   1.938 -0.2406 -0.1270 -0.1416
 7331TIP3    H146188   0.616   2.255   1.902 -2.0298 -1.6812  2.0904
 7331TIP3    H246189   0.619   2.335   2.031 -2.9157  0.6318  0.7314
 7332TIP3   OH246190   3.188   2.918   0.480  0.5122  0.1441 -0.6228
 7332TIP3    H146191   3.248   2.992   0.469  1.0162  0.0630  1.3153
 7332TIP3    H246192   3.245   2.843   0.494  0.0011  0.0197  0.9830
 7333TIP3   OH246193   7.362   2.795   2.595  0.9190  0.1214 -0.2060
 7333TIP3    H146194   7.434   2.841   2.639 -0.9985  1.8245  1.3636
 7333TIP3    H246195   7.321   2.862   2.541 -0.6611 -0.2326  0.4810
 7334TIP3   OH246196   5.232   6.645   0.826  0.1528  0.1564 -0.5346
 7334TIP3    H146197   5.256   6.552   0.824 -1.2833 -0.2347 -1.9729
 7334TIP3    H246198   5.228   6.667   0.919  1.5926 -0.9043 -0.1806
 7335TIP3   OH246199   2.782   7.467   3.161  0.4767 -0.3938  0.5345
 7335TIP3    H146200   2.749   7.391   3.210  1.9632 -0.7325  1.0608
 7335TIP3    H246201   2.725   7.539   3.187 -0.3438 -1.1135  0.7854
 7336TIP3   OH246202   0.033   7.012   2.406  0.1166 -0.5759  0.4510
 7336TIP3    H146203   0.054   7.029   2.498  2.1648 -0.7519  0.0635
 7336TIP3    H246204   0.113   7.037   2.358 -0.6751 -1.0935 -1.2231
 7337TIP3   OH246205   7.510   0.670   1.118  0.0397  0.3161 -0.4813
 7337TIP3    H146206   7.460   0.646   1.196  0.3963 -2.5029 -1.0083
 7337TIP3    H246207   7.599   0.683   1.151 -0.0360  0.2897 -0.2586
 7338TIP3   OH246208   6.256   0.136   1.548 -0.7863  0.3550 -0.0460
 7338TIP3    H146209   6.313   0.075   1.502 -0.1298  1.2097 -0.4030
 7338TIP3    H246210   6.312   0.175   1.615 -1.1231  0.7379  0.0201
 7339TIP3   OH246211   6.427   0.242   1.768 -0.3963 -0.7038  0.4017
 7339TIP3    H146212   6.376   0.264   1.846 -0.6121 -0.3974  0.1790
 7339TIP3    H246213   6.448   0.326   1.729  1.3652 -0.7549  1.1559
 7340TIP3   OH246214   0.059   1.149   1.646 -0.3837  0.1850  0.0217
 7340TIP3    H146215   0.129   1.172   1.585 -0.3627 -1.9912 -0.9003
 7340TIP3    H246216   0.054   1.222   1.707  0.6058  1.7790 -1.7128
 7341TIP3   OH246217   5.049   2.939   1.507  0.0098 -0.0606 -0.1299
 7341TIP3    H146218   5.129   2.938   1.454 -1.3438  0.8090 -2.3481
 7341TIP3    H246219   5.009   2.854   1.490  0.8026 -0.8339  1.6398
 7342TIP3   OH246220   0.566   0.986   1.247  0.1153 -0.6181  0.3445
 7342TIP3    H146221   0.607   0.934   1.316  1.3844  1.4672  1.2794
 7342TIP3    H246222   0.478   1.004   1.279  0.0413 -1.2573  0.5100
 7343TIP3   OH246223   6.996   4.546   0.685 -0.3491  0.2505 -0.0222
 7343TIP3    H146224   6.995   4.508   0.597  0.5317  1.7353 -0.7189
 7343TIP3    H246225   6.918   4.603   0.687 -1.8552 -1.7217  1.1312
 7344TIP3   OH246226   0.046   0.350   0.404 -0.2203  0.0037  0.3560
 7344TIP3    H146227  -0.029   0.289   0.408 -0.1644 -0.0658  0.3424
 7344TIP3    H246228   0.078   0.354   0.494  0.3695 -0.7274  0.1895
 7345TIP3   OH246229   1.471   6.120   1.907  0.1286  0.5334 -0.2439
 7345TIP3    H146230   1.491   6.192   1.966 -1.0498  1.6518 -1.1497
 7345TIP3    H246231   1.543   6.119   1.844 -0.4738  1.7804 -0.9871
 7346TIP3   OH246232   7.503   1.867   3.231 -0.4250  0.4832  0.2676
 7346TIP3    H146233   7.574   1.879   3.294 -1.9230  0.1956  2.1062
 7346TIP3    H246234   7.515   1.778   3.197  0.9482  0.9847 -0.6261
 7347TIP3   OH246235   6.017   2.532   1.026  0.0186 -0.0815 -0.0301
 7347TIP3    H146236   5.934   2.508   0.984  0.8517 -1.1614 -1.1602
 7347TIP3    H246237   6.048   2.607   0.976  0.1718 -0.2794 -0.2368
 7348TIP3   OH246238   7.499   5.800   2.863  0.4895 -0.0351  0.1265
 7348TIP3    H146239   7.589   5.813   2.894  0.4930 -0.3911  0.2615
 7348TIP3    H246240   7.462   5.734   2.921  0.7144 -1.2192 -1.0445
 7349TIP3   OH246241   3.089   2.338   3.144 -0.1677  0.3977  0.4301
 7349TIP3    H146242   3.009   2.387   3.124 -0.5927 -0.1136  0.8217
 7349TIP3    H246243   3.057   2.255   3.179  0.5412  0.1088  0.4055
 7350TIP3   OH246244   7.363   3.903   1.265 -0.2285  0.1782  0.1536
 7350TIP3    H146245   7.353   3.860   1.350 -2.9386  0.5488  0.1134
 7350TIP3    H246246   7.458   3.910   1.252  0.2722  0.6037  3.3708
 7351TIP3   OH246247   5.519   3.076   3.180 -0.0204  0.0425  0.3304
 7351TIP3    H146248   5.612   3.061   3.168 -0.0160  0.6974 -0.5090
 7351TIP3    H246249   5.502   3.160   3.137 -1.1952 -0.5814 -0.4686
 7352TIP3   OH246250   6.265   5.307   1.878  0.7433 -0.6620 -0.2759
 7352TIP3    H146251   6.177   5.275   1.896 -0.2987  1.3068 -1.4931
 7352TIP3    H246252   6.284   5.277   1.789 -0.4329  2.1920 -1.6148
 7353TIP3   OH246253   0.592   3.279   1.907  0.7262 -0.1678  0.6448
 7353TIP3    H146254   0.657   3.323   1.962 -0.4518  1.0095  1.1508
 7353TIP3    H246255   0.603   3.317   1.820  1.1093 -0.4208  0.5797
 7354TIP3   OH246256   5.476   2.495   1.187 -0.5360  0.6439 -0.2009
 7354TIP3    H146257   5.517   2.495   1.101  0.0763  0.8448  0.0902
 7354TIP3    H246258   5.397   2.441   1.175 -0.6707  0.9928 -0.9807
 7355TIP3   OH246259   7.305   4.432   2.667 -0.2214 -0.4007 -0.1929
 7355TIP3    H146260   7.296   4.363   2.732  0.6190 -0.3412 -0.0109
 7355TIP3    H246261   7.247   4.501   2.698  0.6869 -0.0926  0.8624
 7356TIP3   OH246262   7.161   5.597   3.273 -0.7143 -0.5667  0.3237
 7356TIP3    H146263   7.233   5.535   3.257 -1.6933 -2.4554  2.6228
 7356TIP3    H246264   7.204   5.682   3.278  1.3044 -1.5474  0.9663
 7357TIP3   OH246265   3.875   3.551   0.705  0.4195 -0.3051 -0.4551
 7357TIP3    H146266   3.941   3.587   0.646  0.2354 -0.6243 -0.8652
 7357TIP3    H246267   3.877   3.608   0.781  0.4402  0.3138 -0.9120
 7358TIP3   OH246268   7.075   3.094   1.823  0.5441 -0.0704  0.2833
 7358TIP3    H146269   7.017   3.077   1.896  1.4486 -0.0744  1.0238
 7358TIP3    H246270   7.036   3.047   1.749  0.3148 -1.1550  1.0709
 7359TIP3   OH246271   0.772   4.014   3.012 -0.1543 -0.2642 -0.0141
 7359TIP3    H146272   0.867   4.016   3.009 -0.0729 -0.4056  1.5763
 7359TIP3    H246273   0.745   3.987   2.924  1.2499  0.0864 -0.5685
 7360TIP3   OH246274   2.594   3.674   0.939  0.5193 -0.8083 -0.1761
 7360TIP3    H146275   2.586   3.756   0.891 -0.0145 -0.5545  0.3293
 7360TIP3    H246276   2.551   3.691   1.023 -0.4347 -1.8952 -0.4146
 7361TIP3   OH246277   3.732   2.611   2.171 -0.5267  0.0283  0.0890
 7361TIP3    H146278   3.789   2.613   2.248  0.2818  0.0433 -0.4965
 7361TIP3    H246279   3.785   2.570   2.102 -0.7914  1.1400 -0.8054
 7362TIP3   OH246280   7.393   1.307   0.940 -0.2880 -0.8481 -0.3617
 7362TIP3    H146281   7.361   1.276   1.024  2.1882 -1.6557  0.3903
 7362TIP3    H246282   7.401   1.228   0.887  0.5109 -0.7142 -0.4632
 7363TIP3   OH246283   1.551   4.388   0.734 -0.2896  0.4552  0.6352
 7363TIP3    H146284   1.498   4.409   0.657  0.4560 -0.6388 -0.2298
 7363TIP3    H246285   1.577   4.296   0.720  0.5489  0.4962  1.7811
 7364TIP3   OH246286   1.777   2.864   0.955  0.5935 -0.0229 -0.3635
 7364TIP3    H146287   1.814   2.952   0.953  1.5051 -0.3964 -1.9053
 7364TIP3    H246288   1.852   2.805   0.945 -0.1422 -0.8887 -1.0643
 7365TIP3   OH246289   0.896   6.441   1.319 -0.5633 -0.4573 -0.2615
 7365TIP3    H146290   0.823   6.379   1.318  0.6940 -2.0071 -0.7561
 7365TIP3    H246291   0.970   6.390   1.352  1.0769  0.0607 -2.8172
 7366TIP3   OH246292   2.841   7.546   1.522  0.2906 -0.3567  0.5913
 7366TIP3    H146293   2.862   7.540   1.615  1.5332  1.4928  0.4816
 7366TIP3    H246294   2.788   7.625   1.514 -0.6763 -1.0511 -0.1665
 7367TIP3   OH246295   5.361   2.453   2.096 -0.3577  0.7484  0.2609
 7367TIP3    H146296   5.329   2.424   2.011 -0.4956 -0.5689  0.7303
 7367TIP3    H246297   5.346   2.378   2.154  1.3573  0.9638  1.0423
 7368TIP3   OH246298   4.917   6.832   1.028  0.4497 -0.5887 -0.3424
 7368TIP3    H146299   4.872   6.811   1.109  0.0119  0.0848 -0.3993
 7368TIP3    H246300   4.889   6.765   0.966  0.1746 -0.6485 -0.1501
 7369TIP3   OH246301   6.299   4.046   1.308  0.3724  0.2768  0.6409
 7369TIP3    H146302   6.317   3.977   1.245 -1.2273  1.5719 -1.3827
 7369TIP3    H246303   6.353   4.120   1.279  1.9123  0.0190  2.6479
 7370TIP3   OH246304   1.788   1.442   2.039  0.2564  0.1385 -0.1633
 7370TIP3    H146305   1.830   1.435   2.124 -0.6438 -1.5089  0.1976
 7370TIP3    H246306   1.859   1.462   1.978  0.7573  2.4583  1.0764
 7371TIP3   OH246307   1.687   2.952   1.935  0.0772 -0.1667  0.0293
 7371TIP3    H146308   1.606   2.910   1.907  0.1019  0.1904 -0.5974
 7371TIP3    H246309   1.660   3.036   1.970  0.2468  0.3905 -1.1124
 7372TIP3   OH246310   7.275   2.816   0.637 -0.2114  0.6703 -0.4490
 7372TIP3    H146311   7.225   2.780   0.564  0.2349  0.7399 -0.7982
 7372TIP3    H246312   7.323   2.740   0.672  1.8328  1.1153 -2.0786
 7373TIP3   OH246313   5.793   4.304   2.761  0.2438  0.0735 -0.3700
 7373TIP3    H146314   5.830   4.292   2.674  0.1701  1.5305 -0.6311
 7373TIP3    H246315   5.854   4.260   2.820  0.7394 -0.1998 -1.0844
 7374TIP3   OH246316   1.205   0.788   1.392  0.2056 -0.0130  0.5399
 7374TIP3    H146317   1.288   0.798   1.439  0.5250 -0.9583  0.2004
 7374TIP3    H246318   1.145   0.752   1.457 -0.0846  1.0908  0.9110
 7375TIP3   OH246319   7.247   4.895   1.178 -0.2177 -0.5865  0.2498
 7375TIP3    H146320   7.205   4.858   1.101 -0.6908 -1.2356  0.8005
 7375TIP3    H246321   7.324   4.941   1.145 -0.2973 -1.0438 -0.5833
 7376TIP3   OH246322   1.619   0.587   2.471  0.0948 -0.6172  0.1696
 7376TIP3    H146323   1.644   0.497   2.454 -1.3310 -0.9897 -0.1336
 7376TIP3    H246324   1.523   0.585   2.473 -0.0672  1.2355 -1.9185
 7377TIP3   OH246325   5.842   4.530   1.776  0.7441 -0.1499  0.5167
 7377TIP3    H146326   5.878   4.593   1.838  0.8974 -1.1071  1.4323
 7377TIP3    H246327   5.892   4.450   1.792 -2.5127 -1.9965  2.8270
 7378TIP3   OH246328   1.133   7.196   1.592 -0.4234 -0.2471 -0.3798
 7378TIP3    H146329   1.077   7.233   1.661  0.9955  0.6272  0.3371
 7378TIP3    H246330   1.122   7.255   1.518 -1.4178 -0.8011 -0.6945
 7379TIP3   OH246331   2.318   0.887   2.224  0.3712  0.6832  0.0982
 7379TIP3    H146332   2.338   0.930   2.308  1.1860  0.4194  0.0540
 7379TIP3    H246333   2.279   0.803   2.250 -0.3483  1.0486  0.1978
 7380TIP3   OH246334   4.520   5.249   2.848 -0.1027  0.1524  0.3155
 7380TIP3    H146335   4.520   5.162   2.889 -0.0369  0.4037  0.8636
 7380TIP3    H246336   4.581   5.300   2.901 -0.3350  0.6052  0.1500
 7381TIP3   OH246337   1.536   3.258   0.861  0.3657  0.2407 -0.2867
 7381TIP3    H146338   1.533   3.170   0.825  0.9198  0.8237 -1.8573
 7381TIP3    H246339   1.445   3.287   0.863  0.1726 -0.3628  0.3069
 7382TIP3   OH246340   7.214   5.724   1.769 -0.1827  0.6661  0.5712
 7382TIP3    H146341   7.175   5.785   1.706  1.9823 -1.1596 -2.8553
 7382TIP3    H246342   7.296   5.765   1.795 -0.5803  0.9267  1.4795
 7383TIP3   OH246343   2.682   7.370   1.800 -0.0948  0.2443  0.4822
 7383TIP3    H146344   2.680   7.281   1.835 -1.3907 -0.9089 -2.2213
 7383TIP3    H246345   2.775   7.388   1.784  0.0586 -1.4519 -0.7544
 7384TIP3   OH246346   3.761   2.849   0.376 -0.1473 -0.1484  0.2178
 7384TIP3    H146347   3.836   2.908   0.369  0.6933 -1.2136 -0.0898
 7384TIP3    H246348   3.800   2.763   0.390 -1.3548 -0.5685  1.2124
 7385TIP3   OH246349   5.330   0.315   2.093  0.3384  0.1714 -0.4165
 7385TIP3    H146350   5.327   0.407   2.121  0.7237  0.0741 -0.0561
 7385TIP3    H246351   5.398   0.275   2.147  1.4051  0.0694 -1.7688
 7386TIP3   OH246352   1.210   5.136   1.152  0.0385 -0.1256 -0.6406
 7386TIP3    H146353   1.179   5.166   1.066  0.7505  2.5743 -0.0573
 7386TIP3    H246354   1.301   5.165   1.156  0.1804 -0.7001  0.8038
 7387TIP3   OH246355   0.052   0.745   2.591  0.3198  0.0098  0.3583
 7387TIP3    H146356  -0.012   0.798   2.543  1.5710  0.8646 -0.4184
 7387TIP3    H246357   0.029   0.655   2.570  1.9302  0.3182 -3.5125
 7388TIP3   OH246358   2.719   0.755   2.580  0.3494 -0.3521 -0.2111
 7388TIP3    H146359   2.656   0.688   2.606 -0.3526  0.4724  0.2691
 7388TIP3    H246360   2.670   0.814   2.523  1.0072 -0.3440 -0.7807
 7389TIP3   OH246361   0.178   4.439   1.259  0.2741  0.1516  0.2024
 7389TIP3    H146362   0.082   4.444   1.257  0.1588 -1.0035  1.2381
 7389TIP3    H246363   0.204   4.443   1.167 -0.7335  0.9256 -0.0641
 7390TIP3   OH246364   2.503   4.157   2.212  0.2592  0.3266  0.8257
 7390TIP3    H146365   2.478   4.110   2.133  1.2065  0.1763  0.6057
 7390TIP3    H246366   2.420   4.176   2.256 -0.2084 -0.4246  0.2821
 7391TIP3   OH246367   6.311   5.682   2.315 -0.3270 -0.3572 -0.1998
 7391TIP3    H146368   6.300   5.639   2.230  1.2145  2.1029 -1.7582
 7391TIP3    H246369   6.318   5.609   2.377 -0.9888 -2.2624 -2.2126
 7392TIP3   OH246370   4.881   6.052   1.810  0.3528  0.3468  0.0653
 7392TIP3    H146371   4.843   6.032   1.895  2.9493  2.3212  1.8327
 7392TIP3    H246372   4.911   5.967   1.777 -0.3076 -0.3961  1.2974
 7393TIP3   OH246373   0.087   5.752   0.798 -0.0319  0.2735  0.2661
 7393TIP3    H146374   0.054   5.768   0.710  0.8445 -0.4985 -0.2211
 7393TIP3    H246375   0.169   5.801   0.802  1.6517 -2.2917 -0.5502
 7394TIP3   OH246376   4.180   5.770   3.021 -0.2018 -0.2808  0.1326
 7394TIP3    H146377   4.232   5.696   3.050  0.7093 -0.0152 -0.7500
 7394TIP3    H246378   4.146   5.809   3.102 -0.5444 -1.5434  0.6079
 7395TIP3   OH246379   2.992   3.734   1.431 -0.3343 -0.6061 -0.6899
 7395TIP3    H146380   2.942   3.739   1.350 -0.8557 -0.1620 -0.3475
 7395TIP3    H246381   2.927   3.746   1.500  0.2605  0.1205 -0.2409
 7396TIP3   OH246382   7.418   6.879   2.062  0.0011  0.1134  0.8502
 7396TIP3    H146383   7.386   6.856   2.150 -1.2463  1.7467  0.8586
 7396TIP3    H246384   7.472   6.957   2.076 -1.1992  1.1113  0.0308
 7397TIP3   OH246385   0.427   3.560   0.929  0.0824 -0.0460  0.2228
 7397TIP3    H146386   0.371   3.600   0.996  0.8117  1.0931  0.1712
 7397TIP3    H246387   0.414   3.614   0.851 -0.3149 -1.0198 -0.4108
 7398TIP3   OH246388   0.010   7.094   2.050 -0.0623  0.8003 -0.1429
 7398TIP3    H146389   0.026   7.168   2.107  0.2018  0.9628 -0.4266
 7398TIP3    H246390   0.056   7.115   1.969  0.3231  0.1641 -0.0974
 7399TIP3   OH246391   7.306   3.892   0.949  0.5603  0.4054  0.5574
 7399TIP3    H146392   7.249   3.966   0.928  0.0497 -0.2205 -0.3001
 7399TIP3    H246393   7.264   3.850   1.024  1.5785  1.7539  1.9434
 7400TIP3   OH246394   2.066   5.665   1.909  0.4222 -0.1745 -0.2571
 7400TIP3    H146395   1.971   5.662   1.903  0.4269 -1.8067  0.0353
 7400TIP3    H246396   2.084   5.686   2.001  0.2957 -2.7177  0.4191
 7401TIP3   OH246397   3.858   7.147   1.978  0.0412 -0.1045 -0.3800
 7401TIP3    H146398   3.863   7.230   2.026 -2.0679  1.0091 -1.9701
 7401TIP3    H246399   3.792   7.096   2.025 -1.0037  0.4263 -1.2496
 7402TIP3   OH246400   0.372   5.166   1.522 -0.2893  0.0196  0.0400
 7402TIP3    H146401   0.307   5.199   1.583 -0.9902 -2.5208  0.7638
 7402TIP3    H246402   0.455   5.202   1.554 -1.0458  1.4798  0.4302
 7403TIP3   OH246403   4.803   3.489   1.869 -0.4380  0.6873 -0.4376
 7403TIP3    H146404   4.860   3.565   1.878  1.9297 -1.0405  0.2640
 7403TIP3    H246405   4.763   3.479   1.955  0.0002  0.5887 -0.2433
 7404TIP3   OH246406   5.200   4.136   1.297 -0.3884  1.0997  0.4784
 7404TIP3    H146407   5.225   4.106   1.385 -0.4992  1.7975  0.7579
 7404TIP3    H246408   5.105   4.145   1.302 -0.4911  0.3464  0.0246
 7405TIP3   OH246409   1.900   3.883   1.720  0.4780  0.8179  0.4615
 7405TIP3    H146410   1.819   3.854   1.764  0.1073  0.5571 -0.3751
 7405TIP3    H246411   1.902   3.977   1.736 -0.2282  0.8993  0.1295
 7406TIP3   OH246412   6.630   2.578   1.055 -0.0475  0.7710 -0.7661
 7406TIP3    H146413   6.676   2.517   0.997 -0.0051  0.2526 -0.2034
 7406TIP3    H246414   6.560   2.615   1.001 -1.4928 -1.4347 -0.5694
 7407TIP3   OH246415   0.080   7.189   1.565  0.0606  0.0250 -0.3454
 7407TIP3    H146416   0.094   7.189   1.471 -4.3651 -1.4065 -1.2572
 7407TIP3    H246417   0.116   7.105   1.595 -0.7098 -0.6766 -1.3069
 7408TIP3   OH246418   2.620   4.726   0.771  0.4145 -0.0622  0.0776
 7408TIP3    H146419   2.665   4.789   0.715  0.2945 -0.1501 -0.1196
 7408TIP3    H246420   2.565   4.676   0.711 -0.4248  0.4638  0.4070
 7409TIP3   OH246421   3.092   2.917   2.119  0.0702 -0.2716  0.6643
 7409TIP3    H146422   3.138   2.858   2.179  0.5853 -0.7225 -0.1419
 7409TIP3    H246423   3.133   2.900   2.034 -0.2145  0.7990  0.3007
 7410TIP3   OH246424   3.110   4.046   1.156 -0.4657 -0.2294 -0.8900
 7410TIP3    H146425   3.078   4.127   1.117  0.2078  0.3768 -0.2124
 7410TIP3    H246426   3.054   3.978   1.119 -2.4520  0.7619  0.1599
 7411TIP3   OH246427   7.151   2.235   2.185 -1.4937 -0.0752 -0.3789
 7411TIP3    H146428   7.087   2.194   2.127  0.0221 -0.6430 -1.7237
 7411TIP3    H246429   7.210   2.282   2.127 -0.3463 -0.0525  0.7594
 7412TIP3   OH246430   2.951   3.337   1.777 -0.3108 -0.0876 -0.4272
 7412TIP3    H146431   3.013   3.264   1.781  0.6223  0.6844 -0.4176
 7412TIP3    H246432   2.962   3.372   1.689  0.1132  0.7606 -0.0490
 7413TIP3   OH246433   4.256   2.473   2.211 -0.9905  0.0652  0.2891
 7413TIP3    H146434   4.329   2.432   2.165 -2.6571 -0.4531 -2.0738
 7413TIP3    H246435   4.264   2.443   2.302  1.5674 -0.1186  0.0645
 7414TIP3   OH246436   6.681   3.410   1.832  0.4093 -0.2584  0.3809
 7414TIP3    H146437   6.737   3.390   1.907  0.6209  1.3818  0.7024
 7414TIP3    H246438   6.599   3.364   1.850  0.2833  0.5117  1.8742
 7415TIP3   OH246439   0.721   6.650   1.331 -0.4139  0.2734  0.0922
 7415TIP3    H146440   0.666   6.615   1.401 -0.5294  2.0271  0.9455
 7415TIP3    H246441   0.793   6.589   1.323 -1.2427 -0.8034  0.6100
 7416TIP3   OH246442   0.861   4.989   1.310  0.4543 -0.2317  0.2068
 7416TIP3    H146443   0.913   5.069   1.308 -0.0586  0.0956 -0.4086
 7416TIP3    H246444   0.771   5.018   1.294  0.4292 -1.0469 -1.3928
 7417TIP3   OH246445   1.792   3.246   1.631  0.1010 -0.4333  0.0721
 7417TIP3    H146446   1.736   3.244   1.708  0.1946  1.1642  0.2168
 7417TIP3    H246447   1.733   3.227   1.558  0.2029 -2.9902  0.5830
 7418TIP3   OH246448   5.847   6.829   2.654 -0.0454 -0.4321  0.4412
 7418TIP3    H146449   5.888   6.828   2.740  1.4241 -1.9850 -0.2339
 7418TIP3    H246450   5.762   6.870   2.669 -0.6068 -2.2542  3.0188
 7419TIP3   OH246451   3.985   5.113   0.758  0.1078  0.6359  0.3844
 7419TIP3    H146452   4.059   5.169   0.736 -1.1153  2.0540 -0.2281
 7419TIP3    H246453   3.926   5.119   0.683 -2.8296  3.3435  2.6290
 7420TIP3   OH246454   0.152   4.387   1.799  0.0416  1.2031  0.2744
 7420TIP3    H146455   0.226   4.442   1.826  0.6217 -0.0377  1.3496
 7420TIP3    H246456   0.187   4.297   1.802 -0.9228  0.7418 -1.2623
 7421TIP3   OH246457   3.561   5.191   2.708  0.0414 -0.7290  0.0060
 7421TIP3    H146458   3.575   5.233   2.793 -1.0783 -3.8089  1.8769
 7421TIP3    H246459   3.619   5.237   2.648  1.4742  1.0660  2.6091
 7422TIP3   OH246460   7.172   7.128   3.452 -0.4939  0.4868 -0.6616
 7422TIP3    H146461   7.083   7.161   3.463  0.0873  2.2436 -0.9565
 7422TIP3    H246462   7.194   7.147   3.361 -0.5584 -1.9417 -1.2545
 7423TIP3   OH246463   0.268   1.900   1.991 -0.7519  0.2547 -0.5058
 7423TIP3    H146464   0.234   1.979   2.033 -0.1152 -0.3855  1.3328
 7423TIP3    H246465   0.200   1.876   1.927 -2.1504  0.9071  0.6654
 7424TIP3   OH246466   5.288   0.549   2.896  0.0125  0.2194  0.0070
 7424TIP3    H146467   5.202   0.576   2.929 -0.1707 -1.2522  0.8391
 7424TIP3    H246468   5.317   0.481   2.957  1.9037  0.8642 -0.1107
 7425TIP3   OH246469   0.277   2.332   1.179  0.8184  0.3526  0.1710
 7425TIP3    H146470   0.256   2.254   1.128  3.4181  0.4661 -1.2703
 7425TIP3    H246471   0.340   2.302   1.244  1.5326  1.1504 -0.1347
 7426TIP3   OH246472   0.719   3.137   0.344  0.0946  0.3489 -0.3199
 7426TIP3    H146473   0.810   3.166   0.336 -0.1185  1.7939  1.8811
 7426TIP3    H246474   0.726   3.044   0.368  1.0799  0.8538  1.5478
 7427TIP3   OH246475   0.446   0.804   1.561  0.7548  0.3470 -0.0035
 7427TIP3    H146476   0.506   0.877   1.571  1.5535 -0.2175 -0.5357
 7427TIP3    H246477   0.502   0.727   1.556  0.2681  0.0524 -3.5372
 7428TIP3   OH246478   6.621   2.860   3.196 -0.6938  0.0484 -0.5010
 7428TIP3    H146479   6.701   2.865   3.144  0.0475 -0.7645  0.5298
 7428TIP3    H246480   6.640   2.796   3.264 -2.5231 -0.8114 -0.7435
 7429TIP3   OH246481   5.255   6.556   3.086  0.4421  0.1709  0.3855
 7429TIP3    H146482   5.180   6.528   3.033 -0.1520  1.3909  0.5561
 7429TIP3    H246483   5.221   6.628   3.139  1.3803 -0.1656  1.4645
 7430TIP3   OH246484   6.775   0.673   0.956 -0.1122 -0.0581 -0.3853
 7430TIP3    H146485   6.793   0.627   0.874  1.3793 -0.8387  0.3318
 7430TIP3    H246486   6.772   0.765   0.932  1.1355 -0.2069 -1.2137
 7431TIP3   OH246487   2.954   3.422   1.518 -0.0269  0.1261  0.1475
 7431TIP3    H146488   3.004   3.375   1.451 -2.3415 -1.6422 -0.4854
 7431TIP3    H246489   2.973   3.514   1.503 -0.6849 -0.1767 -3.2271
 7432TIP3   OH246490   6.188   2.228   2.291  0.1496 -0.2718  0.4939
 7432TIP3    H146491   6.223   2.157   2.238  0.2261  1.1329 -1.4243
 7432TIP3    H246492   6.143   2.184   2.363 -0.8259 -2.2861 -1.2432
 7433TIP3   OH246493   3.061   1.088   0.604  0.0251  0.3814 -0.5773
 7433TIP3    H146494   3.147   1.114   0.636  0.7827 -1.2814 -1.1635
 7433TIP3    H246495   3.047   1.143   0.526  1.5304 -0.7939 -1.7266
 7434TIP3   OH246496   4.634   4.714   2.249 -0.6244 -0.2280 -0.6090
 7434TIP3    H146497   4.588   4.689   2.329 -0.2622  0.1243 -0.2865
 7434TIP3    H246498   4.693   4.785   2.275  1.8579 -2.1986 -0.4375
 7435TIP3   OH246499   4.292   4.087   0.477 -0.1525  0.0491  0.4624
 7435TIP3    H146500   4.264   4.122   0.392 -0.3747 -1.3459 -0.0650
 7435TIP3    H246501   4.357   4.150   0.508  2.5467 -1.0525 -2.3648
 7436TIP3   OH246502   1.114   4.430   0.408  0.5309 -0.2693  0.3771
 7436TIP3    H146503   1.105   4.336   0.422 -0.3483 -0.4035 -0.9402
 7436TIP3    H246504   1.107   4.441   0.313 -1.9931  1.3729  0.6575
 7437TIP3   OH246505   2.014   5.994   1.590 -0.4325 -0.4004  0.5777
 7437TIP3    H146506   1.947   5.936   1.626 -0.6753 -0.8906 -0.5980
 7437TIP3    H246507   2.046   5.948   1.513  0.6262  0.2473  0.6162
 7438TIP3   OH246508   3.036   2.544   0.739  0.5766  0.1697 -1.0042
 7438TIP3    H146509   3.088   2.500   0.671 -0.1116 -0.6287 -1.0337
 7438TIP3    H246510   3.098   2.602   0.783  1.4179 -0.5406 -1.2337
 7439TIP3   OH246511   3.190   0.815   0.459  0.1150  0.2391 -0.0005
 7439TIP3    H146512   3.243   0.886   0.422 -0.5415  0.0851 -1.3244
 7439TIP3    H246513   3.102   0.851   0.462 -0.4743 -0.8769 -1.8858
 7440TIP3   OH246514   1.381   5.244   2.845 -0.2509 -0.2536  0.0967
 7440TIP3    H146515   1.409   5.191   2.920  0.2809  1.1046  0.8944
 7440TIP3    H246516   1.295   5.209   2.822 -0.7299 -0.2892  1.7789
 7441TIP3   OH246517   2.076   6.128   0.464  0.2456  0.0294  0.0090
 7441TIP3    H146518   2.129   6.050   0.448  0.9593  0.1846  1.4860
 7441TIP3    H246519   2.124   6.177   0.530 -1.8974 -0.0209  1.7138
 7442TIP3   OH246520   0.469   6.299   1.932  1.1949 -0.1141  0.0103
 7442TIP3    H146521   0.492   6.392   1.928 -0.8577  0.4076 -1.0237
 7442TIP3    H246522   0.463   6.273   1.840  2.0572 -1.3829  0.2937
 7443TIP3   OH246523   0.183   7.323   0.924 -0.7041 -0.6386 -0.2652
 7443TIP3    H146524   0.276   7.332   0.945 -0.9208  0.5743  0.2671
 7443TIP3    H246525   0.138   7.371   0.993 -1.6082  0.5934 -1.6389
 7444TIP3   OH246526   1.808   6.710   0.978 -0.1095  0.2947  0.3913
 7444TIP3    H146527   1.772   6.680   0.895 -0.0034  0.8316  0.1455
 7444TIP3    H246528   1.735   6.703   1.040 -0.1547 -0.2130  0.2839
 7445TIP3   OH246529   1.778   7.184   2.740 -0.0310  0.2517 -0.0023
 7445TIP3    H146530   1.763   7.103   2.692  1.1058 -0.9802  1.6436
 7445TIP3    H246531   1.696   7.201   2.786 -0.6025  0.6070 -1.1128
 7446TIP3   OH246532   4.654   7.059   2.178  0.0769  0.1997 -0.3279
 7446TIP3    H146533   4.579   7.026   2.227  0.2193  0.5001  0.1063
 7446TIP3    H246534   4.672   6.992   2.112 -1.4727  0.8111 -1.4049
 7447TIP3   OH246535   2.486   0.047   2.096  0.4701 -0.4231  0.0184
 7447TIP3    H146536   2.567   0.085   2.131  1.5959 -2.2666 -0.4810
 7447TIP3    H246537   2.434   0.027   2.174  0.8942 -0.0881  0.3993
 7448TIP3   OH246538   1.610   1.810   1.737 -0.2694  0.2889 -0.0597
 7448TIP3    H146539   1.603   1.727   1.690  0.6002  0.7480 -1.0545
 7448TIP3    H246540   1.578   1.791   1.825  0.1548 -1.1694 -0.1935
 7449TIP3   OH246541   6.893   2.832   1.004  0.2863  0.1486  0.1774
 7449TIP3    H146542   6.822   2.861   1.061 -3.0917 -0.8211 -3.0641
 7449TIP3    H246543   6.925   2.751   1.044 -0.3224  0.6880  1.8134
 7450TIP3   OH246544   3.069   7.106   0.778  0.2041 -0.1248 -0.7574
 7450TIP3    H146545   3.116   7.185   0.752  0.3387  0.8090  2.0786
 7450TIP3    H246546   2.978   7.134   0.786 -0.1803 -0.8996 -2.0495
 7451TIP3   OH246547   6.267   0.216   1.094 -0.0760  0.2846  0.1454
 7451TIP3    H146548   6.352   0.236   1.054 -0.5683 -0.4817 -1.3309
 7451TIP3    H246549   6.265   0.121   1.100 -0.2572  0.3492  1.5309
 7452TIP3   OH246550   4.744   1.548   1.766 -0.1990 -0.3763 -0.4359
 7452TIP3    H146551   4.814   1.608   1.740  0.9350 -0.8488  1.4053
 7452TIP3    H246552   4.779   1.461   1.748 -0.2587 -0.6195  0.5915
 7453TIP3   OH246553   0.676   0.347   1.547 -0.4449  0.1406  0.2794
 7453TIP3    H146554   0.759   0.311   1.578 -0.3240 -0.2182 -0.4468
 7453TIP3    H246555   0.625   0.271   1.519 -0.5045  0.4599 -0.4981
 7454TIP3   OH246556   1.609   3.841   3.122 -0.1752  0.3312  0.0749
 7454TIP3    H146557   1.527   3.796   3.143  0.1302 -0.7121 -0.8336
 7454TIP3    H246558   1.677   3.784   3.158  0.2399 -0.2240 -1.5052
 7455TIP3   OH246559   6.921   3.911   2.840  0.3374  0.5594 -0.2462
 7455TIP3    H146560   6.891   3.849   2.907 -0.5768  1.4461  0.1882
 7455TIP3    H246561   7.012   3.886   2.823 -0.5901 -2.3505 -1.7274
 7456TIP3   OH246562   1.893   4.027   2.063  0.8262  0.0344  0.3606
 7456TIP3    H146563   1.902   4.054   2.155  0.9234  0.0624  0.3423
 7456TIP3    H246564   1.898   3.931   2.067 -1.9216 -0.1948  0.7289
 7457TIP3   OH246565   4.506   2.834   0.881 -0.0331 -0.3716 -0.3229
 7457TIP3    H146566   4.598   2.857   0.890  0.0493 -0.8524  0.1135
 7457TIP3    H246567   4.505   2.739   0.875 -0.5149 -0.3816 -0.1636
 7458TIP3   OH246568   1.160   5.554   0.703 -0.0231 -0.5428  0.2593
 7458TIP3    H146569   1.183   5.641   0.736  1.3261 -1.5746  2.2631
 7458TIP3    H246570   1.077   5.534   0.746  0.7813 -1.1043  1.6230
 7459TIP3   OH246571   2.535   3.548   1.919 -0.0395  0.0025  0.1250
 7459TIP3    H146572   2.619   3.575   1.884 -0.2161 -1.9761 -2.1018
 7459TIP3    H246573   2.556   3.497   1.998  1.1246 -2.2601 -1.5345
 7460TIP3   OH246574   5.596   2.945   1.160  0.1380 -0.0170 -0.7023
 7460TIP3    H146575   5.525   2.976   1.104 -0.9040 -0.9385  0.0618
 7460TIP3    H246576   5.557   2.874   1.211  1.3440  0.1015  0.4378
 7461TIP3   OH246577   2.947   1.104   2.506 -0.2265  0.3389  0.4354
 7461TIP3    H146578   3.019   1.104   2.569  0.2203  1.0422 -0.0665
 7461TIP3    H246579   2.871   1.077   2.558  0.4144 -0.5871  0.9322
 7462TIP3   OH246580   5.076   1.828   2.307 -0.3785 -0.2110  0.5758
 7462TIP3    H146581   4.998   1.875   2.337 -0.0535  0.4149  0.4575
 7462TIP3    H246582   5.108   1.880   2.233  1.0282  0.4074  1.5837
 7463TIP3   OH246583   2.183   4.032   0.542  0.6994 -0.2180 -0.2255
 7463TIP3    H146584   2.232   3.950   0.550 -1.1192 -1.1982  1.9913
 7463TIP3    H246585   2.239   4.098   0.584  2.2466 -0.1821 -2.1650
 7464TIP3   OH246586   1.559   1.576   1.492 -0.1313  0.0180 -0.0653
 7464TIP3    H146587   1.567   1.518   1.416 -0.2082  1.3766 -1.1456
 7464TIP3    H246588   1.550   1.516   1.566 -2.5679 -1.3854 -1.3485
 7465TIP3   OH246589   1.464   4.443   0.466  0.0571  0.1976  0.8979
 7465TIP3    H146590   1.374   4.411   0.458 -0.2394  0.9591  1.1709
 7465TIP3    H246591   1.455   4.531   0.501  0.7280  1.5637 -2.0993
 7466TIP3   OH246592   1.706   0.619   0.764  0.3002  0.2725 -0.1898
 7466TIP3    H146593   1.748   0.681   0.824 -0.8785  0.2441  0.7002
 7466TIP3    H246594   1.626   0.664   0.735 -0.7467 -0.9186  0.7315
 7467TIP3   OH246595   7.132   7.094   2.170 -0.0996 -0.6051 -0.0503
 7467TIP3    H146596   7.127   7.027   2.238 -1.2509 -0.3459  0.1432
 7467TIP3    H246597   7.041   7.123   2.159  0.3893  1.0061 -0.0491
 7468TIP3   OH246598   1.864   2.139   1.208  0.4198 -0.3747  0.1477
 7468TIP3    H146599   1.799   2.161   1.275 -0.2400  0.6071 -0.7955
 7468TIP3    H246600   1.897   2.053   1.235 -1.7267 -1.2135  0.3093
 7469TIP3   OH246601   5.062   4.408   2.203 -0.4724 -0.3184 -0.0551
 7469TIP3    H146602   5.098   4.332   2.248 -2.3972 -0.9697  0.4728
 7469TIP3    H246603   4.967   4.392   2.199 -0.7479  1.2958 -1.3639
 7470TIP3   OH246604   2.928   5.198   0.728 -0.2395 -0.5738  0.1386
 7470TIP3    H146605   2.959   5.121   0.679  0.7230  0.4614 -0.9537
 7470TIP3    H246606   2.942   5.271   0.668 -1.9315  0.3644  0.8347
 7471TIP3   OH246607   3.822   1.575   1.200  0.1696 -0.0646 -0.8638
 7471TIP3    H146608   3.907   1.619   1.192  0.2021 -0.3319 -2.2941
 7471TIP3    H246609   3.840   1.485   1.172 -0.5866 -0.1181 -1.1973
 7472TIP3   OH246610   5.719   6.968   3.310  0.1129 -0.1066  0.2585
 7472TIP3    H146611   5.737   6.998   3.221  0.4364 -1.0671 -0.0124
 7472TIP3    H246612   5.800   6.925   3.338  0.4598  1.2913  1.5063
 7473TIP3   OH246613   3.332   7.437   3.156 -0.1743  0.0586 -0.5072
 7473TIP3    H146614   3.319   7.532   3.158 -1.1477 -0.0771  0.0300
 7473TIP3    H246615   3.244   7.401   3.161  0.2200 -0.8829 -0.2569
 7474TIP3   OH246616   5.216   7.545   1.477 -0.2390  0.0536 -0.0021
 7474TIP3    H146617   5.152   7.615   1.487 -0.9502 -0.5382 -0.3615
 7474TIP3    H246618   5.299   7.584   1.506 -0.0411  1.9543 -2.6932
 7475TIP3   OH246619   2.831   5.176   3.864  0.2891  0.2368  0.0760
 7475TIP3    H146620   2.785   5.111   3.918  1.5830 -2.0856 -1.4435
 7475TIP3    H246621   2.838   5.135   3.778  0.3458  2.8523 -1.2502
 7476TIP3   OH246622   6.435   4.669   0.421  0.1611  0.4148  0.0233
 7476TIP3    H146623   6.436   4.573   0.426 -0.4267  0.3115 -1.4083
 7476TIP3    H246624   6.526   4.692   0.401 -0.0028  0.0128 -1.3079
 7477TIP3   OH246625   4.129   3.537   0.409  0.2152  0.6174 -0.1193
 7477TIP3    H146626   4.058   3.476   0.426  0.1003  0.7297 -0.1929
 7477TIP3    H246627   4.147   3.578   0.494  1.4899 -0.7902  0.3212
 7478TIP3   OH246628   0.566   6.289   1.327 -0.1455 -0.4303 -0.2881
 7478TIP3    H146629   0.652   6.247   1.326  0.7621  1.3268 -0.0593
 7478TIP3    H246630   0.504   6.217   1.327  1.3274 -1.7964  1.9268
 7479TIP3   OH246631   5.854   5.914   8.259  0.2400  0.0781  0.1733
 7479TIP3    H146632   5.829   5.995   8.216 -0.6197 -1.5581 -2.6949
 7479TIP3    H246633   5.938   5.890   8.220 -0.9145 -1.8307 -1.3581
 7480TIP3   OH246634   6.834   5.121   0.836  0.3607  0.4851  0.0219
 7480TIP3    H146635   6.910   5.067   0.816  0.6399  0.7329  0.3982
 7480TIP3    H246636   6.779   5.116   0.758  1.1365  0.9359 -0.5583
 7481TIP3   OH246637   3.504   6.118   1.226  0.0345  0.1398 -0.2232
 7481TIP3    H146638   3.418   6.146   1.195  0.4980  0.5084 -1.2294
 7481TIP3    H246639   3.502   6.132   1.320 -1.2552 -0.5512 -0.1309
 7482TIP3   OH246640   3.338   2.582   1.183 -0.4811 -0.0788 -0.8937
 7482TIP3    H146641   3.268   2.520   1.161  1.3579 -2.3894 -0.7582
 7482TIP3    H246642   3.405   2.566   1.116  1.0162  0.0808  0.5122
 7483TIP3   OH246643   3.784   4.799   0.808 -0.1139  0.2777 -0.1845
 7483TIP3    H146644   3.876   4.808   0.782  0.0830 -0.2817  0.2851
 7483TIP3    H246645   3.740   4.770   0.729  0.0557  0.8358 -0.4923
 7484TIP3   OH246646   1.341   0.646   2.183  0.1740 -0.1290 -0.1721
 7484TIP3    H146647   1.423   0.663   2.137  0.2176 -0.8541 -0.3813
 7484TIP3    H246648   1.278   0.626   2.114  0.0977 -0.6596  0.0424
 7485TIP3   OH246649   5.189   4.263   2.389 -0.1085 -0.3016  0.5384
 7485TIP3    H146650   5.282   4.270   2.369 -0.1776 -0.8778 -0.0069
 7485TIP3    H246651   5.180   4.303   2.476  0.8535 -1.3735  1.1570
 7486TIP3   OH246652   5.316   3.463   0.782 -0.2996 -0.2343 -0.4848
 7486TIP3    H146653   5.371   3.406   0.835 -0.6223  1.1782  1.5039
 7486TIP3    H246654   5.253   3.501   0.845 -1.2116  0.9363 -2.0213
 7487TIP3   OH246655   4.972   4.294   1.189  0.0619 -0.1475 -0.2761
 7487TIP3    H146656   4.966   4.386   1.164  1.2407 -0.0354 -0.2229
 7487TIP3    H246657   4.965   4.294   1.284 -0.2025 -0.1386 -0.2959
 7488TIP3   OH246658   1.692   5.050   1.815 -0.1534 -0.2300  0.8235
 7488TIP3    H146659   1.709   5.134   1.772  1.2033 -1.0254 -0.3007
 7488TIP3    H246660   1.751   5.049   1.890  0.9397 -0.7516 -0.0071
 7489TIP3   OH246661   2.439   5.344   1.457 -0.1681  0.5958  0.5127
 7489TIP3    H146662   2.518   5.341   1.511 -1.0983  1.0964  1.9507
 7489TIP3    H246663   2.371   5.376   1.516 -1.3333  0.6943 -0.8451
 7490TIP3   OH246664   7.240   2.706   0.906 -0.4481 -0.1847  0.3996
 7490TIP3    H146665   7.307   2.699   0.975  0.1522  0.8250 -0.0630
 7490TIP3    H246666   7.237   2.799   0.886 -0.7776 -0.4448 -0.7908
 7491TIP3   OH246667   0.389   0.946   2.928 -0.0945  0.5227 -0.2671
 7491TIP3    H146668   0.456   0.921   2.991 -0.1483  0.6956 -0.1403
 7491TIP3    H246669   0.435   0.997   2.862  0.1841 -0.6371 -1.0021
 7492TIP3   OH246670   5.975   5.629   1.299  0.4389 -0.2976  0.0299
 7492TIP3    H146671   5.887   5.622   1.334  0.4154 -0.8425 -0.1448
 7492TIP3    H246672   6.007   5.539   1.292  2.5150 -0.1092  3.9089
 7493TIP3   OH246673   7.049   2.740   1.761 -0.1676  0.3955  0.2928
 7493TIP3    H146674   7.001   2.822   1.749  0.4217  0.6968 -0.0591
 7493TIP3    H246675   7.082   2.744   1.851  2.1523  1.8231 -0.5228
 7494TIP3   OH246676   1.665   3.976   1.023  0.4906  0.3272  0.0879
 7494TIP3    H146677   1.576   3.941   1.025  1.0694 -1.2227  2.0836
 7494TIP3    H246678   1.654   4.071   1.017 -1.2062  0.0603 -1.9900
 7495TIP3   OH246679   0.567   7.076   1.052  0.1473 -0.6272 -0.1369
 7495TIP3    H146680   0.633   7.007   1.063 -0.7977 -1.6922 -1.0512
 7495TIP3    H246681   0.503   7.059   1.121  0.2828 -0.2084  0.0980
 7496TIP3   OH246682   0.143   0.806   0.387 -0.2920 -0.3899  0.2842
 7496TIP3    H146683   0.109   0.887   0.348  1.4319 -0.4510 -1.4919
 7496TIP3    H246684   0.068   0.747   0.388 -0.8207  0.1955 -1.4068
 7497TIP3   OH246685   3.089   2.694   1.298  0.3723  0.6421  0.1370
 7497TIP3    H146686   3.097   2.767   1.360 -0.4417  1.0167 -0.1901
 7497TIP3    H246687   3.170   2.698   1.247  0.9000  0.5377  0.9441
 7498TIP3   OH246688   5.042   3.230   2.765 -0.2017  0.1457 -0.2768
 7498TIP3    H146689   5.003   3.160   2.713  0.2886 -0.5401  0.2545
 7498TIP3    H246690   5.007   3.216   2.853  0.3454  0.2056 -0.0441
 7499TIP3   OH246691   4.316   7.261   2.135 -0.1922  0.4276  0.0079
 7499TIP3    H146692   4.362   7.298   2.059 -0.4333 -0.1772 -0.4347
 7499TIP3    H246693   4.283   7.177   2.105 -2.3897  1.2139  0.0213
 7500TIP3   OH246694   6.157   4.587   1.410 -0.3356 -0.0590 -0.2602
 7500TIP3    H146695   6.205   4.523   1.463 -1.9576 -0.9381  0.2150
 7500TIP3    H246696   6.130   4.654   1.472  1.1659  1.0371 -0.7200
 7501TIP3   OH246697   4.378   0.313   2.027 -0.4321  0.0864  0.1321
 7501TIP3    H146698   4.301   0.369   2.032 -1.5278 -1.3958  0.8620
 7501TIP3    H246699   4.343   0.225   2.013  1.1136 -0.6909  0.8210
 7502TIP3   OH246700   5.170   5.167   0.724  1.0705 -0.0524 -0.2294
 7502TIP3    H146701   5.219   5.092   0.692  0.0016 -1.0430  0.3741
 7502TIP3    H246702   5.193   5.174   0.817 -0.2335 -0.8223  0.1807
 7503TIP3   OH246703   0.956   5.169   1.613  0.0146  0.5386  0.0109
 7503TIP3    H146704   0.951   5.265   1.609  1.0960  0.5971 -0.1291
 7503TIP3    H246705   0.970   5.142   1.522  0.2417  0.2839  0.1190
 7504TIP3   OH246706   1.164   5.658   3.331 -0.4762  0.3875 -0.3395
 7504TIP3    H146707   1.108   5.610   3.270 -0.4085  1.3226 -1.1777
 7504TIP3    H246708   1.252   5.645   3.297 -0.5116  1.5903 -0.9638
 7505TIP3   OH246709   3.977   4.471   2.017 -0.7650  0.1806 -0.8460
 7505TIP3    H146710   3.950   4.465   1.925  1.9590 -2.5590 -1.6243
 7505TIP3    H246711   4.021   4.556   2.023 -0.3479  0.0925 -2.2790
 7506TIP3   OH246712   5.495   5.786   3.415 -0.3686 -0.5052 -0.1477
 7506TIP3    H146713   5.573   5.781   3.361 -0.6935 -2.8781 -0.4868
 7506TIP3    H246714   5.526   5.823   3.498  0.7137  0.2929 -0.8680
 7507TIP3   OH246715   6.294   1.296   2.086 -0.0174  0.5265 -0.5083
 7507TIP3    H146716   6.236   1.363   2.051 -1.7363  0.2653  1.5869
 7507TIP3    H246717   6.381   1.337   2.087 -0.6676  1.9732 -1.1040
 7508TIP3   OH246718   7.281   6.858   1.250 -0.0353 -0.6620  0.0735
 7508TIP3    H146719   7.365   6.899   1.231 -0.2710  0.9953  2.2787
 7508TIP3    H246720   7.216   6.922   1.221 -0.4580 -0.5198  1.2893
 7509TIP3   OH246721   2.184   7.471   1.981 -0.1560  0.3543 -0.0615
 7509TIP3    H146722   2.093   7.441   1.988  0.0522 -0.3240 -0.1899
 7509TIP3    H246723   2.179   7.566   1.994 -0.9987  0.4560 -0.9595
 7510TIP3   OH246724   3.754   6.762   1.477  0.4775  0.5460  0.1519
 7510TIP3    H146725   3.803   6.779   1.558 -0.6843  1.4364  0.6869
 7510TIP3    H246726   3.703   6.841   1.463  1.5219  0.8935 -2.1203
 7511TIP3   OH246727   3.580   3.040   1.413  0.0415  0.5538 -0.5824
 7511TIP3    H146728   3.561   3.125   1.454 -1.6180 -0.2416  0.4083
 7511TIP3    H246729   3.652   3.005   1.465  0.9184  1.4394 -1.1602
 7512TIP3   OH246730   4.389   7.075   1.786 -0.8721  0.4781 -0.7858
 7512TIP3    H146731   4.359   7.068   1.876 -2.7095  0.9932 -1.3148
 7512TIP3    H246732   4.318   7.119   1.740  0.0938  0.3912 -2.4617
 7513TIP3   OH246733   1.970   1.671   0.642 -0.3616 -0.0963 -0.5339
 7513TIP3    H146734   1.954   1.755   0.686  0.3773  0.4116 -1.1844
 7513TIP3    H246735   1.982   1.608   0.713 -0.4765  0.4403 -0.0287
 7514TIP3   OH246736   5.274   1.124   2.649  0.1376  0.2997  0.4519
 7514TIP3    H146737   5.264   1.136   2.744 -0.4161  0.2767  0.3997
 7514TIP3    H246738   5.188   1.097   2.619  0.5682 -0.7299  0.0946
 7515TIP3   OH246739   1.508   5.807   0.491 -0.5669  0.4089  0.5465
 7515TIP3    H146740   1.563   5.753   0.549 -1.0408  0.0017  0.6225
 7515TIP3    H246741   1.524   5.897   0.520  1.0978  0.4316 -0.3034
 7516TIP3   OH246742   7.027   7.531   2.050 -0.3588 -0.4181 -0.5105
 7516TIP3    H146743   6.967   7.513   2.123  0.6090  1.0805  0.7103
 7516TIP3    H246744   7.071   7.447   2.034 -1.0325 -0.9229  0.1935
 7517TIP3   OH246745   4.498   4.782   2.577 -0.2126 -0.0315  0.2293
 7517TIP3    H146746   4.569   4.809   2.634 -0.3315 -0.6972  0.7100
 7517TIP3    H246747   4.522   4.694   2.548 -0.0578  0.3722 -0.9159
 7518TIP3   OH246748   6.136   3.719   2.015 -0.4839  0.6230  0.0352
 7518TIP3    H146749   6.157   3.811   2.001  0.5880  0.2516 -1.0968
 7518TIP3    H246750   6.048   3.708   1.980 -0.2053  1.0260 -0.8343
 7519TIP3   OH246751   2.758   6.518   0.554 -0.1948  0.2750  0.3272
 7519TIP3    H146752   2.809   6.586   0.598  2.3548 -0.9927 -0.4749
 7519TIP3    H246753   2.686   6.565   0.513  1.5624  2.5784 -0.3341
 7520TIP3   OH246754   2.298   1.099   3.064  0.1436 -0.6064 -0.3647
 7520TIP3    H146755   2.393   1.105   3.072  0.1400 -0.8498 -0.1373
 7520TIP3    H246756   2.271   1.187   3.036  0.2364  0.1448  1.6719
 7521TIP3   OH246757   7.403   0.646   1.356 -0.4901 -0.5467  0.5797
 7521TIP3    H146758   7.348   0.614   1.428 -1.1790  0.6939  0.6435
 7521TIP3    H246759   7.486   0.668   1.397 -0.9285  0.2950  1.0490
 7522TIP3   OH246760   6.587   3.445   1.575  0.0321 -0.1808 -0.1587
 7522TIP3    H146761   6.639   3.449   1.655 -0.6721  0.9279  0.2609
 7522TIP3    H246762   6.588   3.534   1.540  0.1262 -0.5954 -1.2554
 7523TIP3   OH246763   2.395   4.333   2.767 -0.5552  0.2898 -0.1829
 7523TIP3    H146764   2.384   4.427   2.777  1.5458  0.8023 -1.9785
 7523TIP3    H246765   2.469   4.311   2.823 -0.4994 -0.1518 -0.4248
 7524TIP3   OH246766   1.914   3.808   3.199  0.5775 -0.1268  0.4975
 7524TIP3    H146767   1.889   3.900   3.205  0.5313  0.2451 -3.1233
 7524TIP3    H246768   2.007   3.806   3.222  0.4100  0.7070  1.2658
 7525TIP3   OH246769   7.380   6.847   2.337  0.0697  0.1307  0.1150
 7525TIP3    H146770   7.439   6.922   2.336  1.0409 -0.6231 -0.1118
 7525TIP3    H246771   7.391   6.809   2.424  1.1842 -0.9778 -0.4873
 7526TIP3   OH246772   2.982   6.676   2.709  0.7105 -0.4522 -0.6070
 7526TIP3    H146773   3.003   6.705   2.797  1.1191 -0.1803 -0.7912
 7526TIP3    H246774   2.970   6.581   2.717 -0.3254 -0.2826 -0.0621
 7527TIP3   OH246775   5.841   1.582   1.192 -0.0742  0.2817 -0.1770
 7527TIP3    H146776   5.800   1.634   1.261  1.5574  0.8935  0.3746
 7527TIP3    H246777   5.918   1.543   1.233 -0.1256 -0.9056 -1.1462
 7528TIP3   OH246778   0.446   2.500   1.617 -0.2671  0.1615  0.1350
 7528TIP3    H146779   0.516   2.540   1.667  0.7685  0.5087 -1.4960
 7528TIP3    H246780   0.485   2.482   1.531 -1.6149 -1.4360 -0.2065
 7529TIP3   OH246781   6.902   2.687   0.667  0.4952  0.1824 -0.1817
 7529TIP3    H146782   6.833   2.749   0.690 -0.5737 -0.6999 -0.9230
 7529TIP3    H246783   6.889   2.669   0.574  1.9798  0.2878 -0.4436
 7530TIP3   OH246784   7.071   4.721   2.209  0.9587  0.0688  0.2489
 7530TIP3    H146785   7.112   4.691   2.128 -0.0110 -2.3807  0.5676
 7530TIP3    H246786   6.982   4.685   2.206  0.4872  0.9706  1.8378
 7531TIP3   OH246787   4.154   0.480   1.998 -0.0779  0.0411 -0.1726
 7531TIP3    H146788   4.139   0.499   2.090  1.5477 -0.6817  0.2678
 7531TIP3    H246789   4.083   0.419   1.975  0.5317 -1.2023  1.1087
 7532TIP3   OH246790   4.572   4.813   1.334  0.0692 -0.2748 -0.3581
 7532TIP3    H146791   4.637   4.884   1.337 -2.7378  2.5077  0.2614
 7532TIP3    H246792   4.598   4.754   1.405  3.2035 -0.6435 -1.6503
 7533TIP3   OH246793   0.780   6.489   1.731 -0.4272 -0.1131 -0.2008
 7533TIP3    H146794   0.824   6.573   1.743 -0.7379 -0.1131  1.0304
 7533TIP3    H246795   0.703   6.510   1.678 -1.3843  0.6920  1.4379
 7534TIP3   OH246796   0.453   4.667   1.627 -0.8615  0.3591  0.1501
 7534TIP3    H146797   0.418   4.598   1.570 -2.6187  0.6715  0.7812
 7534TIP3    H246798   0.377   4.697   1.677  0.4988  0.5411  2.2054
 7535TIP3   OH246799   1.886   4.844   1.651  0.0796  0.5311  0.4678
 7535TIP3    H146800   1.924   4.860   1.564 -3.1527  1.4080 -0.9254
 7535TIP3    H246801   1.922   4.914   1.706  2.1787 -0.0433 -0.0907
 7536TIP3   OH246802   5.353   4.702   1.365  0.6917 -0.0696  0.8836
 7536TIP3    H146803   5.403   4.621   1.368  1.9914  0.6957  0.4530
 7536TIP3    H246804   5.345   4.722   1.272 -1.0931 -0.5461  0.8790
 7537TIP3   OH246805   7.473   5.100   1.069  0.5322  0.7645  0.4938
 7537TIP3    H146806   7.495   5.058   0.986 -1.6633  0.9742 -0.2590
 7537TIP3    H246807   7.476   5.194   1.050 -1.4232  0.7984  0.1892
 7538TIP3   OH246808   4.320   1.790   2.643  0.2506  0.0629 -0.1132
 7538TIP3    H146809   4.291   1.760   2.729  0.4690 -0.1289 -0.1047
 7538TIP3    H246810   4.368   1.871   2.660  0.3465 -0.0079 -0.0481
 7539TIP3   OH246811   4.174   1.055   0.673  0.3952  0.2781 -0.1471
 7539TIP3    H146812   4.156   0.961   0.670  0.8097  0.2216 -1.5705
 7539TIP3    H246813   4.107   1.093   0.616  1.4550  0.6096 -1.2200
 7540TIP3   OH246814   4.861   3.131   1.228  0.0831  0.3827 -0.0805
 7540TIP3    H146815   4.936   3.190   1.217 -0.6053  1.6522  1.5995
 7540TIP3    H246816   4.851   3.089   1.143 -1.3924  5.0625 -2.5557
 7541TIP3   OH246817   6.844   7.514   1.569  0.1255 -0.2394 -0.4855
 7541TIP3    H146818   6.939   7.514   1.552  0.5250  3.7814  0.6197
 7541TIP3    H246819   6.810   7.578   1.506 -1.6380 -0.4976  0.1764
 7542TIP3   OH246820   3.834   2.385   1.291 -0.2336  0.0744  0.1212
 7542TIP3    H146821   3.755   2.330   1.292  0.1839 -0.5326  0.0202
 7542TIP3    H246822   3.871   2.372   1.204 -0.4926  1.0437 -0.1380
 7543TIP3   OH246823   0.483   6.176   2.532 -0.4755  0.3843 -1.0004
 7543TIP3    H146824   0.452   6.105   2.588  1.1802  0.5581  0.2042
 7543TIP3    H246825   0.445   6.255   2.570  0.7824  0.5210  0.0537
 7544TIP3   OH246826   0.411   3.290   1.648 -0.0138 -0.0266 -0.2189
 7544TIP3    H146827   0.384   3.309   1.737 -0.1060 -1.5070  0.0970
 7544TIP3    H246828   0.460   3.208   1.654  0.9888  0.4387 -1.3733
 7545TIP3   OH246829   4.843   1.424   3.024 -0.0972  0.1294  0.0039
 7545TIP3    H146830   4.928   1.442   3.063 -0.2883 -1.9469  1.5407
 7545TIP3    H246831   4.804   1.510   3.009  1.5351  1.0677  0.9044
 7546TIP3   OH246832   3.899   5.161   2.739 -0.4386  0.0820  0.0922
 7546TIP3    H146833   3.814   5.152   2.781 -0.4603 -1.0348 -0.1515
 7546TIP3    H246834   3.889   5.115   2.655  0.2514  0.3816 -0.1642
 7547TIP3   OH246835   3.669   2.222   2.878 -0.1115 -0.3696  0.0360
 7547TIP3    H146836   3.602   2.197   2.941 -0.5411  1.2719  0.2715
 7547TIP3    H246837   3.630   2.293   2.828  0.0198 -1.9665 -2.4786
 7548TIP3   OH246838   6.092   4.112   0.463  0.3590  0.4321 -0.2831
 7548TIP3    H146839   6.021   4.049   0.478  2.1933 -1.6330  0.2102
 7548TIP3    H246840   6.134   4.122   0.548  0.9499  1.2957 -0.6555
 7549TIP3   OH246841   7.269   1.560   1.282 -0.8369  0.4250 -0.1483
 7549TIP3    H146842   7.347   1.509   1.261  0.0189  1.2612  0.8626
 7549TIP3    H246843   7.201   1.495   1.300  0.3385 -0.4097  1.5429
 7550TIP3   OH246844   3.549   4.711   2.715  0.7266 -0.2017  0.1181
 7550TIP3    H146845   3.534   4.636   2.659  1.9766 -0.1489 -0.3348
 7550TIP3    H246846   3.606   4.769   2.664  0.1305  0.8656  0.6146
 7551TIP3   OH246847   7.227   6.349   1.371 -0.3897  0.8088  0.1153
 7551TIP3    H146848   7.193   6.437   1.356  1.0512  1.5098  0.6673
 7551TIP3    H246849   7.190   6.323   1.455 -0.6382  0.9936  0.0617
 7552TIP3   OH246850   6.900   7.048   1.484 -0.1470 -0.2835 -0.7770
 7552TIP3    H146851   6.974   7.108   1.472  0.6854 -1.2142 -0.4862
 7552TIP3    H246852   6.823   7.104   1.485  0.4170  0.6050 -2.4570
 7553TIP3   OH246853   4.077   5.425   2.817  0.3980  0.1288  0.5034
 7553TIP3    H146854   4.154   5.407   2.764 -0.6002  0.3189 -1.0686
 7553TIP3    H246855   4.043   5.339   2.842  0.8266  0.0356  0.7574
 7554TIP3   OH246856   6.437   6.391   1.895  0.1428 -0.5429 -0.2501
 7554TIP3    H146857   6.488   6.380   1.815  1.6895  1.5337  0.3543
 7554TIP3    H246858   6.462   6.316   1.950  3.8368  1.1025  0.5941
 7555TIP3   OH246859   0.145   1.229   2.142  0.2048  0.2381  0.1254
 7555TIP3    H146860   0.189   1.181   2.212 -2.3542  0.8412  2.3144
 7555TIP3    H246861   0.096   1.162   2.094 -0.7353  0.1883  1.1094
 7556TIP3   OH246862   2.098   2.884   2.578 -0.4589 -0.0426 -0.1659
 7556TIP3    H146863   2.135   2.810   2.627  0.8828  0.7413  0.0539
 7556TIP3    H246864   2.083   2.848   2.490 -1.3702 -1.0091  0.3552
 7557TIP3   OH246865   3.819   5.625   1.854 -0.0567  0.1237  0.8057
 7557TIP3    H146866   3.800   5.628   1.948 -0.4858 -0.7557  0.7561
 7557TIP3    H246867   3.816   5.532   1.832  1.5899  0.1923  0.2231
 7558TIP3   OH246868   5.479   7.110   2.712 -0.8996  0.1217  0.2733
 7558TIP3    H146869   5.537   7.034   2.712 -1.5787 -0.4611 -2.0209
 7558TIP3    H246870   5.535   7.184   2.687 -0.5222  0.1467  1.1661
 7559TIP3   OH246871   4.447   3.788   0.410  0.3857 -0.6404 -0.1566
 7559TIP3    H146872   4.532   3.784   0.453  0.6791  0.1705 -0.6461
 7559TIP3    H246873   4.394   3.843   0.467  0.2640 -0.9450  0.0239
 7560TIP3   OH246874   0.359   0.410   1.765  0.5372  0.6376 -0.1339
 7560TIP3    H146875   0.424   0.398   1.834 -0.1138  0.2459  0.4229
 7560TIP3    H246876   0.382   0.345   1.699  1.0207  0.8563 -0.1884
 7561TIP3   OH246877   1.134   3.849   3.169 -0.2790 -0.0172 -0.1119
 7561TIP3    H146878   1.165   3.928   3.125  1.7919 -0.4034  0.5483
 7561TIP3    H246879   1.105   3.878   3.255 -1.4745  0.2869 -0.5922
 7562TIP3   OH246880   4.309   3.417   2.442  0.3565  0.1457 -0.1355
 7562TIP3    H146881   4.396   3.378   2.431 -0.3713 -1.2613 -1.2656
 7562TIP3    H246882   4.250   3.356   2.397 -1.4036  0.3185  1.7985
 7563TIP3   OH246883   5.883   4.720   1.982  0.1883 -0.2500  0.2410
 7563TIP3    H146884   5.951   4.778   2.018  1.6431 -2.0144  0.4597
 7563TIP3    H246885   5.821   4.709   2.054  1.7922 -1.7819  1.4504
 7564TIP3   OH246886   3.156   4.959   2.276 -0.1757 -0.5722 -0.1889
 7564TIP3    H146887   3.071   5.001   2.286  0.2553 -0.0757  1.7381
 7564TIP3    H246888   3.216   5.031   2.258  0.1865 -0.6285  0.7424
 7565TIP3   OH246889   0.795   1.186   1.845 -0.0086 -0.1118  0.1627
 7565TIP3    H146890   0.827   1.208   1.758 -1.5961 -3.1595 -1.3480
 7565TIP3    H246891   0.851   1.115   1.875  1.1371  1.5150  2.1684
 7566TIP3   OH246892   3.203   0.753   2.170 -0.3677 -0.0140  0.0690
 7566TIP3    H146893   3.167   0.714   2.250 -1.6072  0.8960 -0.0120
 7566TIP3    H246894   3.236   0.839   2.198 -1.8262  0.7888 -0.5663
 7567TIP3   OH246895   0.414   3.769   0.751  0.2157  0.5653  0.3118
 7567TIP3    H146896   0.347   3.802   0.691  0.1293  0.3677  0.2994
 7567TIP3    H246897   0.479   3.727   0.693 -0.9617 -1.6209  0.4734
 7568TIP3   OH246898   1.496   4.892   1.305 -0.6278 -0.3117 -0.4398
 7568TIP3    H146899   1.523   4.801   1.305 -0.4270 -0.2532 -0.3906
 7568TIP3    H246900   1.517   4.924   1.393 -0.8322 -0.2585 -0.4098
 7569TIP3   OH246901   0.492   5.925   2.669  0.0811 -0.4976  0.2664
 7569TIP3    H146902   0.415   5.971   2.703  1.3863  2.0136  0.1172
 7569TIP3    H246903   0.545   5.906   2.747 -0.4035 -1.7130  0.3155
 7570TIP3   OH246904   2.305   7.255   1.142  0.0498  0.0262 -0.0659
 7570TIP3    H146905   2.257   7.323   1.188 -2.6061 -0.3589 -2.0247
 7570TIP3    H246906   2.240   7.188   1.121  0.2177  1.2169 -6.2659
 7571TIP3   OH246907   2.013   1.038   2.332 -0.1729 -0.0144  0.0250
 7571TIP3    H146908   1.967   0.956   2.352 -0.2929  0.1748  0.5530
 7571TIP3    H246909   2.093   1.033   2.384 -1.7409  1.6956  2.8541
 7572TIP3   OH246910   1.472   2.926   2.480 -0.0957  0.0284  0.2183
 7572TIP3    H146911   1.449   3.015   2.454 -0.0269 -0.0611 -0.1720
 7572TIP3    H246912   1.559   2.912   2.440  0.9360  0.5726  2.1516
 7573TIP3   OH246913   1.526   3.445   0.554 -0.3347  0.1418  0.5422
 7573TIP3    H146914   1.516   3.530   0.511 -3.9825 -0.0727  0.6363
 7573TIP3    H246915   1.517   3.464   0.648 -1.2609 -0.3181  0.5571
 7574TIP3   OH246916   5.514   2.886   1.568  0.0348 -0.3413 -0.2364
 7574TIP3    H146917   5.527   2.845   1.653 -1.3275 -0.1393  0.0883
 7574TIP3    H246918   5.469   2.819   1.516  0.8806 -0.4738 -0.8234
 7575TIP3   OH246919   4.808   6.793   3.237  0.7030  0.5837  0.3101
 7575TIP3    H146920   4.712   6.789   3.231  0.7174 -1.5060  0.5458
 7575TIP3    H246921   4.837   6.795   3.146  0.4369  0.4700  0.2209
 7576TIP3   OH246922   5.607   5.245   0.956 -0.2918  0.1147  0.0851
 7576TIP3    H146923   5.664   5.320   0.972  2.8272 -2.2808  1.4830
 7576TIP3    H246924   5.590   5.247   0.861  0.9966  1.7095 -0.1535
 7577TIP3   OH246925   2.228   0.952   1.881  0.3732 -0.8378 -0.0957
 7577TIP3    H146926   2.240   0.943   1.786  0.3943  1.0608 -0.3054
 7577TIP3    H246927   2.316   0.972   1.914 -0.2782  3.1217 -0.3422
 7578TIP3   OH246928   4.370   2.778   1.394 -0.3768  0.0012  0.5883
 7578TIP3    H146929   4.387   2.857   1.445  0.3295  1.8359 -2.3006
 7578TIP3    H246930   4.392   2.801   1.304 -1.9454 -2.9183 -0.7012
 7579TIP3   OH246931   5.785   0.901   3.103  0.4824 -0.3813 -0.2241
 7579TIP3    H146932   5.814   0.879   3.191 -1.7386  3.3319  1.7001
 7579TIP3    H246933   5.821   0.989   3.087 -0.4710 -0.3182 -2.3452
 7580TIP3   OH246934   1.355   3.233   1.728  0.0118 -0.6606 -0.4842
 7580TIP3    H146935   1.260   3.227   1.730 -0.2110  1.0781 -2.4538
 7580TIP3    H246936   1.386   3.149   1.763 -2.1828 -0.5873  1.8707
 7581TIP3   OH246937   3.183   0.091   1.113 -0.1230 -0.2326 -0.0789
 7581TIP3    H146938   3.102   0.058   1.074  0.1148 -0.2314 -0.5879
 7581TIP3    H246939   3.154   0.139   1.191 -0.5867 -0.4661 -0.1028
 7582TIP3   OH246940   5.607   7.034   1.992 -0.5456  0.2058 -0.2695
 7582TIP3    H146941   5.578   6.957   2.042 -0.9696  1.1712  1.0038
 7582TIP3    H246942   5.689   7.005   1.951 -0.6776 -0.9181  0.2048
 7583TIP3   OH246943   7.019   3.372   0.465 -0.4362 -0.7917  0.0403
 7583TIP3    H146944   7.065   3.456   0.459  0.0341 -1.0603 -0.1600
 7583TIP3    H246945   6.937   3.387   0.418 -0.7745 -0.1685  0.8162
 7584TIP3   OH246946   2.259   1.848   2.278  0.5743  0.2857  0.0091
 7584TIP3    H146947   2.325   1.853   2.347 -0.5209 -0.2743  1.1524
 7584TIP3    H246948   2.192   1.912   2.305 -0.3899 -0.7295  0.0765
 7585TIP3   OH246949   2.072   5.134   3.728  0.6231 -0.2951  0.2654
 7585TIP3    H146950   2.076   5.175   3.814 -1.1105 -0.2296  0.3575
 7585TIP3    H246951   2.113   5.049   3.739  0.4795 -0.2549  1.1397
 7586TIP3   OH246952   4.043   4.004   1.066  0.3398 -0.2756 -0.0367
 7586TIP3    H146953   4.102   3.939   1.027  1.0040  0.1811  0.1990
 7586TIP3    H246954   4.088   4.034   1.145  0.2966  0.8893 -0.4411
 7587TIP3   OH246955   3.775   1.833   1.819 -0.0958  0.2187  0.1181
 7587TIP3    H146956   3.868   1.851   1.813 -0.0166 -0.0926  0.3678
 7587TIP3    H246957   3.733   1.900   1.764  0.3207 -0.1232 -0.6212
 7588TIP3   OH246958   0.494   6.890   1.559  0.2689  0.0351  0.3113
 7588TIP3    H146959   0.556   6.963   1.558  1.2922 -0.8050 -1.0958
 7588TIP3    H246960   0.417   6.923   1.513  0.6056  0.3448 -0.0402
 7589TIP3   OH246961   1.735   7.010   2.508 -0.6929  0.0466 -0.1971
 7589TIP3    H146962   1.703   7.082   2.455 -1.4411 -0.2791 -0.1960
 7589TIP3    H246963   1.657   6.959   2.530 -0.1718 -0.8108 -0.2702
 7590TIP3   OH246964   6.516   3.388   0.630  0.4504  0.1204  0.5912
 7590TIP3    H146965   6.471   3.442   0.695 -0.1163  0.1838  0.1552
 7590TIP3    H246966   6.546   3.311   0.678 -1.7451 -0.8401  0.5612
 7591TIP3   OH246967   2.802   5.928   2.576  0.6614  0.2210 -0.3173
 7591TIP3    H146968   2.769   5.996   2.517  3.1397  2.0594  0.2421
 7591TIP3    H246969   2.724   5.895   2.621 -0.9661  0.6429 -2.6468
 7592TIP3   OH246970   4.504   6.533   3.424 -0.4524 -0.4647  0.3719
 7592TIP3    H146971   4.487   6.624   3.448 -1.1301 -0.5588  0.2504
 7592TIP3    H246972   4.599   6.530   3.409 -0.3562  0.1113  0.8324
 7593TIP3   OH246973   3.110   0.517   0.687 -0.4194  0.3965  0.2880
 7593TIP3    H146974   3.197   0.529   0.649 -1.2495  1.2756 -1.4751
 7593TIP3    H246975   3.073   0.443   0.639 -1.2739  1.1559 -0.2686
 7594TIP3   OH246976   3.573   2.596   1.808  0.3926  0.0596 -0.5974
 7594TIP3    H146977   3.569   2.656   1.883 -2.1968 -0.8737  0.1384
 7594TIP3    H246978   3.481   2.583   1.784  1.0081 -1.9716 -2.0524
 7595TIP3   OH246979   5.803   0.268   1.707  0.0564 -0.3984  0.7050
 7595TIP3    H146980   5.884   0.271   1.656 -1.8685  1.2989 -2.5548
 7595TIP3    H246981   5.810   0.187   1.758  3.4488 -0.6534  0.0681
 7596TIP3   OH246982   0.677   4.276   0.434 -0.3041 -0.0581 -0.3468
 7596TIP3    H146983   0.689   4.292   0.340  0.1149 -0.2110 -0.3193
 7596TIP3    H246984   0.735   4.339   0.477 -0.6022  0.1083 -0.1860
 7597TIP3   OH246985   2.262   4.152   2.338  0.1112  0.3809  0.2251
 7597TIP3    H146986   2.246   4.058   2.336  1.7912  0.0486  0.8596
 7597TIP3    H246987   2.287   4.170   2.429 -1.8801  1.7710  0.5573
 7598TIP3   OH246988   6.151   7.322   2.002 -0.1175 -0.3263  0.4448
 7598TIP3    H146989   6.246   7.325   1.994 -0.1109  0.9056  0.7690
 7598TIP3    H246990   6.135   7.288   2.090 -0.0097 -1.6090 -0.0134
 7599TIP3   OH246991   2.543   3.919   3.458 -0.6966  0.2885  0.2693
 7599TIP3    H146992   2.562   3.826   3.469 -0.7971  0.2696  0.2762
 7599TIP3    H246993   2.480   3.923   3.386 -0.1751  0.4002 -0.1904
 7600TIP3   OH246994   0.942   4.775   3.198 -0.2882  0.2487  0.3293
 7600TIP3    H146995   0.849   4.763   3.176 -0.8666  0.5821  2.4019
 7600TIP3    H246996   0.943   4.788   3.293  1.6257  2.7880  0.0794
 7601TIP3   OH246997   5.295   3.226   1.112 -0.1835 -0.2137 -0.1599
 7601TIP3    H146998   5.231   3.288   1.146 -0.4701 -0.1552 -0.7900
 7601TIP3    H246999   5.242   3.155   1.076  0.1332 -2.0669  2.7192
 7602TIP3   OH247000   4.389   3.097   1.307 -0.5583 -0.6661  0.2071
 7602TIP3    H147001   4.389   3.079   1.401 -1.2525  1.1399  0.5923
 7602TIP3    H247002   4.304   3.138   1.291 -0.5082 -1.0853 -1.2591
 7603TIP3   OH247003   4.237   2.111   1.762 -0.0212 -0.0280  0.3243
 7603TIP3    H147004   4.152   2.148   1.734 -0.1609 -0.9079 -0.4526
 7603TIP3    H247005   4.300   2.148   1.700 -0.2073 -1.2964 -0.6673
 7604TIP3   OH247006   6.631   4.794   2.285  0.4220  0.3322  0.3790
 7604TIP3    H147007   6.683   4.728   2.239  0.8870  1.1456 -0.2979
 7604TIP3    H247008   6.666   4.795   2.374  0.7658  0.0480  0.2493
 7605TIP3   OH247009   1.942   1.255   0.978  0.4523  0.3197 -0.5561
 7605TIP3    H147010   1.955   1.347   0.956  1.4443  0.8668  2.0864
 7605TIP3    H247011   1.850   1.239   0.958  0.1191  2.0339 -0.5430
 7606TIP3   OH247012   6.537   2.103   2.921 -0.0368 -0.0045 -0.0525
 7606TIP3    H147013   6.623   2.085   2.960 -0.5909 -0.1777  1.1251
 7606TIP3    H247014   6.541   2.195   2.896  0.0569  0.3546  1.2003
 7607TIP3   OH247015   6.107   7.498   0.504 -0.4171 -0.3471 -0.2100
 7607TIP3    H147016   6.020   7.472   0.473 -2.0771  2.4681  1.6644
 7607TIP3    H247017   6.105   7.480   0.598  1.8337 -2.0157 -0.3881
 7608TIP3   OH247018   7.118   2.876   0.337 -0.4434 -0.0382  0.2361
 7608TIP3    H147019   7.176   2.831   0.275  0.5248 -1.8546  2.3174
 7608TIP3    H247020   7.143   2.968   0.331  1.0802 -0.4669 -0.5715
 7609TIP3   OH247021   3.779   6.662   0.774 -0.9396  0.3490 -0.1296
 7609TIP3    H147022   3.704   6.604   0.765 -0.7854  0.2605 -1.0243
 7609TIP3    H247023   3.838   6.635   0.704 -0.1781  0.5725  0.4166
 7610TIP3   OH247024   0.854   6.219   2.204  0.1288 -0.3565 -0.0861
 7610TIP3    H147025   0.766   6.237   2.237 -0.6536 -1.7817 -1.2661
 7610TIP3    H247026   0.847   6.235   2.109  1.4449  0.5713 -0.0407
 7611TIP3   OH247027   0.966   4.019   0.697  0.0582 -0.4591 -0.0319
 7611TIP3    H147028   0.914   4.027   0.616 -0.6755  0.0169  0.4703
 7611TIP3    H247029   0.979   4.110   0.725 -0.0501 -0.6403  0.6061
 7612TIP3   OH247030   5.605   5.887   1.563 -0.0976  0.2325 -0.0536
 7612TIP3    H147031   5.556   5.820   1.516  0.2433 -0.8942  1.1084
 7612TIP3    H247032   5.691   5.889   1.520  0.4720 -1.3259  0.9024
 7613TIP3   OH247033   4.777   7.256   1.612  0.1233  0.1042  0.5835
 7613TIP3    H147034   4.758   7.197   1.540  1.1344 -1.0248  1.1942
 7613TIP3    H247035   4.789   7.342   1.571 -0.7685 -0.2311 -0.3930
 7614TIP3   OH247036   1.284   3.706   1.760  0.3659  0.0262  0.2927
 7614TIP3    H147037   1.364   3.709   1.707 -0.1071 -0.3516 -0.4429
 7614TIP3    H247038   1.297   3.775   1.826  0.0513  1.9883 -1.5961
 7615TIP3   OH247039   5.952   7.219   2.593 -0.0109 -0.0239  0.3107
 7615TIP3    H147040   6.026   7.280   2.599  1.7504 -2.1482  2.1637
 7615TIP3    H247041   5.886   7.257   2.651  1.4449 -0.2740  2.2476
 7616TIP3   OH247042   5.787   2.273   2.468 -0.5601 -0.1799 -0.1736
 7616TIP3    H147043   5.826   2.191   2.499  1.6283  1.1194  0.6628
 7616TIP3    H247044   5.771   2.324   2.548 -0.5168  0.8039 -0.7808
 7617TIP3   OH247045   7.266   4.545   1.647 -0.4498  0.2156 -0.1460
 7617TIP3    H147046   7.301   4.471   1.696  2.1450  1.6053  0.3218
 7617TIP3    H247047   7.264   4.515   1.557  0.2110 -0.5658  0.0815
 7618TIP3   OH247048   2.504   3.537   0.505  0.0903 -0.0936 -0.1252
 7618TIP3    H147049   2.515   3.612   0.564  0.3800 -0.2635  0.0380
 7618TIP3    H247050   2.446   3.570   0.436  1.8614  0.9201 -1.1926
 7619TIP3   OH247051   1.343   1.230   1.640  0.3103 -0.1102  0.0890
 7619TIP3    H147052   1.363   1.263   1.553  0.3339 -1.4621 -0.4396
 7619TIP3    H247053   1.420   1.253   1.693  0.9597 -0.5991 -0.6225
 7620TIP3   OH247054   1.662   2.640   1.354 -0.3748 -0.7994 -0.5096
 7620TIP3    H147055   1.748   2.660   1.318 -0.8198 -0.7563 -1.6022
 7620TIP3    H247056   1.619   2.725   1.361  0.3662 -0.5793  1.9672
 7621TIP3   OH247057   0.013   6.363   0.654 -0.6424  1.4035 -0.1444
 7621TIP3    H147058  -0.034   6.312   0.587 -0.2249  2.5222 -1.3196
 7621TIP3    H247059  -0.054   6.416   0.695 -1.3345 -0.9127  1.9955
 7622TIP3   OH247060   2.340   2.775   1.227  0.6011 -0.6488 -0.6720
 7622TIP3    H147061   2.407   2.715   1.260  0.3866  0.0784  1.2191
 7622TIP3    H247062   2.388   2.854   1.204  0.5805 -0.6844 -0.8390
 7623TIP3   OH247063   1.445   0.314   2.628  0.0877 -0.0132  0.3205
 7623TIP3    H147064   1.480   0.366   2.700  1.2361  2.1961 -1.7044
 7623TIP3    H247065   1.396   0.377   2.575  2.0398 -0.7533 -2.5788
 7624TIP3   OH247066   5.950   1.677   1.533  0.0401  0.3452 -0.0653
 7624TIP3    H147067   5.870   1.679   1.585  0.1124 -0.1407  0.0678
 7624TIP3    H247068   5.943   1.754   1.476 -0.2350  0.6446  0.3667
 7625TIP3   OH247069   5.324   2.961   0.658 -0.1019 -0.6767  0.4883
 7625TIP3    H147070   5.417   2.978   0.674 -0.3103  0.0241  0.9918
 7625TIP3    H247071   5.280   3.039   0.692 -0.7239 -0.0644 -1.5461
 7626TIP3   OH247072   0.295   4.806   2.919 -0.0453 -0.1302 -0.0034
 7626TIP3    H147073   0.373   4.853   2.887 -0.1694 -0.2332 -0.4672
 7626TIP3    H247074   0.228   4.823   2.852  0.2123 -1.8152 -0.7266
 7627TIP3   OH247075   2.019   5.021   2.276  0.0942 -0.6283  0.4063
 7627TIP3    H147076   2.082   5.076   2.230  0.4238 -1.5365 -0.2674
 7627TIP3    H247077   2.012   4.942   2.222 -3.4319  0.3697 -0.8927
 7628TIP3   OH247078   3.938   6.912   2.324  0.0266  0.7375 -0.0083
 7628TIP3    H147079   3.951   6.838   2.264 -1.2502 -0.4944  1.1494
 7628TIP3    H247080   4.026   6.939   2.348  0.5311 -0.3476 -0.5482
 7629TIP3   OH247081   1.839   2.624   1.729 -0.1411 -0.0557  0.3427
 7629TIP3    H147082   1.927   2.656   1.711  0.5438 -1.0252  1.7417
 7629TIP3    H247083   1.848   2.529   1.733 -1.4160 -0.2296 -0.2384
 7630TIP3   OH247084   5.064   6.917   0.425 -0.4950 -0.1022 -0.8458
 7630TIP3    H147085   4.996   6.977   0.395 -0.5622  0.5717  0.5905
 7630TIP3    H247086   5.027   6.830   0.413 -0.7029  0.1539 -2.2191
 7631TIP3   OH247087   3.170   5.853   2.034 -0.0521  0.5025  0.0891
 7631TIP3    H147088   3.247   5.797   2.045 -1.2293 -2.0181 -2.8992
 7631TIP3    H247089   3.184   5.899   1.952 -1.6608  0.0055 -0.5091
 7632TIP3   OH247090   2.416   2.599   0.939  0.2501  0.1561 -0.8369
 7632TIP3    H147091   2.488   2.560   0.890  1.5977  0.8398  0.5329
 7632TIP3    H247092   2.444   2.688   0.957 -0.5005  0.1411  0.5771
 7633TIP3   OH247093   4.544   5.369   0.813  0.2254  0.0826 -0.8336
 7633TIP3    H147094   4.551   5.278   0.785  1.4753 -0.1974  0.2954
 7633TIP3    H247095   4.556   5.366   0.908 -0.7850  1.3211 -0.6350
 7634TIP3   OH247096   4.916   3.377   0.596 -0.5001  0.2002 -0.0138
 7634TIP3    H147097   4.887   3.320   0.667 -0.3507  0.3070  0.1348
 7634TIP3    H247098   4.858   3.356   0.522 -0.5673 -0.0068  0.0981
 7635TIP3   OH247099   1.817   1.225   1.819 -0.0717  0.3680 -0.3240
 7635TIP3    H147100   1.759   1.165   1.772 -0.4137 -0.7384  1.4217
 7635TIP3    H247101   1.811   1.198   1.910  2.0287  1.2024  0.1306
 7636TIP3   OH247102   3.834   4.549   2.518  0.2960 -0.5174 -0.5188
 7636TIP3    H147103   3.866   4.518   2.603 -0.0601  1.3667  0.3485
 7636TIP3    H247104   3.739   4.549   2.527  0.2831  1.1749 -0.3128
 7637TIP3   OH247105   3.347   5.381   2.222 -0.0736  0.2673  0.1473
 7637TIP3    H147106   3.376   5.311   2.280  1.3358  0.0734 -0.7567
 7637TIP3    H247107   3.301   5.337   2.151 -0.1297  0.3415  0.1371
 7638TIP3   OH247108   0.203   6.797   1.443  0.1738 -0.4664  0.1889
 7638TIP3    H147109   0.222   6.877   1.491 -0.7883  0.7202 -1.2848
 7638TIP3    H247110   0.222   6.819   1.351 -1.1184 -1.5473 -0.3851
 7639TIP3   OH247111   2.495   4.183   1.801 -0.0774  0.2032  0.3076
 7639TIP3    H147112   2.499   4.117   1.870  1.3156 -0.0788 -0.0295
 7639TIP3    H247113   2.575   4.234   1.811  0.5704 -0.3384 -1.5738
 7640TIP3   OH247114   2.452   5.975   0.591 -0.1605  0.6116  0.1072
 7640TIP3    H147115   2.485   6.049   0.641  1.6924  0.4651 -0.7941
 7640TIP3    H247116   2.490   5.898   0.633  1.2164  0.4726 -1.2745
 7641TIP3   OH247117   7.382   6.576   0.949  0.1351  0.3619  0.3622
 7641TIP3    H147118   7.288   6.595   0.957  0.4085  1.3596  1.5027
 7641TIP3    H247119   7.399   6.510   1.016  0.6836  1.9886  1.8999
 7642TIP3   OH247120   7.061   2.700   2.709  0.0335  0.3834  0.0873
 7642TIP3    H147121   7.053   2.606   2.695 -0.6415  0.3396  0.7250
 7642TIP3    H247122   6.995   2.721   2.775  1.9306  0.8448  1.9555
 7643TIP3   OH247123   0.306   1.051   1.328 -0.2293 -0.4906  0.1196
 7643TIP3    H147124   0.317   1.111   1.401  1.0154 -0.3502 -0.1636
 7643TIP3    H247125   0.284   1.107   1.254 -0.2324 -0.5036  0.1108
 7644TIP3   OH247126   1.269   6.015   2.136  0.0080  0.0997 -0.4347
 7644TIP3    H147127   1.215   6.081   2.094 -1.8198 -1.1730 -0.1746
 7644TIP3    H247128   1.359   6.042   2.117 -0.6547  2.6786 -0.2720
 7645TIP3   OH247129   3.200   2.679   2.295 -0.0414  0.3210 -0.3054
 7645TIP3    H147130   3.254   2.600   2.297 -0.0550  0.2718 -1.3212
 7645TIP3    H247131   3.257   2.747   2.331 -0.4848 -0.3893  1.8416
 7646TIP3   OH247132   5.543   3.509   1.161  0.4245  0.9980 -0.0806
 7646TIP3    H147133   5.581   3.458   1.089 -1.0488 -0.0126 -0.1949
 7646TIP3    H247134   5.458   3.537   1.128 -1.5727 -1.8754  2.1275
 7647TIP3   OH247135   2.149   0.831   1.318  1.1580 -0.2976  0.3204
 7647TIP3    H147136   2.157   0.820   1.223 -1.5226  0.3000 -0.0531
 7647TIP3    H247137   2.096   0.757   1.346  1.6771 -0.3044  1.3368
 7648TIP3   OH247138   3.881   7.257   0.449 -0.1733  0.4998 -0.6860
 7648TIP3    H147139   3.969   7.221   0.439  0.6523  2.0580  0.5633
 7648TIP3    H247140   3.823   7.180   0.446  1.4301 -0.8769  1.0243
 7649TIP3   OH247141   5.624   4.444   1.937  0.2584  0.2085  0.6254
 7649TIP3    H147142   5.635   4.364   1.886  0.0149 -0.8452  2.1348
 7649TIP3    H247143   5.664   4.513   1.885  2.0965 -1.2179  0.0837
 7650TIP3   OH247144   6.999   4.852   2.722 -0.5164 -0.0214 -0.0164
 7650TIP3    H147145   7.030   4.763   2.738 -0.6222  0.4166  3.1260
 7650TIP3    H247146   6.905   4.842   2.708 -0.7893 -0.3268  1.8057
 7651TIP3   OH247147   3.588   3.163   1.953  0.0127 -0.2133 -0.3591
 7651TIP3    H147148   3.649   3.165   1.879  1.7001  0.0202  0.9796
 7651TIP3    H247149   3.644   3.172   2.030 -1.6406 -0.9869  0.9889
 7652TIP3   OH247150   3.521   4.526   2.530  0.6099 -0.0989  0.0684
 7652TIP3    H147151   3.433   4.489   2.530  0.5328  0.0463 -0.9635
 7652TIP3    H247152   3.566   4.480   2.459  0.7903  1.1017 -0.6292
 7653TIP3   OH247153   6.943   5.157   2.521 -0.1885 -0.0361  0.0062
 7653TIP3    H147154   6.944   5.229   2.457  3.0906  0.0891  0.0146
 7653TIP3    H247155   6.945   5.078   2.467 -0.1272 -0.0023 -0.0423
 7654TIP3   OH247156   0.166   0.019   2.228 -0.3382 -0.0501  0.2903
 7654TIP3    H147157   0.111   0.071   2.287  0.5992  0.3786  0.8033
 7654TIP3    H247158   0.129  -0.069   2.232 -1.8041  0.4960 -0.4073
 7655TIP3   OH247159   1.962   5.516   0.624 -0.1124 -0.4083 -0.5931
 7655TIP3    H147160   1.939   5.607   0.605  0.0623 -0.4375 -0.9561
 7655TIP3    H247161   1.915   5.495   0.705  0.7423  0.3668  0.1324
 7656TIP3   OH247162   1.401   2.072   0.892 -0.1619  0.0603 -0.2726
 7656TIP3    H147163   1.397   1.978   0.910  0.7785  0.0874  0.1326
 7656TIP3    H247164   1.347   2.084   0.814 -1.2127 -0.6364  0.3284
 7657TIP3   OH247165   3.196   5.683   3.484 -0.3288  0.0940 -0.1158
 7657TIP3    H147166   3.180   5.689   3.578  0.0512  0.0342 -0.0423
 7657TIP3    H247167   3.259   5.754   3.466 -0.7200  0.3720 -0.3996
 7658TIP3   OH247168   0.041   1.349   1.843  0.4607  0.1658  0.2625
 7658TIP3    H147169  -0.037   1.328   1.894  0.3458 -0.2768 -0.0879
 7658TIP3    H247170   0.114   1.314   1.896  0.3065 -0.7185 -0.0849
 7659TIP3   OH247171   2.452   5.125   3.553 -0.0153 -0.2588  0.0744
 7659TIP3    H147172   2.490   5.119   3.466  0.9224 -0.3854  0.4769
 7659TIP3    H247173   2.375   5.181   3.542 -0.3831 -0.9459 -0.9738
 7660TIP3   OH247174   6.652   6.115   1.478 -0.0446  0.2769  0.5538
 7660TIP3    H147175   6.712   6.042   1.492 -1.7954 -1.5740 -0.9246
 7660TIP3    H247176   6.692   6.165   1.407  0.1394 -0.5230  0.0741
 7661TIP3   OH247177   2.204   1.328   1.686  0.0197 -0.4084 -0.0929
 7661TIP3    H147178   2.269   1.320   1.616 -0.1927 -1.5846 -0.1659
 7661TIP3    H247179   2.254   1.318   1.767  0.1082 -0.1052 -0.1103
 7662TIP3   OH247180   4.056   6.531   1.632  0.2008  0.2833  0.7175
 7662TIP3    H147181   4.140   6.550   1.592 -0.2205  1.0268  0.1565
 7662TIP3    H247182   3.997   6.515   1.558 -0.2459  0.1754  1.0898
 7663TIP3   OH247183   1.397   1.336   2.131  0.0648  0.8022 -0.0086
 7663TIP3    H147184   1.473   1.342   2.189 -1.2883  1.2371  1.8143
 7663TIP3    H247185   1.410   1.407   2.068  0.4951  1.7786  1.1343
 7664TIP3   OH247186   4.789   5.759   3.286 -0.1700 -0.1836  0.8116
 7664TIP3    H147187   4.777   5.665   3.272  0.8119 -0.5163  2.0682
 7664TIP3    H247188   4.850   5.786   3.217  0.8431 -0.8069  1.4492
 7665TIP3   OH247189   5.438   1.102   2.399  0.3386  0.0390  0.0923
 7665TIP3    H147190   5.510   1.039   2.407 -1.0609 -1.5870  0.6347
 7665TIP3    H247191   5.397   1.102   2.486  0.1778  1.5589  0.0359
 7666TIP3   OH247192   3.005   5.340   3.637 -0.6481 -0.1437  0.0933
 7666TIP3    H147193   3.056   5.272   3.591 -0.1921  0.5811 -0.4996
 7666TIP3    H247194   2.938   5.291   3.684 -0.4956 -0.9963 -0.5370
 7667TIP3   OH247195   7.507   4.683   1.604 -0.4154 -0.2346 -0.2448
 7667TIP3    H147196   7.414   4.675   1.626 -0.2923 -0.0638  0.3303
 7667TIP3    H247197   7.548   4.716   1.683  0.0664  0.1557 -0.6520
 7668TIP3   OH247198   4.261   1.826   2.013 -0.1399 -0.0840  0.4056
 7668TIP3    H147199   4.303   1.905   2.047  0.9531 -0.3124 -0.3786
 7668TIP3    H247200   4.332   1.776   1.972 -1.1302 -0.6024 -0.7370
 7669TIP3   OH247201   1.513   0.863   2.255  0.5132 -0.3885  0.1410
 7669TIP3    H147202   1.583   0.904   2.306  1.2368  0.2511 -1.3082
 7669TIP3    H247203   1.439   0.859   2.315 -0.1065  4.4178  0.0585
 7670TIP3   OH247204   6.000   7.200   1.741 -0.5356 -0.1050  0.2039
 7670TIP3    H147205   5.911   7.235   1.738 -0.4303  0.2158  0.6311
 7670TIP3    H247206   6.056   7.277   1.735 -0.2959  0.0704  3.0697
 7671TIP3   OH247207   2.277   3.637   1.824  0.1087  0.4284  0.3183
 7671TIP3    H147208   2.368   3.617   1.847  0.1825  0.3626 -0.0197
 7671TIP3    H247209   2.277   3.731   1.808 -0.3845  0.8789  2.5803
 7672TIP3   OH247210   6.772   6.334   2.457  0.4018  0.0865 -0.3240
 7672TIP3    H147211   6.850   6.384   2.433  0.3708  0.3987  0.2061
 7672TIP3    H247212   6.700   6.383   2.417  0.5663 -0.9555 -1.9956
 7673TIP3   OH247213   3.142   0.240   0.489 -0.3607  0.4552  0.7497
 7673TIP3    H147214   3.215   0.203   0.538  1.3418  2.3603 -0.1491
 7673TIP3    H247215   3.092   0.165   0.458  1.5826 -0.9683  0.9022
 7674TIP3   OH247216   7.258   5.266   0.818  0.3914 -0.3775  0.2252
 7674TIP3    H147217   7.278   5.327   0.889 -2.2073 -0.3287  1.0190
 7674TIP3    H247218   7.256   5.180   0.860  0.6127 -0.5855 -0.1827
 7675TIP3   OH247219   4.599   6.262   0.652 -0.2694 -0.0963 -0.5240
 7675TIP3    H147220   4.638   6.185   0.612 -0.2298 -1.5186  2.0352
 7675TIP3    H247221   4.517   6.232   0.689  0.5502  0.5598  2.0596
 7676TIP3   OH247222   1.740   4.839   2.392 -0.0540  0.2385 -0.3205
 7676TIP3    H147223   1.667   4.809   2.446  0.5224 -0.3660  0.1362
 7676TIP3    H247224   1.817   4.828   2.447  0.4358  0.4739 -0.9446
 7677TIP3   OH247225   1.654   3.865   2.808  0.1672 -0.1292 -0.2546
 7677TIP3    H147226   1.734   3.867   2.860 -0.8053 -0.8924  1.3333
 7677TIP3    H247227   1.590   3.914   2.859 -1.0448 -1.5895 -0.2893
 7678TIP3   OH247228   3.176   2.535   2.959  0.1195  0.4972 -1.1415
 7678TIP3    H147229   3.086   2.569   2.954 -0.2515 -0.4366 -1.0598
 7678TIP3    H247230   3.171   2.463   3.021  1.4137  1.8417  0.6180
 7679TIP3   OH247231   4.017   5.454   0.822  0.2789 -0.2380  0.0727
 7679TIP3    H147232   3.974   5.499   0.750  0.5076  1.6704  1.0742
 7679TIP3    H247233   4.111   5.464   0.804  0.3482  0.7209  0.8745
 7680TIP3   OH247234   3.637   6.811   2.705 -0.2375 -0.5510  0.2040
 7680TIP3    H147235   3.708   6.752   2.678 -0.0265 -0.0644 -0.3127
 7680TIP3    H247236   3.578   6.755   2.755 -0.5302 -1.4345 -1.0776
 7681TIP3   OH247237   0.813   2.875   0.997 -0.4736 -0.1240  0.6924
 7681TIP3    H147238   0.849   2.859   0.909 -0.4336 -1.3802  0.9154
 7681TIP3    H247239   0.740   2.934   0.983  2.0781  3.2497  0.2893
 7682TIP3   OH247240   2.652   4.659   2.288  0.2643  0.0822 -0.0736
 7682TIP3    H147241   2.610   4.583   2.328 -0.1403  0.6336  0.5801
 7682TIP3    H247242   2.595   4.681   2.214 -0.0372  0.2009  0.1890
 7683TIP3   OH247243   2.183   2.470   2.977  0.0534 -0.1945 -0.3484
 7683TIP3    H147244   2.102   2.419   2.977  0.5502 -1.0137  0.5609
 7683TIP3    H247245   2.249   2.410   2.942  0.0662  0.8732 -2.3388
 7684TIP3   OH247246   5.226   5.363   1.685 -0.4890  0.4176 -0.1458
 7684TIP3    H147247   5.180   5.331   1.762 -2.1661  0.8435 -0.9321
 7684TIP3    H247248   5.309   5.315   1.685 -2.2809 -2.9442 -0.5332
 7685TIP3   OH247249   1.396   5.109   1.899  0.0744 -0.5328  0.2549
 7685TIP3    H147250   1.472   5.052   1.897 -0.1653 -0.8372 -0.9508
 7685TIP3    H247251   1.422   5.183   1.954  0.9174 -1.0628  0.5764
 7686TIP3   OH247252   2.247   5.934   2.740 -0.8621 -0.1873  0.1977
 7686TIP3    H147253   2.256   5.853   2.790 -0.5978 -0.6289 -0.5534
 7686TIP3    H247254   2.235   5.906   2.649 -0.4212  0.6207 -0.1230
 7687TIP3   OH247255   6.876   0.240   2.525 -0.1731 -0.7436 -0.1375
 7687TIP3    H147256   6.924   0.261   2.605  0.4212 -2.6449  0.0508
 7687TIP3    H247257   6.799   0.192   2.556 -1.3371  0.7544 -0.5657
 7688TIP3   OH247258   1.217   6.675   2.054  0.1801 -0.3987 -0.1623
 7688TIP3    H147259   1.215   6.737   2.127 -1.3773 -1.8052  1.0577
 7688TIP3    H247260   1.137   6.624   2.064 -1.1208  0.5496 -3.9598
 7689TIP3   OH247261   5.907   1.908   2.925  0.1047 -0.1136 -0.3736
 7689TIP3    H147262   5.930   1.997   2.954 -0.1015  0.0490 -0.7045
 7689TIP3    H247263   5.835   1.882   2.982  1.4732 -0.8756  1.1084
 7690TIP3   OH247264   7.438   4.998   1.560 -0.0760 -0.2956 -0.7095
 7690TIP3    H147265   7.479   5.040   1.483 -0.8780  0.1411 -0.9097
 7690TIP3    H247266   7.507   4.999   1.626 -0.0859  1.5010 -0.6605
 7691TIP3   OH247267   6.169   7.448   2.289 -0.1368  0.0541 -0.3294
 7691TIP3    H147268   6.259   7.454   2.258 -0.3308 -0.7734 -1.0975
 7691TIP3    H247269   6.177   7.422   2.381  0.4024  0.2547 -0.3151
 7692TIP3   OH247270   3.156   0.194   2.829 -0.7037 -0.6188 -0.5215
 7692TIP3    H147271   3.195   0.264   2.776 -0.3230 -0.5937 -0.2084
 7692TIP3    H247272   3.078   0.234   2.867  0.6726  0.3695  1.4588
 7693TIP3   OH247273   2.322   6.305   8.464 -0.2342 -0.1167  0.4586
 7693TIP3    H147274   2.247   6.317   8.523 -0.6938  1.2410 -0.3371
 7693TIP3    H247275   2.282   6.295   8.377  0.4246 -2.0663  0.3530
 7694TIP3   OH247276   5.214   2.933   2.176 -0.3467 -0.6169 -0.0553
 7694TIP3    H147277   5.184   2.889   2.097  0.4530  1.5031 -1.6547
 7694TIP3    H247278   5.310   2.930   2.171 -0.2617  1.0452 -0.1510
 7695TIP3   OH247279   0.303   6.834   1.176  0.0408  0.2004  0.3654
 7695TIP3    H147280   0.248   6.791   1.111  0.0764  0.3751  0.2203
 7695TIP3    H247281   0.390   6.795   1.163  0.3978  1.3052 -0.6958
 7696TIP3   OH247282   4.926   4.885   2.864  0.5561 -0.1087  0.3753
 7696TIP3    H147283   4.840   4.867   2.902  0.3963 -0.7478 -0.2758
 7696TIP3    H247284   4.984   4.891   2.940  0.3553 -1.9622  0.7282
 7697TIP3   OH247285   6.120   0.317   0.375  0.0737  0.5840  0.0171
 7697TIP3    H147286   6.214   0.317   0.392 -0.0881  0.3065  0.9459
 7697TIP3    H247287   6.081   0.359   0.451 -0.5970  0.2043 -0.1066
 7698TIP3   OH247288   3.512   3.670   0.886  0.2865  0.3812  0.5195
 7698TIP3    H147289   3.514   3.580   0.853  0.1683  0.0802  1.3295
 7698TIP3    H247290   3.429   3.678   0.932  1.3123  0.1399  2.5216
 7699TIP3   OH247291   6.674   1.279   0.830 -0.2738  0.0671 -0.4081
 7699TIP3    H147292   6.761   1.241   0.841 -0.5416 -0.3506  0.3493
 7699TIP3    H247293   6.614   1.205   0.835 -0.6975  0.3921 -0.5920
 7700TIP3   OH247294   1.424   6.213   1.280 -0.5910 -0.2180  0.7309
 7700TIP3    H147295   1.394   6.287   1.227  2.2739  1.0485  0.7021
 7700TIP3    H247296   1.391   6.136   1.234  0.3674  0.9013 -2.0509
 7701TIP3   OH247297   1.183   3.694   2.588 -0.2067  0.0749 -0.1902
 7701TIP3    H147298   1.273   3.672   2.608  0.2913  2.1627  0.1558
 7701TIP3    H247299   1.148   3.731   2.669 -0.5202  1.6769 -1.0111
 7702TIP3   OH247300   4.067   1.204   3.133  0.2669 -0.4018 -0.4985
 7702TIP3    H147301   4.109   1.220   3.049  1.1098  1.0562  0.1786
 7702TIP3    H247302   4.117   1.255   3.196 -0.2492 -1.5921  0.9346
 7703TIP3   OH247303   6.829   6.608   1.408  0.3770 -0.0235 -0.1632
 7703TIP3    H147304   6.740   6.629   1.437 -0.1279  2.2524 -2.9758
 7703TIP3    H247305   6.884   6.676   1.447  0.2954  0.7228 -1.3215
 7704TIP3   OH247306   3.252   5.872   0.480  0.1350 -0.3224 -0.4515
 7704TIP3    H147307   3.164   5.838   0.494  1.0739 -2.5326  0.8052
 7704TIP3    H247308   3.242   5.967   0.474 -2.2851 -0.5144 -0.1756
 7705TIP3   OH247309   2.650   5.578   1.034 -0.2288  0.1926 -0.3348
 7705TIP3    H147310   2.671   5.520   1.108 -1.9441 -2.0155 -1.4492
 7705TIP3    H247311   2.708   5.549   0.964 -1.2518 -0.3811 -0.9687
 7706TIP3   OH247312   2.858   0.464   2.729 -0.0014 -0.1244 -0.0260
 7706TIP3    H147313   2.799   0.513   2.673 -2.4366 -0.5340  1.9917
 7706TIP3    H247314   2.941   0.511   2.725 -0.7418  1.0798 -2.1733
 7707TIP3   OH247315   2.478   3.024   2.262  0.0197 -0.1384 -0.1790
 7707TIP3    H147316   2.424   3.093   2.300 -2.3608 -1.2053 -1.4055
 7707TIP3    H247317   2.467   3.035   2.167  1.3682 -0.8866 -0.4475
 7708TIP3   OH247318   2.430   7.353   1.938 -0.2280 -0.0269  0.0550
 7708TIP3    H147319   2.365   7.419   1.961 -0.4940  0.0253 -0.7980
 7708TIP3    H247320   2.507   7.403   1.909 -0.6326 -0.0634 -1.1506
 7709TIP3   OH247321   5.935   6.116   1.816 -0.1325 -0.2378 -0.1825
 7709TIP3    H147322   5.929   6.054   1.890 -1.3577 -0.8104 -0.7339
 7709TIP3    H247323   6.028   6.119   1.795  0.3426  0.3993  1.7574
 7710TIP3   OH247324   3.781   6.728   1.885 -0.2695  0.2187 -0.8370
 7710TIP3    H147325   3.827   6.646   1.906 -0.7537  0.0928 -0.2176
 7710TIP3    H247326   3.737   6.752   1.967 -0.8886  0.6069 -1.2723
 7711TIP3   OH247327   4.873   0.624   1.464 -0.0186 -0.2949  0.0262
 7711TIP3    H147328   4.957   0.596   1.500 -0.2636  1.2346  1.8954
 7711TIP3    H247329   4.896   0.683   1.392  0.5495  0.8351  1.0997
 7712TIP3   OH247330   2.521   2.215   2.483  0.6284 -0.3500 -0.6358
 7712TIP3    H147331   2.487   2.239   2.396 -1.7177 -0.8167  0.0789
 7712TIP3    H247332   2.564   2.295   2.515 -0.7503  0.6514 -1.1895
 7713TIP3   OH247333   0.429   1.696   2.039  0.5105  0.7454  0.4168
 7713TIP3    H147334   0.462   1.674   2.126  0.3259  1.8436  0.7795
 7713TIP3    H247335   0.363   1.763   2.055 -0.9564 -0.4373 -0.4083
 7714TIP3   OH247336   3.591   5.846   1.146 -0.4241 -0.3419  0.6523
 7714TIP3    H147337   3.539   5.926   1.136 -0.4499 -0.1731  1.9666
 7714TIP3    H247338   3.628   5.852   1.234  0.1559 -1.4443  0.5058
 7715TIP3   OH247339   1.518   6.054   0.611  0.7532 -0.0352 -0.2345
 7715TIP3    H147340   1.423   6.051   0.620  0.4549 -1.3880 -2.9432
 7715TIP3    H247341   1.535   6.135   0.564  0.9326  0.0805  0.0278
 7716TIP3   OH247342   0.261   0.054   0.893  0.3055  0.6739  0.0277
 7716TIP3    H147343   0.166   0.046   0.905  0.5373  0.7479  2.4464
 7716TIP3    H247344   0.271   0.124   0.829 -1.2617  1.4208  0.5376
 7717TIP3   OH247345   6.452   6.324   3.407 -0.2745 -1.0252 -0.1638
 7717TIP3    H147346   6.531   6.376   3.400 -0.2239 -1.3225 -2.5180
 7717TIP3    H247347   6.410   6.331   3.321 -2.5619 -1.2856  0.8366
 7718TIP3   OH247348   4.580   6.967   0.957  0.0979 -0.2502  0.4136
 7718TIP3    H147349   4.527   7.002   1.029 -1.3276 -1.9227  0.2307
 7718TIP3    H247350   4.550   6.877   0.947  2.6001 -1.0857 -0.1220
 7719TIP3   OH247351   5.685   0.261   0.847 -0.2370  0.0596 -0.6225
 7719TIP3    H147352   5.701   0.309   0.766 -1.5122  0.2309 -0.7988
 7719TIP3    H247353   5.704   0.325   0.916 -0.4976  0.3591 -0.8239
 7720TIP3   OH247354   3.300   2.732   2.766  0.1700  0.2313 -0.1661
 7720TIP3    H147355   3.324   2.672   2.695  2.1585 -0.1349  0.7441
 7720TIP3    H247356   3.249   2.678   2.826 -0.4994  0.2319 -0.7179
 7721TIP3   OH247357   1.198   6.341   2.086 -0.4007 -0.4548  0.5257
 7721TIP3    H147358   1.190   6.380   1.999  0.0237 -1.4366  0.0208
 7721TIP3    H247359   1.144   6.395   2.142  0.2770  0.9217 -0.1060
 7722TIP3   OH247360   4.500   3.548   1.362  0.0289  0.2957  0.3036
 7722TIP3    H147361   4.429   3.560   1.298 -0.4735  0.3113  0.8540
 7722TIP3    H247362   4.547   3.471   1.332 -0.3046  0.2077  0.0003
 7723TIP3   OH247363   3.560   4.617   1.815  0.6492  0.1499 -0.3938
 7723TIP3    H147364   3.576   4.687   1.878 -0.9774 -0.4621  0.7796
 7723TIP3    H247365   3.561   4.661   1.730 -0.4744  1.6694  0.3200
 7724TIP3   OH247366   0.534   3.667   1.558  0.0555  0.0980  0.0946
 7724TIP3    H147367   0.444   3.649   1.587 -0.1279  1.5419  0.4723
 7724TIP3    H247368   0.568   3.730   1.622  0.8255  0.7237 -0.9089
 7725TIP3   OH247369   1.170   2.357   2.436 -0.5301 -0.6533  0.1474
 7725TIP3    H147370   1.156   2.448   2.463 -0.9376 -0.2482 -1.3557
 7725TIP3    H247371   1.161   2.307   2.517 -0.2566  0.6420  1.0132
 7726TIP3   OH247372   2.268   0.539   1.008 -0.1374  0.1864 -0.5012
 7726TIP3    H147373   2.356   0.521   1.040 -0.6007  0.1741  0.8084
 7726TIP3    H247374   2.250   0.629   1.034  0.0398  0.7118 -2.0956
 7727TIP3   OH247375   6.170   0.994   1.340  0.5419 -0.0360 -0.9114
 7727TIP3    H147376   6.243   1.034   1.387  1.0884 -0.0358 -1.7502
 7727TIP3    H247377   6.100   1.059   1.346  0.3134 -0.3907  0.6210
 7728TIP3   OH247378   3.583   1.609   2.040  0.5729 -0.4424 -0.2300
 7728TIP3    H147379   3.557   1.528   1.998 -0.1160  0.4131 -1.5275
 7728TIP3    H247380   3.575   1.676   1.972  0.3443  0.8532  1.0009
 7729TIP3   OH247381   4.442   4.895   1.871 -0.0207  0.0696 -0.2383
 7729TIP3    H147382   4.425   4.889   1.965  1.8008  1.1854  0.2107
 7729TIP3    H247383   4.431   4.988   1.851 -0.4747 -0.1690 -1.1640
 7730TIP3   OH247384   0.734   6.864   2.650 -0.4502 -0.5445  0.7037
 7730TIP3    H147385   0.692   6.785   2.616 -1.0749 -0.4832  1.3002
 7730TIP3    H247386   0.740   6.849   2.744  1.5841 -0.8739  0.5655
 7731TIP3   OH247387   2.111   6.623   1.539 -0.2475  0.3662 -0.2785
 7731TIP3    H147388   2.170   6.645   1.467  0.8268 -2.0232 -0.2183
 7731TIP3    H247389   2.064   6.546   1.508 -0.2730 -0.2809  1.2944
 7732TIP3   OH247390   1.503   1.820   1.408  0.6708 -0.1657  0.9690
 7732TIP3    H147391   1.571   1.824   1.341 -0.0639  0.7130  0.2395
 7732TIP3    H247392   1.520   1.739   1.455  1.4173 -0.6324 -0.0693
 7733TIP3   OH247393   6.978   6.785   1.534  0.0084 -0.3520  0.5248
 7733TIP3    H147394   6.996   6.859   1.475  0.2100 -0.5690  0.3135
 7733TIP3    H247395   6.953   6.826   1.617 -0.6147 -0.0397  0.1910
 7734TIP3   OH247396   0.692   3.852   1.976 -0.3251  0.5355  0.2394
 7734TIP3    H147397   0.646   3.864   2.059 -3.6582 -0.2583 -1.3348
 7734TIP3    H247398   0.740   3.934   1.963 -0.4568  1.0165  2.4854
 7735TIP3   OH247399   2.302   7.212   1.729 -0.4737 -0.1826 -0.2286
 7735TIP3    H147400   2.388   7.199   1.690 -0.5380 -1.4848  0.0063
 7735TIP3    H247401   2.317   7.267   1.805 -0.1231  1.0960 -1.2007
 7736TIP3   OH247402   5.393   4.014   2.629 -0.7183  0.3883 -0.2026
 7736TIP3    H147403   5.391   3.941   2.691  0.9051  0.5158  0.0330
 7736TIP3    H247404   5.325   4.073   2.659 -0.7117 -0.0929  0.7816
 7737TIP3   OH247405   5.130   7.279   1.767 -0.1750  0.1754  0.2430
 7737TIP3    H147406   5.108   7.248   1.855 -0.9603 -0.5468 -0.1923
 7737TIP3    H247407   5.209   7.332   1.779  0.6078 -1.1506  1.1700
 7738TIP3   OH247408   0.192   1.498   2.087 -0.2274  0.6296 -0.7894
 7738TIP3    H147409   0.199   1.409   2.123  0.7862  0.2941 -1.7630
 7738TIP3    H247410   0.256   1.500   2.016 -1.2146  1.7150 -1.6729
 7739TIP3   OH247411   1.887   3.145   2.476 -0.5523 -0.0692 -0.2814
 7739TIP3    H147412   1.896   3.080   2.406 -1.8626  0.5523 -1.0732
 7739TIP3    H247413   1.944   3.217   2.449 -1.2776  0.2955 -0.9025
 7740TIP3   OH247414   6.563   5.333   1.882 -0.2351  0.0735  0.1079
 7740TIP3    H147415   6.593   5.308   1.969  0.9636 -0.3668 -0.4198
 7740TIP3    H247416   6.468   5.341   1.891 -0.5605 -3.1162  0.6996
 7741TIP3   OH247417   0.181   4.733   0.724 -0.2029 -0.2142 -0.2550
 7741TIP3    H147418   0.142   4.783   0.796 -1.2493  0.0099 -0.9598
 7741TIP3    H247419   0.245   4.793   0.686 -0.9116  0.3351 -0.6129
 7742TIP3   OH247420   7.117   5.486   0.358 -0.6573  0.0776 -0.1800
 7742TIP3    H147421   7.043   5.540   0.386 -0.4122 -0.6522  2.1090
 7742TIP3    H247422   7.080   5.399   0.346 -0.5080  0.1117 -0.9052
 7743TIP3   OH247423   1.722   2.142   0.678 -0.3797  0.3913  0.5238
 7743TIP3    H147424   1.781   2.215   0.656 -1.3089  0.7463 -0.9373
 7743TIP3    H247425   1.636   2.171   0.646 -1.0959 -0.6513  1.4591
 7744TIP3   OH247426   4.669   2.342   1.788 -0.0431  0.2504  0.2663
 7744TIP3    H147427   4.577   2.316   1.785  0.3509 -1.2104 -0.1131
 7744TIP3    H247428   4.703   2.319   1.701  0.4997  1.5219  0.1248
 7745TIP3   OH247429   4.950   3.005   2.661  0.3810  0.7203 -0.3786
 7745TIP3    H147430   5.016   3.003   2.591  0.4493 -2.5126 -0.3496
 7745TIP3    H247431   4.979   2.938   2.723 -1.6431  0.9450  0.8954
 7746TIP3   OH247432   7.321   3.629   1.899  0.2571 -0.0931 -1.0555
 7746TIP3    H147433   7.382   3.577   1.952 -0.8490  0.3910  0.7929
 7746TIP3    H247434   7.377   3.694   1.856  1.0894  0.2399  0.4545
 7747TIP3   OH247435   6.252   2.346   0.895 -0.2802  0.3539 -0.3395
 7747TIP3    H147436   6.228   2.257   0.871  0.4697  0.1012 -0.1785
 7747TIP3    H247437   6.247   2.348   0.991 -0.7808  0.6291 -0.3693
 7748TIP3   OH247438   7.125   5.732   2.293  0.5354 -0.3015 -0.6239
 7748TIP3    H147439   7.207   5.782   2.288  0.2449  0.5081  1.7753
 7748TIP3    H247440   7.064   5.790   2.337 -0.2633 -2.2241  0.9424
 7749TIP3   OH247441   1.593   0.092   1.460  0.3966 -0.0977  0.2609
 7749TIP3    H147442   1.644   0.155   1.512 -0.0209  0.7835 -0.3628
 7749TIP3    H247443   1.613   0.114   1.369 -0.4932 -0.2337  0.0218
 7750TIP3   OH247444   2.279   4.255   0.675  0.3571 -0.1231  0.2240
 7750TIP3    H147445   2.224   4.325   0.640 -0.0441 -1.0410 -1.0824
 7750TIP3    H247446   2.274   4.265   0.770  0.1610  1.4887  0.0683
 7751TIP3   OH247447   7.175   0.219   2.086  0.5405 -0.1694 -0.4422
 7751TIP3    H147448   7.127   0.137   2.076  1.0744 -0.4326 -0.8630
 7751TIP3    H247449   7.248   0.212   2.025  0.3514  0.8007 -0.7969
 7752TIP3   OH247450   5.349   1.733   2.121  0.1688 -0.0481 -0.4996
 7752TIP3    H147451   5.281   1.773   2.176  1.0999  0.1839  0.5251
 7752TIP3    H247452   5.328   1.762   2.032 -0.4813  0.8729 -0.0652
 7753TIP3   OH247453   7.125   6.856   1.832 -0.5381 -0.4649 -0.4837
 7753TIP3    H147454   7.181   6.831   1.758  2.9077 -0.3565  1.8214
 7753TIP3    H247455   7.140   6.950   1.842  1.5845 -0.9305  2.0150
 7754TIP3   OH247456   5.630   4.813   0.424  0.4033  0.0273 -0.1046
 7754TIP3    H147457   5.658   4.791   0.513 -1.3386 -1.0337  0.2421
 7754TIP3    H247458   5.710   4.806   0.371  1.1907 -0.7643  1.1333
 7755TIP3   OH247459   0.885   3.630   1.491 -0.3019  0.0703 -0.2304
 7755TIP3    H147460   0.878   3.698   1.423  3.0958  0.7757 -0.0231
 7755TIP3    H247461   0.854   3.673   1.571  0.5039  0.9371 -0.3713
 7756TIP3   OH247462   1.223   0.928   0.605  0.3211  0.8646 -0.7346
 7756TIP3    H147463   1.176   0.853   0.571  1.4975  0.3534 -1.2830
 7756TIP3    H247464   1.192   1.002   0.553 -1.7432  1.0325  0.6051
 7757TIP3   OH247465   2.678   2.115   2.020 -0.3032 -0.2459  0.0506
 7757TIP3    H147466   2.599   2.061   2.023 -0.3467 -0.2018 -0.2488
 7757TIP3    H247467   2.730   2.077   1.949  0.3245 -0.7882  0.7851
 7758TIP3   OH247468   5.177   3.050   1.740 -0.3086 -0.1757 -0.4445
 7758TIP3    H147469   5.122   3.013   1.671 -2.0425  0.2369  0.6667
 7758TIP3    H247470   5.203   2.975   1.793  0.1942 -0.3690 -0.9570
 7759TIP3   OH247471   3.681   2.594   1.502 -0.4930 -0.6036 -0.0869
 7759TIP3    H147472   3.588   2.577   1.485 -1.1593  1.9455  0.6517
 7759TIP3    H247473   3.708   2.653   1.432 -0.2283  0.9003  1.2220
 7760TIP3   OH247474   6.125   6.520   1.482 -0.1756 -0.3515 -0.3689
 7760TIP3    H147475   6.149   6.504   1.573  2.3214  0.8447 -0.7205
 7760TIP3    H247476   6.158   6.443   1.435  0.3977 -0.0424 -0.4869
 7761TIP3   OH247477   7.313   6.255   2.305  0.3246  0.2464  0.3542
 7761TIP3    H147478   7.278   6.172   2.336  0.2410  0.2210  0.1951
 7761TIP3    H247479   7.328   6.306   2.384 -2.3225  1.1888  0.3359
 7762TIP3   OH247480   0.988   1.202   1.074 -0.2400  0.0141  0.2599
 7762TIP3    H147481   1.051   1.212   1.145  0.7839 -2.9959 -0.1020
 7762TIP3    H247482   1.033   1.234   0.996 -0.5991  1.3780  0.5951
 7763TIP3   OH247483   2.929   2.787   0.326 -0.6922 -0.5116 -0.2151
 7763TIP3    H147484   2.854   2.846   0.315 -1.5864 -1.3641  0.9098
 7763TIP3    H247485   3.002   2.845   0.346 -0.9458  0.3695 -1.6827
 7764TIP3   OH247486   4.648   5.765   1.185 -0.1409  0.6152 -0.0709
 7764TIP3    H147487   4.628   5.775   1.278  2.0153  0.9246  0.4223
 7764TIP3    H247488   4.736   5.802   1.176  0.9246 -2.0137 -1.6347
 7765TIP3   OH247489   6.032   5.414   1.527  0.1465  0.2591 -0.0741
 7765TIP3    H147490   6.121   5.420   1.562 -0.0160 -1.5455  0.7706
 7765TIP3    H247491   6.043   5.394   1.434  0.6091  0.2115 -0.0089
 7766TIP3   OH247492   1.365   4.799   3.181 -0.8670 -0.6829  0.6122
 7766TIP3    H147493   1.440   4.850   3.213 -0.6483 -0.7888  0.2723
 7766TIP3    H247494   1.351   4.732   3.249 -1.4575  0.1137  1.2942
 7767TIP3   OH247495   6.845   3.365   2.047 -0.3295  0.7464 -0.0810
 7767TIP3    H147496   6.837   3.271   2.027 -1.1383  1.0604 -1.3375
 7767TIP3    H247497   6.923   3.370   2.102 -0.8597 -0.7848  0.8762
 7768TIP3   OH247498   0.558   7.033   2.479  0.3812 -0.3794 -0.5162
 7768TIP3    H147499   0.554   7.108   2.539  3.2005 -1.1309  0.8054
 7768TIP3    H247500   0.646   6.997   2.493  0.4509 -1.7592 -3.7720
 7769TIP3   OH247501   3.286   3.997   4.140  0.0091  0.3841 -0.0339
 7769TIP3    H147502   3.208   3.943   4.129  0.3319 -0.6319  2.0647
 7769TIP3    H247503   3.337   3.983   4.061 -1.2589 -0.0933 -0.7922
 7770TIP3   OH247504   5.102   5.874   0.983 -0.4291 -0.0347 -0.2269
 7770TIP3    H147505   5.049   5.813   0.932  1.4179  0.2857 -2.7338
 7770TIP3    H247506   5.115   5.949   0.925  2.7502 -0.1480  0.1661
 7771TIP3   OH247507   6.218   2.201   1.140  0.3916 -0.0387  0.7282
 7771TIP3    H147508   6.268   2.124   1.112 -0.0492 -0.8628  2.1298
 7771TIP3    H247509   6.272   2.241   1.208 -0.0876  0.0051  1.0828
 7772TIP3   OH247510   3.414   2.349   1.736 -0.3914  0.1343  0.1685
 7772TIP3    H147511   3.502   2.372   1.705 -0.2546 -0.8387 -0.1872
 7772TIP3    H247512   3.360   2.422   1.706  0.3162  0.8436  0.5580
 7773TIP3   OH247513   0.367   1.091   2.001  0.0356  0.0858 -0.3330
 7773TIP3    H147514   0.409   1.101   1.915 -0.0104  0.1658 -0.3466
 7773TIP3    H247515   0.273   1.096   1.983 -0.0782 -1.9485 -0.5466
 7774TIP3   OH247516   4.619   2.056   1.952 -0.1660  0.1314 -0.1609
 7774TIP3    H147517   4.678   2.129   1.930  1.3817 -0.5983  1.3501
 7774TIP3    H247518   4.631   1.993   1.881  1.5109 -0.3443  0.5038
 7775TIP3   OH247519   1.769   3.567   3.236  0.4308  0.2947 -0.3004
 7775TIP3    H147520   1.850   3.615   3.256 -0.3026  2.6863 -2.4387
 7775TIP3    H247521   1.706   3.597   3.302  0.1069  2.0895 -1.3519
 7776TIP3   OH247522   2.560   7.366   1.563  0.2926  0.0664 -0.8155
 7776TIP3    H147523   2.507   7.446   1.566  1.1969  0.8075 -2.7351
 7776TIP3    H247524   2.607   7.365   1.647 -0.6832  0.8321 -0.2328
 7777TIP3   OH247525   5.209   2.118   0.652 -0.5610  0.2790 -0.0577
 7777TIP3    H147526   5.125   2.118   0.698 -1.0753  2.5146 -0.8814
 7777TIP3    H247527   5.187   2.137   0.561  0.6636 -1.5276 -0.7718
 7778TIP3   OH247528   3.632   4.299   1.076 -0.0976  0.4152  0.6923
 7778TIP3    H147529   3.665   4.210   1.091 -0.1052 -0.1025 -1.8853
 7778TIP3    H247530   3.693   4.356   1.123  1.9864 -0.8006 -0.3893
 7779TIP3   OH247531   5.473   1.032   1.813 -0.0816 -0.1026  0.1658
 7779TIP3    H147532   5.510   1.102   1.867 -0.1021 -0.9653  1.3323
 7779TIP3    H247533   5.425   0.977   1.875 -1.1484 -0.4485 -0.9305
 7780TIP3   OH247534   7.518   1.984   0.728  0.7198 -0.0053 -0.0913
 7780TIP3    H147535   7.515   1.889   0.737 -1.7259 -0.0196 -0.2578
 7780TIP3    H247536   7.449   2.004   0.664  1.4191  1.8574 -0.3177
 7781TIP3   OH247537   6.814   6.366   2.143  0.0272  0.3954 -0.2757
 7781TIP3    H147538   6.730   6.402   2.114 -0.4171 -1.5102 -1.5616
 7781TIP3    H247539   6.791   6.296   2.204  0.7480  0.6227  0.2747
 7782TIP3   OH247540   0.591   3.033   0.903  0.5559  0.0465  0.4271
 7782TIP3    H147541   0.568   3.036   0.810  1.1665  2.0298  0.3056
 7782TIP3    H247542   0.539   3.103   0.943 -0.8630 -1.7349  1.9139
 7783TIP3   OH247543   3.306   4.742   0.420 -0.0028  0.0614 -0.8551
 7783TIP3    H147544   3.238   4.685   0.385  0.2315 -0.5520 -0.3507
 7783TIP3    H247545   3.323   4.707   0.508  1.2917 -0.0981 -1.1520
 7784TIP3   OH247546   6.768   2.536   1.801 -0.3226 -0.3490  0.3267
 7784TIP3    H147547   6.711   2.462   1.819 -1.2939  0.2741 -0.0878
 7784TIP3    H247548   6.722   2.612   1.836 -0.3045  0.3178 -1.0123
 7785TIP3   OH247549   5.746   6.324   2.683 -0.3784  0.2179  0.4595
 7785TIP3    H147550   5.743   6.270   2.763 -1.8369 -0.6799 -0.1725
 7785TIP3    H247551   5.834   6.308   2.648 -0.5514 -1.2886  0.6180
 7786TIP3   OH247552   7.392   2.202   1.667  0.5325  0.6493  0.2785
 7786TIP3    H147553   7.403   2.134   1.602  2.0936 -0.1464  1.3166
 7786TIP3    H247554   7.481   2.231   1.687  0.0001  1.8023  1.0897
 7787TIP3   OH247555   4.506   1.215   1.122  0.5424 -0.6957 -0.3593
 7787TIP3    H147556   4.432   1.154   1.115  0.8895 -1.2280  0.4830
 7787TIP3    H247557   4.503   1.247   1.212  0.9233 -0.1807 -0.5238
 7788TIP3   OH247558   2.146   3.489   9.507  0.0290 -0.4165 -0.3457
 7788TIP3    H147559   2.100   3.418   9.552  2.5417 -1.6153  0.5249
 7788TIP3    H247560   2.233   3.492   9.548  0.5764  2.1100 -1.4710
 7789TIP3   OH247561   3.425   6.764   2.249 -0.2576  0.6997  0.1748
 7789TIP3    H147562   3.422   6.859   2.242 -0.3471  0.6090 -1.1741
 7789TIP3    H247563   3.516   6.741   2.234 -0.5325  0.4635 -1.1871
 7790TIP3   OH247564   0.935   4.763   3.467 -0.0830 -0.3231  0.4459
 7790TIP3    H147565   0.860   4.707   3.450 -1.3919  1.1856  1.0326
 7790TIP3    H247566   0.904   4.826   3.531  1.1728  1.4039 -0.5692
 7791TIP3   OH247567   0.162   4.652   2.402 -0.0007 -0.1866 -0.4637
 7791TIP3    H147568   0.255   4.647   2.423 -0.2203  1.9483  1.4286
 7791TIP3    H247569   0.118   4.633   2.485 -1.2481 -0.7240 -1.2287
 7792TIP3   OH247570   4.334   7.137   1.042 -0.3799  0.1950 -0.1918
 7792TIP3    H147571   4.301   7.060   1.087 -0.8975  1.0200  0.8666
 7792TIP3    H247572   4.317   7.119   0.949  0.2185 -1.2826 -0.0578
 7793TIP3   OH247573   7.187   5.875   3.273 -0.2632 -0.5220  0.0268
 7793TIP3    H147574   7.214   5.967   3.274 -1.4834 -0.1305 -0.7612
 7793TIP3    H247575   7.092   5.878   3.265 -0.2145 -1.8538 -1.6204
 7794TIP3   OH247576   2.370   2.293   2.913  0.5083 -0.2443 -0.3508
 7794TIP3    H147577   2.456   2.335   2.919  0.8798 -0.9112 -0.8777
 7794TIP3    H247578   2.366   2.237   2.989  0.6998 -0.4940 -0.5223
 7795TIP3   OH247579   6.994   2.846   2.040  0.3960 -1.0771 -1.0959
 7795TIP3    H147580   7.090   2.848   2.041  0.3932  0.2518  0.3517
 7795TIP3    H247581   6.971   2.779   2.106  0.3570 -0.1088 -0.0943
 7796TIP3   OH247582   3.545   7.279   3.202  0.2272  0.3781  0.1172
 7796TIP3    H147583   3.469   7.331   3.177 -0.1363  0.5962  1.5615
 7796TIP3    H247584   3.614   7.343   3.219  0.9238  0.1540 -1.6914
 7797TIP3   OH247585   6.878   6.775   2.223  0.1361  0.7535 -0.3976
 7797TIP3    H147586   6.828   6.750   2.145  0.4961 -2.1645  0.1787
 7797TIP3    H247587   6.964   6.736   2.210  0.3582  0.6201  1.2438
 7798TIP3   OH247588   5.575   0.216   2.233  0.2867 -0.0369 -0.4090
 7798TIP3    H147589   5.562   0.121   2.233  1.0232 -0.1604  0.8399
 7798TIP3    H247590   5.642   0.231   2.166  0.2925 -0.4263 -0.4911
 7799TIP3   OH247591   1.503   6.100   2.710 -0.4375  0.2083  0.6478
 7799TIP3    H147592   1.552   6.069   2.786 -1.6772  0.4259  1.5709
 7799TIP3    H247593   1.506   6.195   2.716 -0.3496  0.2292  0.2933
 7800TIP3   OH247594   7.540   1.020   2.459  0.9584 -0.0416 -0.0456
 7800TIP3    H147595   7.633   1.025   2.437  1.2073 -0.2795  0.8894
 7800TIP3    H247596   7.497   0.997   2.377  1.5727  1.3180 -0.7744
 7801TIP3   OH247597   3.124   1.687   0.654  0.1009  0.5665 -0.0522
 7801TIP3    H147598   3.216   1.706   0.673  0.6146  0.0953 -1.8015
 7801TIP3    H247599   3.106   1.737   0.574 -1.0486  0.3308  0.0448
 7802TIP3   OH247600   7.169   0.585   0.412 -0.5859  0.1014  0.1837
 7802TIP3    H147601   7.155   0.665   0.361 -0.2308 -0.4015 -0.7173
 7802TIP3    H247602   7.087   0.537   0.405 -0.2326 -0.3940 -0.6986
 7803TIP3   OH247603   4.143   1.370   1.875 -0.3118  0.0310  0.2924
 7803TIP3    H147604   4.221   1.393   1.925  1.2188 -0.9283 -1.5305
 7803TIP3    H247605   4.135   1.438   1.809  0.5807 -1.2346 -1.1853
 7804TIP3   OH247606   0.490   3.105   0.649 -0.2621  0.1177 -0.3802
 7804TIP3    H147607   0.565   3.061   0.611  1.3114  1.4151  1.0210
 7804TIP3    H247608   0.468   3.175   0.587  1.0679  1.0400  0.1467
 7805TIP3   OH247609   7.440   3.255   0.442  0.0200  0.1485 -0.2306
 7805TIP3    H147610   7.446   3.324   0.508  2.7856  1.6478 -1.8748
 7805TIP3    H247611   7.498   3.186   0.474 -0.9791 -0.4731  0.2999
 7806TIP3   OH247612   5.703   5.646   1.304 -0.2922  0.2382  0.4810
 7806TIP3    H147613   5.617   5.677   1.332 -1.2682 -1.3313 -0.5665
 7806TIP3    H247614   5.683   5.586   1.231  1.6111 -0.9092  0.8524
 7807TIP3   OH247615   3.582   1.158   2.925  1.3449 -0.4004  0.1051
 7807TIP3    H147616   3.576   1.240   2.876  3.4484 -1.3300 -1.9017
 7807TIP3    H247617   3.574   1.184   3.017 -1.6175  1.5530 -0.5881
 7808TIP3   OH247618   3.198   5.110   1.590 -0.2276 -0.8632  0.0772
 7808TIP3    H147619   3.209   5.155   1.506  2.4640 -0.1372  0.7215
 7808TIP3    H247620   3.166   5.023   1.566  1.7815 -1.1576 -1.8660
 7809TIP3   OH247621   6.026   1.389   0.742 -0.1425 -0.4629  0.2614
 7809TIP3    H147622   5.939   1.421   0.762  0.2431  0.5343  0.4061
 7809TIP3    H247623   6.034   1.400   0.647  0.1849  0.4035  0.3813
 7810TIP3   OH247624   1.731   4.652   3.243 -0.2104 -0.1892  0.0117
 7810TIP3    H147625   1.663   4.645   3.177 -2.5683  2.0282  1.9630
 7810TIP3    H247626   1.740   4.746   3.258  1.3925 -0.5556  1.6874
 7811TIP3   OH247627   3.144   3.295   2.401  0.6633 -0.2340  0.0654
 7811TIP3    H147628   3.067   3.332   2.445 -0.4947 -2.2869 -0.1102
 7811TIP3    H247629   3.112   3.268   2.315  2.1675  0.9154 -0.8912
 7812TIP3   OH247630   6.035   0.101   0.907  0.1684  0.3069  0.0818
 7812TIP3    H147631   6.020   0.194   0.924 -2.5251 -0.0203 -0.1520
 7812TIP3    H247632   5.948   0.064   0.891  1.2809 -2.0065 -1.2135
 7813TIP3   OH247633   0.016   3.261   1.913 -0.5101  0.2865 -0.0575
 7813TIP3    H147634   0.088   3.203   1.888 -1.3517 -0.2309 -1.3609
 7813TIP3    H247635  -0.045   3.258   1.839 -2.0256  0.4633  1.1226
 7814TIP3   OH247636   5.253   5.960   1.617  0.3402 -0.0379 -0.0893
 7814TIP3    H147637   5.178   5.994   1.568 -0.6859 -0.0075  1.4363
 7814TIP3    H247638   5.328   6.009   1.584 -0.6254  1.4037 -0.2025
 7815TIP3   OH247639   2.128   6.868   0.383 -0.0537 -0.4050  0.1590
 7815TIP3    H147640   2.171   6.883   0.467 -0.2792 -0.5247  0.2940
 7815TIP3    H247641   2.193   6.897   0.318  0.4160 -1.0147  0.3490
 7816TIP3   OH247642   5.988   2.308   1.629 -1.0453  0.0085  0.1268
 7816TIP3    H147643   5.912   2.319   1.686 -1.4250  2.3949 -0.7075
 7816TIP3    H247644   5.964   2.353   1.548 -0.2188 -2.5919 -1.6972
 7817TIP3   OH247645   7.139   3.839   3.074  0.3655 -0.1654  0.0339
 7817TIP3    H147646   7.196   3.863   3.148  0.2029  0.5170 -0.0581
 7817TIP3    H247647   7.171   3.752   3.047  2.6968  1.0124 -1.2985
 7818TIP3   OH247648   1.885   3.484   1.522 -0.2011 -0.9190  0.1844
 7818TIP3    H147649   1.813   3.482   1.459  0.7109  0.0191 -0.9242
 7818TIP3    H247650   1.877   3.401   1.569 -2.1075 -0.7629  0.2236
 7819TIP3   OH247651   5.675   3.149   2.560 -0.3719 -0.0658 -0.7999
 7819TIP3    H147652   5.618   3.153   2.483 -1.0349  1.9951 -0.2746
 7819TIP3    H247653   5.753   3.102   2.529 -1.5804 -1.3606 -2.0323
 7820TIP3   OH247654   0.519   6.828   1.841  0.3323 -0.7904  0.2080
 7820TIP3    H147655   0.459   6.884   1.891 -1.2977 -1.3337 -1.0348
 7820TIP3    H247656   0.525   6.871   1.755  1.1143 -1.1649  0.0698
 7821TIP3   OH247657   3.348   0.737   1.262 -0.2488  0.1249  0.4585
 7821TIP3    H147658   3.359   0.645   1.287  0.5186 -0.3158 -1.3668
 7821TIP3    H247659   3.291   0.735   1.186  0.3340  1.1069 -0.0261
 7822TIP3   OH247660   1.376   1.357   1.103  0.1995  0.6398 -0.4820
 7822TIP3    H147661   1.339   1.359   1.015 -0.6813 -1.6455 -0.2403
 7822TIP3    H247662   1.320   1.416   1.154 -1.5205 -0.6626 -0.7477
 7823TIP3   OH247663   1.640   4.279   1.066 -0.4275 -0.3356 -0.8262
 7823TIP3    H147664   1.633   4.266   1.160 -0.3146 -2.1410 -1.0346
 7823TIP3    H247665   1.555   4.316   1.040  0.2341  2.1100  0.2130
 7824TIP3   OH247666   0.459   3.994   0.904  0.0624 -0.7392 -0.0079
 7824TIP3    H147667   0.460   3.912   0.855 -0.3216 -0.2060 -0.9433
 7824TIP3    H247668   0.527   4.047   0.863 -0.1618 -0.3442  0.1235
 7825TIP3   OH247669   3.726   3.975   1.740  0.1948 -0.4866  0.2423
 7825TIP3    H147670   3.716   3.894   1.791  1.8379  0.5275  2.3355
 7825TIP3    H247671   3.651   4.028   1.766 -0.3973 -0.9772 -0.4413
 7826TIP3   OH247672   6.861   1.940   1.550 -0.1594 -0.4170 -0.2330
 7826TIP3    H147673   6.955   1.939   1.568  0.0323 -0.3123 -1.1726
 7826TIP3    H247674   6.853   1.980   1.463 -1.0412 -0.8299 -0.3596
 7827TIP3   OH247675   3.059   6.722   1.555  0.3817  0.3907 -0.1537
 7827TIP3    H147676   3.139   6.773   1.544 -0.3281  1.3684 -0.9862
 7827TIP3    H247677   3.071   6.675   1.637  1.7635  0.5923 -0.2240
 7828TIP3   OH247678   7.308   1.796   1.883 -0.2776 -0.4548 -0.3798
 7828TIP3    H147679   7.397   1.795   1.918  0.0302 -1.0914 -1.1439
 7828TIP3    H247680   7.293   1.707   1.854 -0.8979 -0.1819 -0.9213
 7829TIP3   OH247681   2.240   6.176   1.368 -0.4253  0.4612  0.3778
 7829TIP3    H147682   2.270   6.267   1.360 -0.5441  0.4785  0.0842
 7829TIP3    H247683   2.320   6.125   1.372 -0.3552  0.6304  1.2361
 7830TIP3   OH247684   1.796   5.145   2.360  0.1542 -0.0223  0.1332
 7830TIP3    H147685   1.733   5.124   2.290 -0.1764 -1.3887  0.7890
 7830TIP3    H247686   1.872   5.090   2.340  0.0105 -0.5073  0.8825
 7831TIP3   OH247687   3.753   0.990   2.158  0.2803 -0.5856 -0.4547
 7831TIP3    H147688   3.776   0.917   2.216  0.9534 -0.9776 -1.2028
 7831TIP3    H247689   3.836   1.021   2.124  0.2606  2.0024  1.5163
 7832TIP3   OH247690   2.672   3.668   2.293 -0.8663 -0.7052  0.5771
 7832TIP3    H147691   2.764   3.694   2.296 -0.9791 -0.2231 -0.0439
 7832TIP3    H247692   2.635   3.717   2.220 -1.2406 -2.1503 -0.2519
 7833TIP3   OH247693   0.054   2.208   2.735  0.2607  0.2084 -0.3717
 7833TIP3    H147694   0.027   2.296   2.760  0.1416  0.2668 -0.7020
 7833TIP3    H247695  -0.001   2.150   2.788  0.0776  0.3327 -0.4252
 7834TIP3   OH247696   3.238   7.030   0.985 -0.5856 -0.4203 -0.4154
 7834TIP3    H147697   3.327   7.066   0.996  0.3809 -2.5361 -0.7358
 7834TIP3    H247698   3.203   7.076   0.909  0.1093  0.6961 -0.0835
 7835TIP3   OH247699   6.914   0.151   0.838  0.0545  0.3132 -0.1068
 7835TIP3    H147700   6.835   0.116   0.796  0.0970 -0.8645  0.7548
 7835TIP3    H247701   6.882   0.193   0.918  0.0353  2.1029 -0.9999
 7836TIP3   OH247702   7.153   2.428   1.425 -0.2646  0.6911 -0.3667
 7836TIP3    H147703   7.224   2.397   1.481 -0.5829  0.7424  0.0817
 7836TIP3    H247704   7.181   2.409   1.336  0.2520  0.5969 -0.1875
 7837TIP3   OH247705   2.643   4.657   1.536  0.8947 -0.5580 -0.2362
 7837TIP3    H147706   2.693   4.579   1.558  0.1229 -0.7121  1.0590
 7837TIP3    H247707   2.594   4.633   1.458  3.9868  0.1172 -2.6071
 7838TIP3   OH247708   3.537   5.664   1.776 -0.3213 -0.0892 -0.8693
 7838TIP3    H147709   3.520   5.580   1.819  0.1489  0.6190  0.7967
 7838TIP3    H247710   3.601   5.644   1.708 -0.0250 -1.0482 -0.3265
 7839TIP3   OH247711   1.411   5.066   3.042  0.5665  0.0909 -0.6764
 7839TIP3    H147712   1.317   5.074   3.059  0.4611 -1.0168 -0.6411
 7839TIP3    H247713   1.449   5.041   3.126  0.7801 -0.2546 -0.8734
 7840TIP3   OH247714   0.043   4.112   1.666 -0.2700 -0.8267  0.3705
 7840TIP3    H147715   0.139   4.109   1.672 -0.3588 -0.7519  2.9577
 7840TIP3    H247716   0.026   4.160   1.585  1.9247  0.7329  0.7273
 7841TIP3   OH247717   1.851   2.985   1.709 -0.1560  0.0038  0.1270
 7841TIP3    H147718   1.858   3.081   1.702  0.2142  0.1501  1.9351
 7841TIP3    H247719   1.790   2.972   1.782 -0.2354 -1.1423 -0.1406
 7842TIP3   OH247720   3.211   6.621   2.128 -0.1561 -0.3659 -0.2316
 7842TIP3    H147721   3.228   6.567   2.205  0.2154 -1.3877 -1.0188
 7842TIP3    H247722   3.278   6.689   2.132 -0.5372 -0.0242  0.6817
 7843TIP3   OH247723   1.998   5.106   1.797 -0.6479  0.0390  0.4633
 7843TIP3    H147724   2.034   5.122   1.884  0.9979  2.5247 -0.5625
 7843TIP3    H247725   1.921   5.164   1.792 -1.1484 -0.6144  0.4786
 7844TIP3   OH247726   6.495   2.158   1.512 -0.0529 -0.1583  0.1507
 7844TIP3    H147727   6.538   2.102   1.575  0.5788  0.6061  0.4110
 7844TIP3    H247728   6.408   2.173   1.548  0.4999  0.7456  1.1415
 7845TIP3   OH247729   4.708   6.433   2.536  0.2117  0.0193  0.2208
 7845TIP3    H147730   4.763   6.425   2.459 -0.5148 -1.3327 -0.1895
 7845TIP3    H247731   4.732   6.359   2.591  0.1839  0.5410  0.9534
 7846TIP3   OH247732   5.481   7.229   2.978 -0.3362  0.1362  0.2785
 7846TIP3    H147733   5.484   7.190   2.891 -1.3156 -1.2963  0.8332
 7846TIP3    H247734   5.522   7.315   2.968  0.4424 -0.3846 -1.3697
 7847TIP3   OH247735   4.103   0.257   2.856  0.6927 -0.1631  0.2098
 7847TIP3    H147736   4.049   0.264   2.935 -0.5505 -0.7810 -0.5538
 7847TIP3    H247737   4.144   0.171   2.863  0.1022 -0.4758 -0.0963
 7848TIP3   OH247738   7.006   1.725   3.266 -0.4972 -0.1984 -0.3988
 7848TIP3    H147739   7.078   1.696   3.209 -1.0421 -0.1593 -1.1248
 7848TIP3    H247740   6.961   1.644   3.290 -0.4751 -0.1818 -0.2997
 7849TIP3   OH247741   3.849   1.295   1.949 -0.4782 -0.6460  0.3170
 7849TIP3    H147742   3.822   1.227   1.886 -0.3230 -1.8261  1.4834
 7849TIP3    H247743   3.941   1.312   1.928 -0.6738 -0.3675 -0.3463
 7850TIP3   OH247744   4.394   6.477   2.251  0.1566 -0.5474 -0.0105
 7850TIP3    H147745   4.487   6.482   2.228  0.1248  2.5398  0.1035
 7850TIP3    H247746   4.393   6.450   2.343  0.9768 -0.1944  0.1114
 7851TIP3   OH247747   2.279   5.499   0.944 -0.1105  0.1616  0.0284
 7851TIP3    H147748   2.339   5.573   0.948  0.0199  0.0528  0.1227
 7851TIP3    H247749   2.332   5.425   0.975  1.0854 -0.8676 -3.9117
 7852TIP3   OH247750   0.095   2.098   1.970  0.2085  0.4187  0.4992
 7852TIP3    H147751   0.176   2.143   1.996  0.8094  0.0976 -0.7347
 7852TIP3    H247752   0.062   2.149   1.896 -1.3071  1.1542  1.6314
 7853TIP3   OH247753   6.391   7.422   2.843  0.0231  0.2404  0.6617
 7853TIP3    H147754   6.334   7.445   2.769 -0.6801 -0.5178  0.9475
 7853TIP3    H247755   6.331   7.394   2.912  0.6704  0.9526  1.5419
 7854TIP3   OH247756   4.307   3.826   2.391 -0.6177 -0.5051  0.1607
 7854TIP3    H147757   4.366   3.828   2.316  0.2485  0.2803  0.8355
 7854TIP3    H247758   4.290   3.918   2.411 -5.4629 -0.4965 -2.5367
 7855TIP3   OH247759   3.705   6.526   1.047 -0.0766  0.0463 -0.5459
 7855TIP3    H147760   3.799   6.510   1.032 -0.3330 -3.2085  0.6641
 7855TIP3    H247761   3.702   6.617   1.078  2.4135  0.9083 -2.4255
 7856TIP3   OH247762   1.472   3.514   2.898  0.0448 -0.0483 -0.2992
 7856TIP3    H147763   1.549   3.552   2.940  0.2134 -0.4548 -0.2405
 7856TIP3    H247764   1.472   3.422   2.926  0.5678 -0.5139 -1.7584
 7857TIP3   OH247765   5.731   5.742   2.683  0.3736  0.1623 -0.5825
 7857TIP3    H147766   5.662   5.753   2.749  0.2057 -2.7935 -0.1120
 7857TIP3    H247767   5.810   5.725   2.734  1.0361  1.4728 -1.1433
 7858TIP3   OH247768   2.833   3.315   3.390 -0.2482 -0.0405 -0.3157
 7858TIP3    H147769   2.886   3.381   3.345 -1.1594 -1.0196 -3.0177
 7858TIP3    H247770   2.743   3.341   3.372 -0.6390 -0.8646  0.4097
 7859TIP3   OH247771   6.990   4.008   0.755  0.2129 -0.5214  0.1686
 7859TIP3    H147772   7.023   4.055   0.832  1.1346 -1.7199  0.5218
 7859TIP3    H247773   6.901   3.983   0.779 -0.7509  1.9818 -0.4644
 7860TIP3   OH247774   4.739   7.015   0.706  0.9124 -0.2429  0.0055
 7860TIP3    H147775   4.711   6.947   0.644 -1.9406  0.6416  0.1839
 7860TIP3    H247776   4.715   6.980   0.792  0.8591  0.3162  0.2238
 7861TIP3   OH247777   4.068   5.142   3.282  0.8823  0.3111 -0.5758
 7861TIP3    H147778   4.113   5.067   3.320  1.1082  0.7923  0.1276
 7861TIP3    H247779   3.999   5.104   3.227 -1.1782 -0.4549  2.3068
 7862TIP3   OH247780   2.958   5.583   0.625 -0.9586  0.2426  0.1039
 7862TIP3    H147781   2.947   5.670   0.586 -1.0501  0.7191  1.1653
 7862TIP3    H247782   2.926   5.523   0.557 -1.8053  1.0921 -0.2809
 7863TIP3   OH247783   5.583   6.819   2.696 -0.1029 -0.0819 -0.0497
 7863TIP3    H147784   5.611   6.736   2.657 -0.3107 -0.2950  0.2516
 7863TIP3    H247785   5.510   6.795   2.753 -0.3095  0.3400 -0.1327
 7864TIP3   OH247786   1.036   6.548   1.051  0.1347 -0.0545 -0.9726
 7864TIP3    H147787   0.999   6.577   0.968 -0.6387 -0.6534 -0.8473
 7864TIP3    H247788   0.970   6.572   1.116  1.1892  1.3749 -0.3784
 7865TIP3   OH247789   3.146   3.899   1.797  0.4423 -0.3007  0.1344
 7865TIP3    H147790   3.060   3.934   1.774  0.4793  0.0047  0.4487
 7865TIP3    H247791   3.180   3.861   1.716  0.5691  0.7415 -0.3105
 7866TIP3   OH247792   3.483   2.862   0.476 -0.2318 -0.2021 -0.4940
 7866TIP3    H147793   3.564   2.838   0.431 -0.4024 -1.4852 -0.1754
 7866TIP3    H247794   3.471   2.955   0.457  1.2518 -0.0163 -0.6402
 7867TIP3   OH247795   5.906   2.358   1.966 -0.1967 -0.1663 -0.5497
 7867TIP3    H147796   5.848   2.351   1.890 -0.4214  0.4689 -0.4486
 7867TIP3    H247797   5.951   2.274   1.971 -0.8650 -0.5430 -0.8319
 7868TIP3   OH247798   5.831   4.441   0.659  0.0565  0.0335  0.2976
 7868TIP3    H147799   5.849   4.392   0.579  1.7223 -0.6444  1.0344
 7868TIP3    H247800   5.803   4.527   0.629  0.7801 -0.1632 -1.0138
 7869TIP3   OH247801   6.398   3.634   1.870 -0.0302  0.3921 -0.1422
 7869TIP3    H147802   6.465   3.574   1.904 -0.6515  0.0709  0.5604
 7869TIP3    H247803   6.319   3.581   1.867 -0.2561  0.7729 -0.9517
 7870TIP3   OH247804   3.869   3.654   3.241 -0.3447  0.3614  0.3120
 7870TIP3    H147805   3.797   3.686   3.296 -0.9884 -0.9723  0.2775
 7870TIP3    H247806   3.826   3.601   3.174  0.6065  0.2900 -0.2542
 7871TIP3   OH247807   1.688   5.125   2.105  0.0092 -0.0517  0.0309
 7871TIP3    H147808   1.759   5.183   2.078  1.0472 -1.0822  0.4402
 7871TIP3    H247809   1.608   5.175   2.089  0.8850  1.6735  0.8691
 7872TIP3   OH247810   4.649   6.140   1.103  0.4857  0.1656 -0.6735
 7872TIP3    H147811   4.650   6.235   1.105  2.5085  0.1734  0.4550
 7872TIP3    H247812   4.712   6.117   1.035  2.9575 -0.2839  1.5944
 7873TIP3   OH247813   5.950   2.104   2.630  0.0576  0.1071 -0.1147
 7873TIP3    H147814   6.036   2.143   2.640  0.2390 -0.3246  0.0486
 7873TIP3    H247815   5.905   2.122   2.712 -0.0264  0.3766 -0.2197
 7874TIP3   OH247816   1.362   6.626   0.480  0.0535 -0.1508 -0.7231
 7874TIP3    H147817   1.421   6.605   0.552 -1.5554  0.6960  0.9261
 7874TIP3    H247818   1.375   6.720   0.466 -0.1755 -0.1678 -1.0574
 7875TIP3   OH247819   4.303   4.914   2.118  0.4055  0.3381  0.3255
 7875TIP3    H147820   4.261   5.000   2.114  0.8034  0.5398  0.4491
 7875TIP3    H247821   4.324   4.902   2.211  0.5223  0.1947  0.2802
 7876TIP3   OH247822   7.346   0.275   1.744 -0.2583 -0.0933 -0.2018
 7876TIP3    H147823   7.391   0.355   1.716  0.0346 -0.1084  0.2206
 7876TIP3    H247824   7.255   0.301   1.755 -0.1111  0.2573  0.2161
 7877TIP3   OH247825   3.111   5.745   2.816  0.1195 -0.7162  0.2267
 7877TIP3    H147826   3.043   5.775   2.876 -0.0489 -1.3853  0.3674
 7877TIP3    H247827   3.065   5.733   2.733  0.3451  0.1738 -0.0375
 7878TIP3   OH247828   6.707   7.282   0.742  0.2193 -0.6019 -0.2452
 7878TIP3    H147829   6.777   7.310   0.683  1.0634 -0.6447  0.7140
 7878TIP3    H247830   6.657   7.362   0.759  1.4261 -0.0500  0.8943
 7879TIP3   OH247831   3.676   3.185   2.204  0.0274  0.1246 -0.1872
 7879TIP3    H147832   3.731   3.160   2.277 -0.9942 -2.3790 -0.1834
 7879TIP3    H247833   3.659   3.278   2.217 -0.3027 -0.2751  2.8846
 7880TIP3   OH247834   1.304   5.991   1.138  0.7768  0.1273  0.2427
 7880TIP3    H147835   1.352   5.910   1.123 -0.5249 -0.7762  0.7135
 7880TIP3    H247836   1.215   5.973   1.108 -0.0046  0.7542  1.9722
 7881TIP3   OH247837   2.812   7.331   0.441  0.1147  0.5353  0.2502
 7881TIP3    H147838   2.855   7.252   0.409  1.6848  2.0971 -1.7945
 7881TIP3    H247839   2.719   7.318   0.420  0.4088 -0.5884 -0.4688
 7882TIP3   OH247840   6.400   4.309   2.262  0.8744  0.0101 -0.0663
 7882TIP3    H147841   6.456   4.232   2.275 -0.7013 -1.4829 -1.5308
 7882TIP3    H247842   6.458   4.375   2.225  1.7425 -1.4528 -1.4534
 7883TIP3   OH247843   0.473   3.126   2.342  0.0619 -0.1837 -0.6035
 7883TIP3    H147844   0.555   3.104   2.387  0.5696  0.4530 -1.2023
 7883TIP3    H247845   0.424   3.177   2.406  0.2528 -0.3316 -0.3364
 7884TIP3   OH247846   6.486   5.960   1.307  0.2803  0.6004  0.5209
 7884TIP3    H147847   6.422   5.938   1.374  0.6630 -1.1841  0.3512
 7884TIP3    H247848   6.563   5.992   1.355 -0.1744  1.2933  0.7997
 7885TIP3   OH247849   3.913   4.284   1.450 -0.6042 -0.2155 -0.4791
 7885TIP3    H147850   3.997   4.238   1.446 -0.9358 -0.8236 -0.7889
 7885TIP3    H247851   3.884   4.274   1.540  0.2996  1.2080 -0.0096
 7886TIP3   OH247852   0.795   0.960   2.821 -0.1816 -0.5099  0.6775
 7886TIP3    H147853   0.888   0.945   2.837 -0.0813  0.4709  1.0762
 7886TIP3    H247854   0.764   1.003   2.900  0.3148  4.4524 -1.4441
 7887TIP3   OH247855   5.887   7.417   1.027 -0.4057 -0.5980  0.3084
 7887TIP3    H147856   5.813   7.454   0.979 -0.3915  0.4307  1.0494
 7887TIP3    H247857   5.879   7.453   1.116 -0.3214 -2.2886  1.0461
 7888TIP3   OH247858   6.373   6.947   1.106 -0.1127  0.0841 -0.2882
 7888TIP3    H147859   6.407   6.980   1.023 -2.9327  1.2141 -1.1433
 7888TIP3    H247860   6.398   7.014   1.170  0.4110  0.1950 -0.6045
 7889TIP3   OH247861   2.546   1.589   0.789  0.3649  0.1540  1.2868
 7889TIP3    H147862   2.484   1.531   0.745 -1.8688  2.5676  1.0625
 7889TIP3    H247863   2.621   1.593   0.730 -0.7524 -0.0748 -0.2108
 7890TIP3   OH247864   4.555   0.779   2.328  0.6052 -0.0938 -0.0734
 7890TIP3    H147865   4.581   0.850   2.270  0.8549  0.1893  0.3843
 7890TIP3    H247866   4.485   0.817   2.382 -0.3383 -0.6545 -0.8602
 7891TIP3   OH247867   2.434   1.132   1.682  0.4231  0.0316 -1.1523
 7891TIP3    H147868   2.506   1.194   1.667 -1.3688  2.6668  0.2284
 7891TIP3    H247869   2.406   1.150   1.772 -0.7441 -2.2664 -0.9912
 7892TIP3   OH247870   2.753   4.260   2.654  0.0363  0.6533  0.1296
 7892TIP3    H147871   2.830   4.203   2.650 -0.3256  0.2250 -1.3702
 7892TIP3    H247872   2.707   4.233   2.734  1.4666  0.9915  1.0969
 7893TIP3   OH247873   2.515   3.017   1.967  0.1587  0.7774  0.0150
 7893TIP3    H147874   2.601   2.980   1.986 -0.2407 -0.0673  0.1983
 7893TIP3    H247875   2.532   3.111   1.954  0.8329  0.9428  1.8712
 7894TIP3   OH247876   6.830   5.598   1.649  0.8025  0.3595  0.1446
 7894TIP3    H147877   6.902   5.562   1.598  0.8600 -2.9523  2.2648
 7894TIP3    H247878   6.754   5.593   1.592  1.1768 -1.6918 -0.2356
 7895TIP3   OH247879   6.466   3.862   2.009 -0.0829 -0.5815 -0.1643
 7895TIP3    H147880   6.390   3.920   2.014  0.0074 -0.3306 -1.3052
 7895TIP3    H247881   6.437   3.790   1.953  0.3992 -0.6851 -0.2837
 7896TIP3   OH247882   1.169   6.941   1.936  0.2763 -0.2499 -0.1754
 7896TIP3    H147883   1.173   6.854   1.974  1.5221  0.1846  0.7673
 7896TIP3    H247884   1.260   6.972   1.936 -0.1882  1.2316 -0.0044
 7897TIP3   OH247885   6.440   2.301   1.275  0.2688 -1.1570  0.0550
 7897TIP3    H147886   6.475   2.245   1.344 -1.4608 -1.7956  0.4684
 7897TIP3    H247887   6.500   2.290   1.201  1.3323 -1.5901  0.9568
 7898TIP3   OH247888   1.405   6.477   1.628 -0.8186  0.4338  0.1507
 7898TIP3    H147889   1.495   6.444   1.621 -1.2521 -1.1562  1.3262
 7898TIP3    H247890   1.409   6.544   1.696 -0.4230  0.8387 -0.2628
 7899TIP3   OH247891   5.699   2.831   2.230  0.3179  0.5001 -0.7938
 7899TIP3    H147892   5.693   2.770   2.303  1.4388  1.2911 -0.0220
 7899TIP3    H247893   5.621   2.812   2.177  0.3044 -1.1318 -0.2306
 7900TIP3   OH247894   3.576   7.293   2.221 -0.5913 -0.3149  0.1766
 7900TIP3    H147895   3.559   7.303   2.315 -1.3232  0.6045 -0.0406
 7900TIP3    H247896   3.620   7.208   2.214  0.9548  0.2965  1.5335
 7901TIP3   OH247897   2.040   4.773   0.916  0.0013 -0.1579 -0.8796
 7901TIP3    H147898   2.026   4.682   0.943 -1.8613  0.1662 -0.6479
 7901TIP3    H247899   2.058   4.767   0.822 -1.3167 -0.6922 -1.1172
 7902TIP3   OH247900   3.582   5.275   2.042  0.1498 -0.4037  0.2575
 7902TIP3    H147901   3.517   5.207   2.023 -0.2288 -0.2611  1.0214
 7902TIP3    H247902   3.666   5.230   2.037  0.0001 -0.6016 -0.6993
 7903TIP3   OH247903   3.566   1.967   2.749  0.2238 -0.1165 -0.3052
 7903TIP3    H147904   3.631   2.012   2.803  0.4765  0.9244 -1.4317
 7903TIP3    H247905   3.493   1.950   2.808 -0.6995  3.4646 -0.1473
 7904TIP3   OH247906   5.646   3.609   1.728 -0.3551 -0.3925 -0.2174
 7904TIP3    H147907   5.607   3.623   1.641 -3.2151 -0.3111  0.9734
 7904TIP3    H247908   5.657   3.514   1.734 -0.2084 -0.4053 -0.6146
 7905TIP3   OH247909   4.017   6.165   1.378 -0.0168 -0.4913  0.0200
 7905TIP3    H147910   3.990   6.180   1.469  0.2287 -0.3220  0.0638
 7905TIP3    H247911   4.097   6.216   1.368 -1.0338  1.0124 -0.8393
 7906TIP3   OH247912   6.577   6.562   2.065  0.3406 -0.0272  0.2068
 7906TIP3    H147913   6.652   6.608   2.027 -0.0275  0.2217 -0.2322
 7906TIP3    H247914   6.530   6.526   1.990  0.4827 -0.9151  0.5321
 7907TIP3   OH247915   7.223   4.031   8.312  0.0864 -0.1387 -0.1189
 7907TIP3    H147916   7.297   4.032   8.373  0.3928 -0.4609 -0.4742
 7907TIP3    H247917   7.175   3.951   8.333  0.2272 -0.2820 -0.3379
 7908TIP3   OH247918   4.710   7.440   1.363  0.0391 -0.2010  0.2253
 7908TIP3    H147919   4.751   7.498   1.427  0.0453  0.5442 -0.4462
 7908TIP3    H247920   4.772   7.368   1.352  1.1312  0.8399 -0.6735
 7909TIP3   OH247921   3.687   1.065   2.463 -0.1341 -0.0409  0.2135
 7909TIP3    H147922   3.719   1.048   2.551 -1.0858  1.9944  1.0155
 7909TIP3    H247923   3.700   0.983   2.416  3.3057 -0.2899  1.3322
 7910TIP3   OH247924   6.519   1.057   0.803 -0.4460 -0.0357  0.0513
 7910TIP3    H147925   6.594   0.999   0.819 -0.6468 -0.0703  0.9126
 7910TIP3    H247926   6.457   1.003   0.755  0.6169  0.3892 -1.8999
 7911TIP3   OH247927   6.707   2.077   1.309 -0.0002  0.3041  0.4085
 7911TIP3    H147928   6.708   2.102   1.217 -2.1436 -0.4540  0.1314
 7911TIP3    H247929   6.753   2.148   1.353 -0.0402  1.3111 -1.0947
 7912TIP3   OH247930   3.167   1.397   2.193 -0.3181  0.4005  0.2220
 7912TIP3    H147931   3.220   1.342   2.135 -1.2006  0.0727 -0.3005
 7912TIP3    H247932   3.229   1.460   2.229  0.5212 -0.2855  0.0259
 7913TIP3   OH247933   0.771   6.898   1.118 -0.3618  0.0577 -0.2401
 7913TIP3    H147934   0.867   6.892   1.111 -0.3587  0.0175 -0.1615
 7913TIP3    H247935   0.752   6.872   1.207 -0.3187  1.5206  0.2254
 7914TIP3   OH247936   0.950   2.303   0.517 -0.3950  0.5346 -0.0375
 7914TIP3    H147937   1.009   2.367   0.478  0.4486 -0.4856 -0.4845
 7914TIP3    H247938   0.992   2.277   0.599  0.2771 -0.8644 -0.7883
 7915TIP3   OH247939   3.235   6.519   0.553  0.5242  0.0642  0.6301
 7915TIP3    H147940   3.212   6.519   0.645 -1.3246  0.0236  0.1941
 7915TIP3    H247941   3.170   6.463   0.511  0.7672  0.8077 -0.8227
 7916TIP3   OH247942   7.086   7.231   1.528 -0.0700 -0.4373  0.6075
 7916TIP3    H147943   7.098   7.325   1.512  1.3810 -0.4874  1.2626
 7916TIP3    H247944   7.168   7.203   1.569 -0.6187 -1.9268  0.7392
 7917TIP3   OH247945   4.645   0.894   0.563  0.2217 -0.2484  0.3878
 7917TIP3    H147946   4.720   0.854   0.607 -0.8977 -1.0768  1.6088
 7917TIP3    H247947   4.644   0.985   0.596  0.4977 -0.3327  0.6357
 7918TIP3   OH247948   1.727   3.666   0.954  0.1482 -0.5144  0.4494
 7918TIP3    H147949   1.678   3.718   1.018  0.2180  0.1631 -0.0444
 7918TIP3    H247950   1.771   3.599   1.006  0.3016  0.1057  1.1274
 7919TIP3   OH247951   5.750   2.259   1.750  0.0418 -0.4187  0.0031
 7919TIP3    H147952   5.779   2.175   1.786 -0.2180 -0.5919 -0.1851
 7919TIP3    H247953   5.659   2.244   1.725 -0.5598  0.4339  1.5673
 7920TIP3   OH247954   1.374   4.770   1.610  0.2363  0.2923 -1.1844
 7920TIP3    H147955   1.314   4.740   1.541  0.3414 -0.4768 -0.9405
 7920TIP3    H247956   1.393   4.692   1.662  1.0353  0.6402 -0.9412
 7921TIP3   OH247957   1.762   4.231   1.344  0.8831  0.2400  0.1383
 7921TIP3    H147958   1.806   4.280   1.413  3.1205 -1.8862  0.3691
 7921TIP3    H247959   1.775   4.139   1.367  0.9694 -0.5565 -2.6541
 7922TIP3   OH247960   7.103   1.373   1.408  0.3689 -0.0039 -0.0592
 7922TIP3    H147961   7.067   1.284   1.410  1.2192 -0.3571  0.3959
 7922TIP3    H247962   7.042   1.424   1.462  0.2977 -0.4881  0.3325
 7923TIP3   OH247963   6.725   0.037   2.630 -0.0185  0.0410 -0.4167
 7923TIP3    H147964   6.697   0.054   2.720  0.2508 -0.1117 -0.3020
 7923TIP3    H247965   6.653  -0.013   2.591 -0.3218  0.4741 -0.4170
 7924TIP3   OH247966   6.771   5.691   1.891  0.5302  0.0109  0.0665
 7924TIP3    H147967   6.796   5.654   1.806 -0.1431 -0.5028  0.0843
 7924TIP3    H247968   6.854   5.702   1.938  0.8182 -0.6713 -0.2714
 7925TIP3   OH247969   7.051   0.355   3.098 -0.4265 -0.6881 -0.2530
 7925TIP3    H147970   6.972   0.326   3.052 -1.7478 -1.6546  2.4317
 7925TIP3    H247971   7.114   0.284   3.085 -0.8054 -0.9925 -0.4438
 7926TIP3   OH247972   4.592   1.645   0.560 -0.5819 -0.2860  0.0967
 7926TIP3    H147973   4.566   1.661   0.650  0.6006  0.4255  0.3216
 7926TIP3    H247974   4.564   1.723   0.513 -0.8121 -0.4716 -0.0792
 7927TIP3   OH247975   6.150   1.220   2.297 -0.0054  0.4022  0.3685
 7927TIP3    H147976   6.218   1.260   2.241  0.3217  0.8708  1.0918
 7927TIP3    H247977   6.149   1.274   2.375 -2.8911  1.8727 -0.5578
 7928TIP3   OH247978   5.436   5.439   2.097 -0.4370 -0.4872  0.2950
 7928TIP3    H147979   5.458   5.460   2.006 -1.4677 -1.3968 -0.1934
 7928TIP3    H247980   5.404   5.521   2.133 -1.8544 -0.5237 -0.7735
 7929TIP3   OH247981   5.775   4.003   0.751 -0.1869 -0.1561 -0.0604
 7929TIP3    H147982   5.798   4.075   0.809  2.2941 -3.1307  3.1193
 7929TIP3    H247983   5.821   4.021   0.669 -1.2849  2.7001 -0.1383
 7930TIP3   OH247984   3.670   5.791   2.399 -0.5309  0.0520 -0.5455
 7930TIP3    H147985   3.766   5.793   2.397 -0.5279  2.5322 -1.7419
 7930TIP3    H247986   3.643   5.824   2.314 -2.4414  0.9232  0.3218
 7931TIP3   OH247987   7.233   0.151   3.082 -0.2787  0.0108 -0.0682
 7931TIP3    H147988   7.230   0.099   3.163  1.7040 -1.8418 -1.0951
 7931TIP3    H247989   7.311   0.120   3.036 -0.7714  1.7428 -2.2355
 7932TIP3   OH247990   0.912   5.786   2.276 -0.3038 -0.4526  0.0720
 7932TIP3    H147991   0.850   5.821   2.340 -1.0754 -1.0444 -0.3324
 7932TIP3    H247992   0.986   5.755   2.329  0.3443  1.5769  0.4511
 7933TIP3   OH247993   4.796   3.952   2.933 -0.0416  0.9832  0.0144
 7933TIP3    H147994   4.711   3.908   2.935  0.4993 -0.0606  2.4187
 7933TIP3    H247995   4.804   3.982   2.842 -1.8877 -1.0006 -0.9107
 7934TIP3   OH247996   2.126   1.991   3.227  0.5223  0.7876  0.1593
 7934TIP3    H147997   2.057   1.926   3.229  0.7968  0.4240 -1.2245
 7934TIP3    H247998   2.090   2.066   3.274  0.7571 -0.8398  3.1438
 7935TIP3   OH247999   0.498   3.301   0.990  0.0627 -0.6750 -0.3395
 7935TIP3    H148000   0.454   3.379   0.957 -0.1327 -0.7329 -0.2178
 7935TIP3    H248001   0.429   3.252   1.035 -0.0496 -1.4014 -1.2691
 7936TIP3   OH248002   1.309   6.115   1.690  0.1138 -0.1316  1.0473
 7936TIP3    H148003   1.337   6.095   1.779  0.4276 -2.0586  0.5697
 7936TIP3    H248004   1.383   6.091   1.635 -0.0273  1.1502  0.2542
 7937TIP3   OH248005   2.271   3.127   3.075 -0.1134 -0.3955  0.1331
 7937TIP3    H148006   2.178   3.122   3.099 -0.2759 -0.6029 -0.5275
 7937TIP3    H248007   2.301   3.036   3.078  0.3199 -0.2312  1.2886
 7938TIP3   OH248008   4.086   5.184   2.978  0.1843  0.1725 -0.0475
 7938TIP3    H148009   4.005   5.135   2.989 -0.6318  1.4410 -0.2465
 7938TIP3    H248010   4.122   5.191   3.067 -1.0391  1.4214  0.3853
 7939TIP3   OH248011   5.965   5.714   2.851 -0.2940  0.1090 -0.2420
 7939TIP3    H148012   5.920   5.738   2.932 -0.8647  1.2668 -0.8679
 7939TIP3    H248013   5.997   5.625   2.866  1.6520  1.0823  2.1384
 7940TIP3   OH248014   5.801   1.449   1.512  0.4212  0.2008  0.8669
 7940TIP3    H148015   5.813   1.401   1.594  1.0547  1.0559  1.3004
 7940TIP3    H248016   5.881   1.502   1.504 -0.0107  0.7537  0.1318
 7941TIP3   OH248017   4.031   1.741   1.438  0.1566  0.1841  0.6212
 7941TIP3    H148018   4.059   1.650   1.435  0.5832  0.3297 -0.5776
 7941TIP3    H248019   4.092   1.783   1.498  1.1804  0.0489 -0.2807
 7942TIP3   OH248020   6.932   6.136   2.649 -0.4187 -0.5619 -0.3384
 7942TIP3    H148021   6.988   6.202   2.689  0.3315 -1.1018 -0.4799
 7942TIP3    H248022   6.863   6.120   2.714  0.0174 -0.4365  0.1611
 7943TIP3   OH248023   5.234   5.382   0.574 -0.3750  0.0381 -0.4787
 7943TIP3    H148024   5.191   5.359   0.492 -1.2793  0.9989 -0.2921
 7943TIP3    H248025   5.215   5.308   0.632 -0.9957  0.0249 -0.6879
 7944TIP3   OH248026   7.348   3.133   1.813  0.3484  0.6178 -0.1741
 7944TIP3    H148027   7.256   3.106   1.809  0.1400  1.0441  1.0632
 7944TIP3    H248028   7.348   3.204   1.877  1.3062  1.6863 -1.3098
 7945TIP3   OH248029   5.061   0.187   2.580  0.0389 -0.3691 -0.1011
 7945TIP3    H148030   5.141   0.144   2.549  0.8526 -0.3261  1.7442
 7945TIP3    H248031   5.066   0.275   2.544  0.1455 -0.7684 -1.0804
 7946TIP3   OH248032   4.533   0.676   0.469  0.4095 -0.2786 -0.1664
 7946TIP3    H148033   4.564   0.766   0.484 -1.2601  0.0925  1.3130
 7946TIP3    H248034   4.441   0.686   0.445 -0.5305 -1.6480  2.4669
 7947TIP3   OH248035   3.191   5.477   2.454  0.3693 -0.1387 -0.3848
 7947TIP3    H148036   3.210   5.435   2.370  0.7958  0.2784 -0.5006
 7947TIP3    H248037   3.169   5.567   2.431 -0.1579 -0.1900 -0.1021
 7948TIP3   OH248038   1.565   7.253   1.590 -0.7245  0.4497  0.3297
 7948TIP3    H148039   1.530   7.330   1.546 -0.5713  0.7911  0.7990
 7948TIP3    H248040   1.637   7.223   1.534 -0.1895  1.1916  0.6102
 7949TIP3   OH248041   4.641   6.174   1.729 -0.0403  0.0738  0.3699
 7949TIP3    H148042   4.715   6.122   1.699 -0.6241 -0.5220 -0.0584
 7949TIP3    H248043   4.636   6.158   1.823  0.0272 -0.3217  0.3039
 7950TIP3   OH248044   1.896   2.629   2.945 -0.3437 -0.5477 -0.0350
 7950TIP3    H148045   1.916   2.714   2.905 -0.4316  0.1756  1.3720
 7950TIP3    H248046   1.978   2.603   2.988 -0.6502 -0.5609  0.5649
 7951TIP3   OH248047   4.093   6.510   0.776 -0.2256  0.7449  0.4556
 7951TIP3    H148048   4.185   6.504   0.803  0.3167  0.7451 -1.2641
 7951TIP3    H248049   4.061   6.420   0.777 -0.3315  0.7843  1.4105
 7952TIP3   OH248050   1.952   6.109   1.093  0.6144 -0.0505 -0.5288
 7952TIP3    H148051   1.966   6.198   1.060  1.4190  0.1089  0.2009
 7952TIP3    H248052   1.857   6.101   1.099  0.5283  1.2787  0.6969
 7953TIP3   OH248053   1.490   7.424   2.638 -0.2880  0.0722 -0.3801
 7953TIP3    H148054   1.424   7.493   2.627  0.3695  0.6094 -1.0301
 7953TIP3    H248055   1.566   7.455   2.589 -0.1802 -1.4019 -1.2120
 7954TIP3   OH248056   7.178   2.462   1.713  0.3763 -0.0241 -0.4717
 7954TIP3    H148057   7.154   2.388   1.657  0.2128 -0.7201  0.4904
 7954TIP3    H248058   7.118   2.457   1.788  1.7366 -0.2077  0.6582
 7955TIP3   OH248059   3.607   3.266   1.566  1.0272  0.2582  0.3445
 7955TIP3    H148060   3.524   3.313   1.568 -0.0897 -1.5665 -0.3422
 7955TIP3    H248061   3.659   3.306   1.635 -0.8934  0.6305  1.6439
 7956TIP3   OH248062   2.351   2.994   2.647  0.1133  0.3978  0.8136
 7956TIP3    H148063   2.348   2.925   2.714 -0.1545 -0.1528  0.2538
 7956TIP3    H248064   2.264   2.990   2.606 -1.1953  3.3285  2.9612
 7957TIP3   OH248065   0.214   2.792   0.995 -0.0838 -0.2474 -0.4491
 7957TIP3    H148066   0.216   2.836   0.910  0.0536  0.6413  0.0002
 7957TIP3    H248067   0.155   2.718   0.982  1.3472 -1.1895 -1.8074
 7958TIP3   OH248068   2.552   3.045   0.644  0.1190  0.0037  0.2717
 7958TIP3    H148069   2.559   3.027   0.550  1.3532  0.9305  0.1647
 7958TIP3    H248070   2.494   3.121   0.649 -1.1659 -0.9534  0.3880
 7959TIP3   OH248071   7.089   3.547   0.949  0.1697  0.2702 -0.3445
 7959TIP3    H148072   7.164   3.593   0.986  1.2406 -1.9754  0.4308
 7959TIP3    H248073   7.070   3.594   0.867  3.2104  0.1788 -1.2058
 7960TIP3   OH248074   1.820   0.705   0.998  0.5964 -0.2406 -0.4758
 7960TIP3    H148075   1.861   0.791   0.996  0.9669 -0.2121  2.6712
 7960TIP3    H248076   1.892   0.643   0.988  0.9140 -0.1507  0.9835
 7961TIP3   OH248077   3.282   1.804   0.981  0.5406  0.1404  0.3474
 7961TIP3    H148078   3.260   1.809   1.074 -1.6424 -0.4929 -0.0541
 7961TIP3    H248079   3.206   1.842   0.937  0.8615 -0.9239 -1.2152
 7962TIP3   OH248080   5.309   4.196   0.981  0.4873 -0.3158  0.4040
 7962TIP3    H148081   5.298   4.140   0.904  0.1405  0.2658  0.0127
 7962TIP3    H248082   5.255   4.156   1.048  0.3815 -0.5513  0.1806
 7963TIP3   OH248083   1.718   3.639   2.525 -0.2102  0.3715 -0.2153
 7963TIP3    H148084   1.754   3.568   2.470  0.3066 -0.0569  0.6559
 7963TIP3    H248085   1.782   3.650   2.595 -1.6076 -0.1925  1.2094
 7964TIP3   OH248086   4.171   6.457   3.088  0.2706 -0.4733 -0.0408
 7964TIP3    H148087   4.079   6.473   3.071  0.4947  1.8449  0.6550
 7964TIP3    H248088   4.177   6.447   3.184  0.5112 -2.6591 -0.2186
 7965TIP3   OH248089   7.524   0.498   0.695  0.1194  0.4474  0.2746
 7965TIP3    H148090   7.552   0.588   0.712 -0.0009  0.0889  2.7820
 7965TIP3    H248091   7.525   0.456   0.781  0.6123 -2.0967 -0.8700
 7966TIP3   OH248092   0.466   5.349   2.806  0.4246 -0.0557 -0.9546
 7966TIP3    H148093   0.470   5.444   2.796 -1.8664  0.3631  1.2275
 7966TIP3    H248094   0.479   5.315   2.717 -1.6206  2.4294 -2.3414
 7967TIP3   OH248095   5.070   6.541   2.454  0.2583 -0.0324 -0.2814
 7967TIP3    H148096   5.084   6.591   2.534 -1.9840  1.0041 -0.4520
 7967TIP3    H248097   5.157   6.531   2.416  1.2614  0.2041  1.8193
 7968TIP3   OH248098   0.477   3.495   2.628  0.8689 -0.1328  0.1506
 7968TIP3    H148099   0.418   3.448   2.686 -0.1535 -0.1745 -0.9011
 7968TIP3    H248100   0.564   3.459   2.648  0.3211 -1.3162  0.4731
 7969TIP3   OH248101   4.220   2.250   1.218 -0.3428 -0.0326 -0.3227
 7969TIP3    H148102   4.224   2.165   1.261 -2.0450  0.0263  0.0109
 7969TIP3    H248103   4.290   2.248   1.154 -0.5574 -1.8035 -0.5344
 7970TIP3   OH248104   2.537   5.808   1.413  0.4722 -0.1001  0.6077
 7970TIP3    H148105   2.627   5.776   1.417  0.7684  0.7768  1.2318
 7970TIP3    H248106   2.499   5.764   1.336  2.2048  1.4436 -1.2500
 7971TIP3   OH248107   6.264   3.180   2.458 -0.3563  0.1197  0.5588
 7971TIP3    H148108   6.244   3.087   2.470  1.1424 -0.2899  0.1736
 7971TIP3    H248109   6.354   3.181   2.426 -0.9769  1.6289 -1.3189
 7972TIP3   OH248110   0.129   4.214   2.448 -0.0159  0.2721  0.0645
 7972TIP3    H148111   0.152   4.262   2.368  0.3706 -0.3752 -0.2303
 7972TIP3    H248112   0.191   4.140   2.449 -0.5301 -0.1569  0.5514
 7973TIP3   OH248113   5.458   6.063   0.689 -0.9574  0.1113 -0.7952
 7973TIP3    H148114   5.477   6.064   0.783 -0.9629 -1.7368 -0.7346
 7973TIP3    H248115   5.543   6.075   0.648 -0.9297  0.7497 -0.5699
 7974TIP3   OH248116   2.254   2.407   0.667  0.0372  0.3608  0.6090
 7974TIP3    H148117   2.223   2.363   0.747 -1.3013  0.8845  0.3974
 7974TIP3    H248118   2.270   2.335   0.606  0.5169 -0.0093  1.1542
 7975TIP3   OH248119   4.722   4.150   1.110 -0.2740  0.4698 -0.5889
 7975TIP3    H148120   4.814   4.171   1.129 -0.2059 -0.3644  0.0756
 7975TIP3    H248121   4.672   4.220   1.152  0.0477  0.8477 -0.8280
 7976TIP3   OH248122   0.915   7.222   2.327 -0.0618 -0.2839  0.3076
 7976TIP3    H148123   0.996   7.258   2.362  0.1690 -0.4484 -0.0435
 7976TIP3    H248124   0.906   7.263   2.241 -0.2099 -0.4620  0.2367
 7977TIP3   OH248125   5.626   2.252   2.081 -0.0640  0.1679  0.3133
 7977TIP3    H148126   5.583   2.197   2.015  2.0919 -1.8251  0.4250
 7977TIP3    H248127   5.623   2.340   2.045 -3.7092  0.1277  0.1272
 7978TIP3   OH248128   4.389   6.364   2.502 -0.0351 -0.0148  0.8021
 7978TIP3    H148129   4.483   6.348   2.509  0.2566  1.5451  0.8687
 7978TIP3    H248130   4.367   6.414   2.581 -0.9268 -0.3630  0.7876
 7979TIP3   OH248131   1.472   4.400   1.480 -0.0311  0.2483 -0.2118
 7979TIP3    H148132   1.560   4.383   1.513 -0.8940 -1.0336  1.6343
 7979TIP3    H248133   1.435   4.462   1.543 -0.5187  0.6321 -0.8678
 7980TIP3   OH248134   0.676   6.196   0.716  0.1433 -0.0219  0.3549
 7980TIP3    H148135   0.725   6.114   0.711 -1.0812 -0.7872  0.6703
 7980TIP3    H248136   0.735   6.255   0.763  2.1382  0.1384 -2.1278
 7981TIP3   OH248137   5.448   1.283   3.272  0.2395 -0.4717  0.3091
 7981TIP3    H148138   5.542   1.269   3.263  0.2439 -0.8385  0.9079
 7981TIP3    H248139   5.409   1.210   3.224  0.2317  0.8895 -1.8807
 7982TIP3   OH248140   3.862   6.909   1.708  0.1627 -0.2512  0.6578
 7982TIP3    H148141   3.790   6.971   1.719  0.0667 -0.4129  0.9616
 7982TIP3    H248142   3.829   6.827   1.747 -0.5828 -1.1642 -1.7291
 7983TIP3   OH248143   5.456   1.571   1.016 -0.7817 -0.4256 -0.3803
 7983TIP3    H148144   5.540   1.611   0.993 -0.1215 -1.2239  0.5383
 7983TIP3    H248145   5.480   1.488   1.058 -2.0165 -0.4198  0.3859
 7984TIP3   OH248146   6.254   3.869   0.644  0.0088 -0.2768 -0.4778
 7984TIP3    H148147   6.234   3.954   0.685 -0.5955 -0.0014 -1.3140
 7984TIP3    H248148   6.173   3.819   0.652 -0.6507  0.3380 -2.6651
 7985TIP3   OH248149   1.296   1.523   3.195 -0.5345 -0.4387  0.1021
 7985TIP3    H148150   1.356   1.525   3.121 -0.2683 -2.6111  0.1928
 7985TIP3    H248151   1.213   1.493   3.159 -0.6897 -0.5113  0.5100
 7986TIP3   OH248152   4.427   1.216   0.785 -0.1703  0.0308 -0.1707
 7986TIP3    H148153   4.429   1.189   0.693 -2.0508  1.6467 -0.7713
 7986TIP3    H248154   4.382   1.145   0.830  0.7076 -0.7455 -0.4876
 7987TIP3   OH248155   2.938   3.754   2.375 -0.5723  0.0255  0.1769
 7987TIP3    H148156   3.032   3.747   2.386 -0.6723 -0.2373  0.9203
 7987TIP3    H248157   2.903   3.759   2.464 -1.2720 -0.1295 -0.0779
 7988TIP3   OH248158   1.617   3.440   2.187  0.4583 -0.3217  0.3788
 7988TIP3    H148159   1.689   3.439   2.125  0.3520 -0.9430  0.2544
 7988TIP3    H248160   1.599   3.347   2.204  0.3532 -0.1653  1.1758
 7989TIP3   OH248161   0.042   5.678   0.475 -0.2143  0.4232  0.0924
 7989TIP3    H148162   0.081   5.615   0.414 -2.0606  0.2140 -0.9261
 7989TIP3    H248163  -0.051   5.655   0.478 -0.0909 -0.2249  3.8086
 7990TIP3   OH248164   4.443   4.310   0.562 -0.2668 -0.4562 -0.1241
 7990TIP3    H148165   4.430   4.398   0.599 -2.2475 -0.7434 -0.0052
 7990TIP3    H248166   4.531   4.312   0.526 -0.7159  2.0476 -1.3256
 7991TIP3   OH248167   5.843   5.108   1.317 -0.4975  0.1087  0.0474
 7991TIP3    H148168   5.888   5.024   1.306 -1.5439 -0.6801  1.4639
 7991TIP3    H248169   5.825   5.137   1.227  1.0340 -0.5191 -0.4966
 7992TIP3   OH248170   1.207   4.160   0.616  0.4253  0.4404  0.1159
 7992TIP3    H148171   1.291   4.117   0.634 -0.5734 -0.8345  2.0591
 7992TIP3    H248172   1.189   4.211   0.694 -1.9483 -1.6621  1.0877
 7993TIP3   OH248173   6.855   5.338   2.055 -0.6803  0.5233 -0.2663
 7993TIP3    H148174   6.846   5.243   2.045 -2.4735  0.7019 -0.6638
 7993TIP3    H248175   6.887   5.368   1.970 -0.5655  0.3266 -0.2943
 7994TIP3   OH248176   7.005   1.225   2.264 -0.3059 -0.3083  0.0532
 7994TIP3    H148177   6.913   1.251   2.273  0.3476  2.0096  1.0062
 7994TIP3    H248178   7.020   1.219   2.170 -1.0096  1.1840 -0.1892
 7995TIP3   OH248179   4.198   5.599   1.127  0.2543  0.1251 -0.8434
 7995TIP3    H148180   4.108   5.603   1.095 -0.1150 -0.0793  0.1356
 7995TIP3    H248181   4.245   5.662   1.073 -0.9100  1.8003  0.0086
 7996TIP3   OH248182   6.157   6.104   0.667  0.2993  0.2842  0.0446
 7996TIP3    H148183   6.134   6.196   0.662 -1.7216 -0.1749  0.2162
 7996TIP3    H248184   6.085   6.058   0.624  2.2257 -1.1322 -1.9020
 7997TIP3   OH248185   2.942   4.365   0.469  0.1941  0.5317 -0.1594
 7997TIP3    H148186   2.885   4.349   0.544  1.5803 -0.9695  0.6591
 7997TIP3    H248187   2.896   4.430   0.417 -1.5559  0.4525  1.1845
 7998TIP3   OH248188   4.463   5.520   1.391  0.1855 -0.0601  0.4630
 7998TIP3    H148189   4.528   5.466   1.437  1.4632 -0.6212 -1.8532
 7998TIP3    H248190   4.429   5.578   1.459  2.3407 -0.4773  2.0278
 7999TIP3   OH248191   5.831   7.167   1.122  0.1518  0.2523  0.1940
 7999TIP3    H148192   5.867   7.243   1.077  0.3395  0.4374  0.6436
 7999TIP3    H248193   5.739   7.165   1.097  0.3114  0.2058 -0.3890
 8000TIP3   OH248194   4.980   1.511   2.387 -0.2204 -0.0308 -0.3731
 8000TIP3    H148195   4.958   1.495   2.295  1.0127 -1.5140 -0.4423
 8000TIP3    H248196   5.028   1.594   2.386 -1.5262  0.7520 -0.8396
 8001TIP3   OH248197   4.068   5.760   1.484 -0.4688  0.3996 -0.0710
 8001TIP3    H148198   4.039   5.693   1.422  0.0599 -1.5521  1.6713
 8001TIP3    H248199   3.989   5.809   1.506 -1.0197 -0.1166 -0.8559
 8002TIP3   OH248200   4.386   3.113   2.388  0.8782 -0.3705 -0.1812
 8002TIP3    H148201   4.418   3.121   2.298  2.2086 -0.4405  0.2677
 8002TIP3    H248202   4.445   3.167   2.440  0.2547 -0.4965  0.6915
 8003TIP3   OH248203   4.616   6.971   1.670  0.3555 -0.1192  0.2981
 8003TIP3    H148204   4.549   7.010   1.727  0.3334 -0.0118  0.1990
 8003TIP3    H248205   4.655   7.046   1.625 -0.8910 -0.3395 -1.2360
 8004TIP3   OH248206   4.648   4.077   1.756  0.0273 -0.1899  0.3634
 8004TIP3    H148207   4.624   4.059   1.665 -2.2843 -1.7157  1.1751
 8004TIP3    H248208   4.627   4.170   1.768  0.4538  0.0542 -0.6591
 8005TIP3   OH248209   1.501   2.483   2.608  0.1061 -0.1687 -1.1098
 8005TIP3    H148210   1.565   2.479   2.679 -0.2936 -0.9151 -0.7756
 8005TIP3    H248211   1.532   2.419   2.545  0.0174 -0.0940 -1.2280
 8006TIP3   OH248212   4.090   2.416   1.978 -0.0215  0.0087  0.3898
 8006TIP3    H148213   4.141   2.435   2.057 -0.4540  0.0292  0.6646
 8006TIP3    H248214   4.040   2.496   1.962  1.4626  0.7198 -0.9935
 8007TIP3   OH248215   2.651   7.276   2.205  0.0411 -0.0631 -0.3134
 8007TIP3    H148216   2.677   7.251   2.294 -0.0795 -0.9718 -0.5214
 8007TIP3    H248217   2.572   7.329   2.216  1.9308  2.8610  0.3513
 8008TIP3   OH248218   3.521   5.067   1.243 -0.2347 -0.4919 -0.2222
 8008TIP3    H148219   3.526   4.993   1.304 -1.0097 -0.3267  0.0579
 8008TIP3    H248220   3.566   5.036   1.164 -0.9844 -1.4489 -0.2912
 8009TIP3   OH248221   5.826   4.707   0.998 -0.1343  0.7520  0.2063
 8009TIP3    H148222   5.882   4.749   0.933 -0.2568  1.8760  0.8055
 8009TIP3    H248223   5.869   4.725   1.081 -0.5257  0.2096  0.5308
 8010TIP3   OH248224   5.779   6.890   1.462  0.1255 -0.6137 -0.0871
 8010TIP3    H148225   5.719   6.914   1.392 -0.1258 -2.3287 -0.5079
 8010TIP3    H248226   5.843   6.962   1.464 -0.5696  0.0741 -1.2200
 8011TIP3   OH248227   3.219   7.028   1.279  0.2254  0.2207  0.1149
 8011TIP3    H148228   3.225   7.042   1.185 -1.1915 -1.8649 -0.3589
 8011TIP3    H248229   3.292   6.968   1.299 -0.5809 -0.8568 -0.0537
 8012TIP3   OH248230   7.185   5.897   0.534  0.9278 -0.1343  0.3318
 8012TIP3    H148231   7.094   5.915   0.556  0.7401 -0.1716 -0.3722
 8012TIP3    H248232   7.212   5.972   0.480  1.2393 -0.2423  0.3354
 8013TIP3   OH248233   0.131   6.660   1.017  0.1156  0.4147 -0.0345
 8013TIP3    H148234   0.106   6.625   1.103  1.1560 -0.0862  0.0870
 8013TIP3    H248235   0.055   6.644   0.962  0.0344 -0.7933  0.3815
 8014TIP3   OH248236   0.975   6.904   2.530  0.1533  0.5670 -0.2769
 8014TIP3    H148237   0.950   6.956   2.454 -1.9284 -0.5163 -0.4135
 8014TIP3    H248238   0.901   6.911   2.590  1.2086  0.3554  1.1154
 8015TIP3   OH248239   4.624   5.390   1.559  0.6423  0.0385  0.2636
 8015TIP3    H148240   4.678   5.324   1.603  0.9695  0.4927  0.5475
 8015TIP3    H248241   4.636   5.469   1.611 -2.5202 -0.4863  2.0903
 8016TIP3   OH248242   2.511   4.365   1.141 -0.2246 -0.0176 -0.3728
 8016TIP3    H148243   2.495   4.272   1.155 -2.3469  0.5427  1.4562
 8016TIP3    H248244   2.605   4.375   1.156 -0.3259 -1.5273  1.7777
 8017TIP3   OH248245   4.092   4.498   1.113 -0.0920 -0.0512 -0.3398
 8017TIP3    H148246   4.092   4.583   1.158 -1.1321 -0.2353  0.0300
 8017TIP3    H248247   4.181   4.465   1.124  0.4989  1.2360 -0.9714
 8018TIP3   OH248248   2.687   3.461   1.667 -0.6627  0.2398  0.4359
 8018TIP3    H148249   2.592   3.452   1.658 -0.7186  0.8743  0.3741
 8018TIP3    H248250   2.705   3.442   1.759 -0.7304 -0.8606  0.2353
 8019TIP3   OH248251   0.190   1.584   1.563 -0.4496  0.8068  0.1627
 8019TIP3    H148252   0.243   1.630   1.498  2.2839  0.1553  1.7373
 8019TIP3    H248253   0.152   1.653   1.618 -0.7784  1.2833 -0.6566
 8020TIP3   OH248254   3.248   4.451   2.495  0.2664  0.1732 -0.3668
 8020TIP3    H148255   3.188   4.489   2.431 -0.8869 -3.1701 -1.4975
 8020TIP3    H248256   3.227   4.496   2.577 -2.4846  0.4683 -1.1266
 8021TIP3   OH248257   0.612   1.727   1.073  0.4468  0.2385  0.1854
 8021TIP3    H148258   0.702   1.757   1.060  0.6147  0.1868  1.1129
 8021TIP3    H248259   0.587   1.685   0.991  1.1754  0.5038 -0.1713
 8022TIP3   OH248260   3.984   0.615   2.494  0.3019  0.6036 -0.2255
 8022TIP3    H148261   3.985   0.542   2.557 -5.1301 -0.7711 -1.2743
 8022TIP3    H248262   3.981   0.693   2.549  1.3486 -0.1570  1.0089
 8023TIP3   OH248263   7.414   6.368   1.878  0.0277  0.2612  0.3523
 8023TIP3    H148264   7.506   6.390   1.860  0.6012 -1.7806  0.4367
 8023TIP3    H248265   7.391   6.421   1.954  1.3701  0.3502  0.7229
 8024TIP3   OH248266   5.348   6.687   2.257 -0.4336 -0.7766  0.6990
 8024TIP3    H148267   5.345   6.753   2.327  1.3699 -1.8317  1.8366
 8024TIP3    H248268   5.325   6.605   2.301 -1.1010 -1.1766 -0.3671
 8025TIP3   OH248269   2.743   3.904   0.499  0.0117 -0.3816  0.2185
 8025TIP3    H148270   2.812   3.848   0.464  1.2589  0.8671  0.5926
 8025TIP3    H248271   2.770   3.922   0.589 -1.9068 -1.5780  1.1090
 8026TIP3   OH248272   0.260   5.075   1.281 -0.3688  0.6009  0.1708
 8026TIP3    H148273   0.310   5.110   1.354 -2.0185  2.7833  0.3286
 8026TIP3    H248274   0.304   5.108   1.203  0.5321 -0.5243  0.1781
 8027TIP3   OH248275   1.401   5.498   2.233  0.6324 -0.6274 -0.2971
 8027TIP3    H148276   1.412   5.509   2.327  1.9092 -3.0785 -0.0664
 8027TIP3    H248277   1.340   5.567   2.207 -1.1869 -0.9713  2.6156
 8028TIP3   OH248278   3.606   1.084   0.484  0.1375 -0.1649 -0.0260
 8028TIP3    H148279   3.680   1.024   0.493 -0.0606 -0.3923  0.0728
 8028TIP3    H248280   3.610   1.139   0.562  0.2103 -0.1667 -0.0286
 8029TIP3   OH248281   2.063   2.754   2.339 -0.2232 -0.1647 -0.4137
 8029TIP3    H148282   2.078   2.751   2.245 -0.4342 -2.0652 -0.4351
 8029TIP3    H248283   2.142   2.716   2.377 -0.5654 -0.3750  0.1033
 8030TIP3   OH248284   0.563   0.310   0.984 -0.4893 -0.4847  0.2206
 8030TIP3    H148285   0.582   0.268   1.068  0.5202 -0.2325  0.1281
 8030TIP3    H248286   0.549   0.237   0.924 -1.4943 -0.6679  0.6587
 8031TIP3   OH248287   1.175   3.001   2.855  0.1535 -1.0247 -0.0187
 8031TIP3    H148288   1.122   2.923   2.837  0.5790 -1.0373 -1.2749
 8031TIP3    H248289   1.212   2.985   2.942 -0.7058 -1.6856  0.2399
 8032TIP3   OH248290   7.170   0.316   0.867  0.1157 -0.0846 -0.3592
 8032TIP3    H148291   7.221   0.274   0.798 -3.0951 -0.5887 -2.6918
 8032TIP3    H248292   7.122   0.244   0.908 -0.6125  0.5751 -0.0203
 8033TIP3   OH248293   6.228   4.670   0.688  0.1499  0.2427 -0.4355
 8033TIP3    H148294   6.283   4.745   0.708 -0.3585  0.4324  0.2958
 8033TIP3    H248295   6.183   4.693   0.607 -0.4631  0.9930  0.1081
 8034TIP3   OH248296   2.993   5.905   0.608  0.6740 -0.3547 -0.7955
 8034TIP3    H148297   2.938   5.983   0.614  0.6251 -0.3231 -1.6279
 8034TIP3    H248298   3.006   5.878   0.699  0.1885  0.2687 -0.5369
 8035TIP3   OH248299   1.889   4.952   0.311  0.2231 -0.2538  0.6367
 8035TIP3    H148300   1.856   4.974   0.224 -0.2604 -0.2830  0.8125
 8035TIP3    H248301   1.849   5.017   0.369  0.3884 -0.3556  0.8653
 8036TIP3   OH248302   3.129   2.361   1.208 -0.1787 -0.1894 -0.4876
 8036TIP3    H148303   3.075   2.393   1.136  0.4348  0.7273 -0.5559
 8036TIP3    H248304   3.085   2.392   1.287 -0.0660  0.0560 -0.5214
 8037TIP3   OH248305   5.925   2.455   1.307  0.1380  0.2978  0.0494
 8037TIP3    H148306   5.913   2.549   1.320  0.3551  0.6036 -1.7477
 8037TIP3    H248307   6.016   2.447   1.279  0.1987 -0.4871  0.4530
 8038TIP3   OH248308   5.641   1.672   1.583  0.7810  0.0522 -0.0238
 8038TIP3    H148309   5.642   1.699   1.491 -0.6741 -0.2242 -0.1422
 8038TIP3    H248310   5.653   1.577   1.580 -0.6055 -0.1454 -0.0428
 8039TIP3   OH248311   0.937   4.612   2.210  0.6174 -0.1825 -0.4793
 8039TIP3    H148312   1.002   4.572   2.153 -1.3512 -1.1229 -2.2255
 8039TIP3    H248313   0.879   4.660   2.150  0.4057  1.7214  1.1246
 8040TIP3   OH248314   1.440   5.352   2.532 -0.2824  0.7199 -0.0222
 8040TIP3    H148315   1.463   5.287   2.598 -1.8557 -0.0827 -0.2125
 8040TIP3    H248316   1.380   5.306   2.473 -0.1303  1.8765 -1.1172
 8041TIP3   OH248317   4.630   1.549   1.358  0.0745 -0.2150 -0.1337
 8041TIP3    H148318   4.694   1.609   1.397  1.1698 -1.8964  0.7603
 8041TIP3    H248319   4.668   1.523   1.275 -2.2289  3.3101 -2.5808
 8042TIP3   OH248320   3.652   6.372   2.162 -0.5511 -0.0506 -0.3904
 8042TIP3    H148321   3.635   6.292   2.212  0.9709 -0.0862  0.1148
 8042TIP3    H248322   3.710   6.424   2.219  0.5357  0.2854 -1.7497
 8043TIP3   OH248323   6.767   0.970   0.869 -0.1649  0.1849 -0.4033
 8043TIP3    H148324   6.783   0.907   0.799  0.8105  0.4445 -0.4303
 8043TIP3    H248325   6.850   1.016   0.879 -0.7487  1.1907 -0.1074
 8044TIP3   OH248326   4.225   4.068   2.749 -0.2669 -0.7132 -0.5569
 8044TIP3    H148327   4.190   4.107   2.828  0.3961 -1.6888  0.2515
 8044TIP3    H248328   4.156   4.078   2.684 -1.0023 -0.3044  0.2684
 8045TIP3   OH248329   1.038   7.000   1.184  0.7290  0.0926 -0.3289
 8045TIP3    H148330   1.009   7.091   1.188  0.4474  0.0554 -1.3142
 8045TIP3    H248331   1.070   6.981   1.272  0.0380  0.8947  0.1091
 8046TIP3   OH248332   3.505   3.767   2.366 -0.2894 -0.1181 -0.1167
 8046TIP3    H148333   3.587   3.722   2.390  0.0604  0.9516  0.8260
 8046TIP3    H248334   3.501   3.760   2.271  0.7307 -0.4958 -0.1509
 8047TIP3   OH248335   7.156   3.507   2.134 -0.2371 -0.2463 -0.2431
 8047TIP3    H148336   7.159   3.602   2.121  0.9440 -0.3564 -0.8969
 8047TIP3    H248337   7.099   3.495   2.210 -0.2035  0.9979  0.0030
 8048TIP3   OH248338   3.344   4.205   2.518 -0.1861 -0.3025  0.1199
 8048TIP3    H148339   3.296   4.288   2.513 -1.3200 -0.9805 -0.5407
 8048TIP3    H248340   3.369   4.186   2.428  0.3866 -0.5088  0.3191
 8049TIP3   OH248341   4.774   4.457   2.491  0.3350 -0.0517  0.6612
 8049TIP3    H148342   4.686   4.447   2.457  0.6579  0.9358 -0.5592
 8049TIP3    H248343   4.769   4.532   2.550 -0.0706 -1.3142  2.2777
 8050TIP3   OH248344   4.833   2.247   1.101 -0.0692 -0.6510 -0.0532
 8050TIP3    H148345   4.780   2.311   1.053 -2.0394 -0.1583  2.5431
 8050TIP3    H248346   4.869   2.296   1.175  0.8193 -1.9035  0.3801
 8051TIP3   OH248347   3.873   2.327   1.019 -0.1319  0.2941 -0.0250
 8051TIP3    H148348   3.792   2.299   0.977  0.0905 -1.4999  0.6599
 8051TIP3    H248349   3.930   2.250   1.017  1.4111  1.3699 -0.0886
 8052TIP3   OH248350   2.444   4.374   2.402  0.1668  0.3907 -0.0711
 8052TIP3    H148351   2.521   4.327   2.432  0.1531  0.0744 -0.5226
 8052TIP3    H248352   2.446   4.457   2.449  0.1077 -0.1212  0.8587
 8053TIP3   OH248353   3.884   0.044   2.348 -0.3543 -0.0033 -0.0864
 8053TIP3    H148354   3.920  -0.006   2.275  0.1868  0.3265 -0.0550
 8053TIP3    H248355   3.793   0.015   2.355 -1.0949  1.4725 -2.2649
 8054TIP3   OH248356   3.278   7.523   2.047 -0.0014 -0.0445  0.0550
 8054TIP3    H148357   3.239   7.582   1.983 -0.7132 -0.0111  0.5072
 8054TIP3    H248358   3.274   7.437   2.006 -0.9646 -0.1088  0.2704
 8055TIP3   OH248359   4.758   1.504   1.110  0.1823 -0.5866 -0.6240
 8055TIP3    H148360   4.838   1.554   1.092 -0.2371  0.0052 -0.8752
 8055TIP3    H248361   4.779   1.415   1.080  1.4544 -0.9615  1.2099
 8056TIP3   OH248362   0.218   5.108   3.101  0.4484 -0.4205 -0.0247
 8056TIP3    H148363   0.141   5.062   3.135  0.4941 -0.8447 -0.4744
 8056TIP3    H248364   0.199   5.120   3.008  0.3182  0.7324  0.1336
 8057TIP3   OH248365   1.762   6.098   1.471  0.2463 -0.0049  0.3025
 8057TIP3    H148366   1.854   6.087   1.497  0.2400  0.8334  0.7019
 8057TIP3    H248367   1.749   6.034   1.402  1.0272 -0.4054  0.5159
 8058TIP3   OH248368   1.313   4.490   1.700  0.1201 -0.1376 -0.1091
 8058TIP3    H148369   1.228   4.511   1.662 -0.0198 -0.9089 -0.2394
 8058TIP3    H248370   1.322   4.395   1.688 -0.3067 -0.5913  2.5155
 8059TIP3   OH248371   6.412   5.724   0.807 -0.0013  0.2566  0.1592
 8059TIP3    H148372   6.395   5.764   0.892  0.3453  0.1018  0.3029
 8059TIP3    H248373   6.427   5.631   0.827 -1.3918 -0.0865 -0.2272
 8060TIP3   OH248374   5.317   0.220   1.052 -0.1334 -0.0095  0.3490
 8060TIP3    H148375   5.303   0.152   1.117 -1.3114 -0.4453 -0.3228
 8060TIP3    H248376   5.272   0.297   1.087 -1.3162 -0.4210 -0.2034
 8061TIP3   OH248377   1.668   1.248   0.951 -0.3074 -0.1636  0.1029
 8061TIP3    H148378   1.652   1.308   0.878  0.7994 -0.5689 -0.4851
 8061TIP3    H248379   1.581   1.221   0.979 -0.7594  0.3042 -0.8100
 8062TIP3   OH248380   6.038   4.783   2.587 -0.0547  0.4776  0.2909
 8062TIP3    H148381   6.114   4.733   2.617  0.8660  1.0825 -0.9660
 8062TIP3    H248382   6.049   4.791   2.493 -1.8739  0.2898  0.0282
 8063TIP3   OH248383   0.903   1.508   2.017  0.3892  0.0870 -0.0602
 8063TIP3    H148384   0.829   1.497   1.956 -0.1322  2.0907  0.1273
 8063TIP3    H248385   0.980   1.489   1.964 -0.2030 -2.0384 -0.2707
 8064TIP3   OH248386   1.041   1.390   1.726  0.5340  0.4560 -0.4760
 8064TIP3    H148387   1.083   1.347   1.800  0.7408 -1.7828 -1.8073
 8064TIP3    H248388   1.112   1.435   1.680  0.4698  1.5039  0.4074
 8065TIP3   OH248389   1.888   6.113   2.008  1.1976 -0.3391 -0.0084
 8065TIP3    H148390   1.813   6.117   2.067 -0.4418 -1.9064 -1.8254
 8065TIP3    H248391   1.899   6.203   1.977 -1.1241 -0.3001 -0.9762
 8066TIP3   OH248392   5.851   0.467   2.171  0.1910 -0.0639 -0.5085
 8066TIP3    H148393   5.862   0.559   2.150  1.6770 -0.1182 -0.1138
 8066TIP3    H248394   5.756   0.455   2.179 -0.1609  0.9528 -2.5281
 8067TIP3   OH248395   6.220   7.028   1.673  0.1433  0.4338 -0.3786
 8067TIP3    H148396   6.137   7.075   1.683 -0.9541 -1.5940  0.5603
 8067TIP3    H248397   6.250   7.014   1.762 -0.9473 -2.8740 -0.3949
 8068TIP3   OH248398   0.254   3.709   1.086 -0.6255 -0.3561  0.6900
 8068TIP3    H148399   0.273   3.726   1.178 -1.9552  0.1645  0.8955
 8068TIP3    H248400   0.172   3.756   1.069  0.1328  0.4404 -1.0470
 8069TIP3   OH248401   3.422   5.461   2.593  0.0328 -0.3331  0.1155
 8069TIP3    H148402   3.335   5.457   2.552 -0.5891  0.9341  1.2199
 8069TIP3    H248403   3.448   5.370   2.603 -1.1265 -0.7308 -0.3358
 8070TIP3   OH248404   2.967   3.839   0.985  0.1388 -0.2090 -0.4297
 8070TIP3    H148405   2.906   3.908   1.011 -0.1044 -0.8186  0.7125
 8070TIP3    H248406   2.915   3.758   0.990  0.7873 -0.6296 -0.3399
 8071TIP3   OH248407   2.110   5.376   2.909  0.3943  0.4923 -0.4016
 8071TIP3    H148408   2.019   5.353   2.893  0.8430 -1.6242 -0.2794
 8071TIP3    H248409   2.154   5.360   2.825  1.1153 -1.3607  0.2794
 8072TIP3   OH248410   4.374   5.802   1.348 -0.2647  0.3644  0.0069
 8072TIP3    H148411   4.279   5.805   1.338 -0.1871 -0.9643 -1.4143
 8072TIP3    H248412   4.402   5.894   1.342 -1.3856  0.6937 -0.2929
 8073TIP3   OH248413   3.970   5.558   1.332 -0.4122 -0.2551 -0.3304
 8073TIP3    H148414   4.048   5.508   1.308 -0.1024 -0.9208  1.8082
 8073TIP3    H248415   3.931   5.507   1.403 -0.8975  1.7906  0.9422
 8074TIP3   OH248416   4.684   5.209   1.103  1.2204  0.0088  0.3854
 8074TIP3    H148417   4.678   5.303   1.117  1.2431 -0.0544  0.8558
 8074TIP3    H248418   4.691   5.198   1.008  1.5295  0.4957  0.3511
 8075TIP3   OH248419   2.785   2.066   0.610  0.2537  0.0853  0.2290
 8075TIP3    H148420   2.752   2.145   0.654 -1.8012 -0.4618 -0.2313
 8075TIP3    H248421   2.837   2.100   0.537 -0.8763  1.0297 -0.1615
 8076TIP3   OH248422   5.127   6.838   2.906  0.1031  0.4107  0.2066
 8076TIP3    H148423   5.145   6.898   2.834  2.3971 -0.1805  0.2073
 8076TIP3    H248424   5.101   6.895   2.978 -2.5170  1.0014 -1.0688
 8077TIP3   OH248425   2.953   5.938   1.294  0.4847 -1.1467  0.0435
 8077TIP3    H148426   2.928   5.846   1.299 -1.2960 -0.9403 -2.8810
 8077TIP3    H248427   2.983   5.950   1.204 -0.0804  1.2971  0.1089
 8078TIP3   OH248428   5.631   2.510   2.022  0.0181 -0.1581  0.4649
 8078TIP3    H148429   5.656   2.555   1.941  0.2363  2.3463  1.8139
 8078TIP3    H248430   5.537   2.527   2.030  0.2585  0.8690  1.4072
 8079TIP3   OH248431   4.326   0.868   2.460 -0.3742 -0.1235  0.1802
 8079TIP3    H148432   4.283   0.951   2.478  0.7581  0.3908  0.5697
 8079TIP3    H248433   4.304   0.813   2.535  0.8580  0.6369  1.1401
 8080TIP3   OH248434   6.697   6.524   1.010 -0.2855  0.6986 -0.0562
 8080TIP3    H148435   6.637   6.478   1.067 -0.1776 -0.7461 -1.0562
 8080TIP3    H248436   6.765   6.558   1.068 -0.3603 -0.4265  0.7000
 8081TIP3   OH248437   5.344   7.386   2.659  0.0573  0.3258  0.2214
 8081TIP3    H148438   5.332   7.319   2.726  0.9401  2.0162  2.2155
 8081TIP3    H248439   5.439   7.399   2.655 -0.0071  0.5163 -1.1242
 8082TIP3   OH248440   0.571   3.904   3.159  0.4724 -0.2801  0.1648
 8082TIP3    H148441   0.552   3.967   3.229 -0.5293 -0.2579 -0.1226
 8082TIP3    H248442   0.651   3.938   3.118  1.3750 -0.5586  1.5957
 8083TIP3   OH248443   3.585   4.752   2.362 -0.0672  0.1907  0.1113
 8083TIP3    H148444   3.506   4.706   2.391 -0.4246  0.2025 -0.8014
 8083TIP3    H248445   3.615   4.799   2.441 -0.6085 -0.3123  0.6322
 8084TIP3   OH248446   2.043   5.458   1.433 -0.6337  0.4325  0.1267
 8084TIP3    H148447   2.057   5.531   1.373  1.9444 -1.6105 -2.0003
 8084TIP3    H248448   2.108   5.470   1.502  1.8387 -1.1334 -1.7338
 8085TIP3   OH248449   4.113   1.084   2.471  0.1282  1.0463 -0.6010
 8085TIP3    H148450   4.043   1.133   2.429  0.7760  2.2177 -0.3713
 8085TIP3    H248451   4.132   1.134   2.551 -1.2949 -1.2785  1.3088
 8086TIP3   OH248452   5.506   7.096   1.657  0.3549 -0.5653 -0.0634
 8086TIP3    H148453   5.497   7.157   1.583  0.0856  0.5957  0.8928
 8086TIP3    H248454   5.545   7.149   1.727  0.1143 -1.5066  0.8035
 8087TIP3   OH248455   3.085   2.368   2.274  0.2751 -0.2960  0.8873
 8087TIP3    H148456   3.069   2.423   2.197  0.6763 -0.1925  0.8742
 8087TIP3    H248457   3.015   2.391   2.335 -1.2945 -1.8763 -0.2346
 8088TIP3   OH248458   7.252   2.369   0.670  0.5538 -0.4479 -0.1872
 8088TIP3    H148459   7.183   2.305   0.652  0.1923 -0.1657  0.1693
 8088TIP3    H248460   7.209   2.436   0.723  1.5766 -1.2799  1.7886
 8089TIP3   OH248461   1.982   1.468   1.202  0.0498 -0.2616  0.3531
 8089TIP3    H148462   2.002   1.375   1.195 -0.9881 -0.4369 -0.5082
 8089TIP3    H248463   1.886   1.472   1.202  0.0608  0.9196 -1.4230
 8090TIP3   OH248464   5.092   7.328   2.475  0.0061  0.0658 -0.2969
 8090TIP3    H148465   5.039   7.291   2.546  0.5970 -0.5594 -0.1730
 8090TIP3    H248466   5.059   7.417   2.464 -1.1875 -0.3588 -0.3308
 8091TIP3   OH248467   7.348   4.650   2.433  0.0904  0.0900  0.1281
 8091TIP3    H148468   7.340   4.554   2.427 -1.3781  0.2287 -0.7333
 8091TIP3    H248469   7.371   4.667   2.524 -0.7794 -1.0319  0.5735
 8092TIP3   OH248470   1.178   2.271   1.793 -0.3224  0.0508 -0.3356
 8092TIP3    H148471   1.087   2.283   1.820  0.1138 -0.6742  1.6303
 8092TIP3    H248472   1.173   2.242   1.702 -1.8223  4.2972 -1.8071
 8093TIP3   OH248473   2.179   4.772   3.032 -0.9191 -0.1935  0.2578
 8093TIP3    H148474   2.167   4.835   2.961  1.2394  1.9354  1.6323
 8093TIP3    H248475   2.128   4.807   3.104 -1.0772 -0.9856  0.5436
 8094TIP3   OH248476   6.698   7.437   3.204 -0.3058 -0.6720 -0.0920
 8094TIP3    H148477   6.680   7.528   3.178 -1.6911 -1.0597 -0.5833
 8094TIP3    H248478   6.690   7.388   3.122 -0.4476 -1.3434  0.3229
 8095TIP3   OH248479   3.115   1.247   0.375  0.3497  0.0157  0.1531
 8095TIP3    H148480   3.108   1.310   0.448  1.1271 -0.0267  0.2705
 8095TIP3    H248481   3.209   1.228   0.369  0.0864 -1.4832  0.4143
 8096TIP3   OH248482   5.547   6.412   2.187  0.2150 -0.0212 -0.5177
 8096TIP3    H148483   5.492   6.339   2.156  0.4247  0.0310 -1.0215
 8096TIP3    H248484   5.486   6.469   2.234  0.0776 -0.6023  0.0204
 8097TIP3   OH248485   4.901   4.130   1.409 -0.5032 -0.0872  0.1552
 8097TIP3    H148486   4.923   4.184   1.484 -0.0239  0.1684 -0.1682
 8097TIP3    H248487   4.808   4.148   1.394 -0.1063  1.5040 -0.6236
 8098TIP3   OH248488   2.345   4.588   2.887 -0.1976 -0.2634  0.2343
 8098TIP3    H148489   2.360   4.662   2.828 -0.2002 -1.7915 -1.7760
 8098TIP3    H248490   2.282   4.621   2.951  0.4471  1.7183 -0.0715
 8099TIP3   OH248491   1.584   4.640   3.007 -0.1759  0.5806  0.0209
 8099TIP3    H148492   1.505   4.591   2.986 -0.9521  1.5485  0.6035
 8099TIP3    H248493   1.576   4.722   2.957  1.6026 -0.2394 -1.7842
 8100TIP3   OH248494   1.551   0.954   1.225  0.6569 -0.3708 -0.1823
 8100TIP3    H148495   1.567   0.860   1.211  0.0363 -1.0923  3.0661
 8100TIP3    H248496   1.629   0.984   1.273  0.8097  0.7783 -1.1232
 8101TIP3   OH248497   2.458   5.285   1.007  0.4991 -0.5553 -0.3172
 8101TIP3    H148498   2.521   5.322   1.068  0.7370 -0.9907 -0.2901
 8101TIP3    H248499   2.511   5.231   0.948  0.0210 -2.1311  0.6100
 8102TIP3   OH248500   3.354   5.064   2.579  0.4276  0.0699  0.0058
 8102TIP3    H148501   3.429   5.089   2.632  0.0767 -0.5738  0.8213
 8102TIP3    H248502   3.296   5.140   2.581  0.5187  0.1302  0.3541
 8103TIP3   OH248503   6.375   2.524   2.140 -0.0806 -0.2230  0.4218
 8103TIP3    H148504   6.355   2.609   2.103  0.4993 -0.5561 -0.6868
 8103TIP3    H248505   6.357   2.461   2.070 -1.1109 -1.0958  1.4120
 8104TIP3   OH248506   5.693   7.490   1.589  0.1061  0.5430 -0.1644
 8104TIP3    H148507   5.768   7.438   1.561  1.1295  1.8215  0.0545
 8104TIP3    H248508   5.695   7.487   1.685  0.2285  1.0489 -0.1488
 8105TIP3   OH248509   0.585   6.326   2.291 -0.0426  0.2026 -0.0329
 8105TIP3    H148510   0.505   6.343   2.241 -0.1761  2.6298  0.8955
 8105TIP3    H248511   0.554   6.292   2.375  0.0033 -0.1956 -0.1712
 8106TIP3   OH248512   5.311   5.823   2.965  0.3058  0.6158 -0.3728
 8106TIP3    H148513   5.281   5.798   3.052 -1.0539 -1.8548 -1.4608
 8106TIP3    H248514   5.275   5.911   2.952 -1.9831 -0.1308  0.4725
 8107TIP3   OH248515   1.400   3.578   2.274 -0.1714 -0.3597  0.2395
 8107TIP3    H148516   1.388   3.660   2.322 -0.5499 -0.0947 -0.2935
 8107TIP3    H248517   1.491   3.579   2.245 -0.5005  0.4750 -0.8347
 8108TIP3   OH248518   5.194   6.534   1.882  0.3999 -0.8226 -0.1509
 8108TIP3    H148519   5.139   6.610   1.862  0.7634 -0.2583  0.9150
 8108TIP3    H248520   5.279   6.571   1.905 -0.0292 -1.3069  2.6792
 8109TIP3   OH248521   5.531   3.933   0.660  0.0450  0.1185 -0.0996
 8109TIP3    H148522   5.510   3.839   0.664  2.9285 -0.5915  0.5598
 8109TIP3    H248523   5.619   3.939   0.697  0.8663  2.8159 -2.2094
 8110TIP3   OH248524   4.018   6.324   1.031  0.1799 -0.1057  0.2259
 8110TIP3    H148525   3.971   6.265   1.089  1.7372 -0.4307  1.2149
 8110TIP3    H248526   3.974   6.314   0.946 -2.3733  0.6531  1.3700
 8111TIP3   OH248527   3.472   4.672   1.539  0.2148  0.3665 -0.1746
 8111TIP3    H148528   3.482   4.598   1.599  1.0434  0.6601  0.0532
 8111TIP3    H248529   3.381   4.666   1.511  0.1038 -0.3969  0.2923
 8112TIP3   OH248530   6.095   1.456   2.955  0.3254 -0.3859 -0.3568
 8112TIP3    H148531   6.177   1.490   2.989  1.4302 -1.9968 -1.2603
 8112TIP3    H248532   6.051   1.418   3.031 -0.6514  2.3146  0.5484
 8113TIP3   OH248533   0.398   6.569   2.789  0.6435 -0.5485 -0.0460
 8113TIP3    H148534   0.361   6.494   2.742 -0.4229 -0.6544  0.9222
 8113TIP3    H248535   0.459   6.608   2.727  0.2508 -1.4531 -1.0361
 8114TIP3   OH248536   1.075   5.294   0.947  0.1746  1.1336 -0.0993
 8114TIP3    H148537   1.152   5.349   0.936  0.0708  1.5580  1.1176
 8114TIP3    H248538   1.002   5.350   0.920  0.0867  1.5661  0.9686
 8115TIP3   OH248539   5.328   4.979   3.171  0.3983  0.3692 -0.1718
 8115TIP3    H148540   5.234   4.995   3.168  0.4842  0.9686  0.0840
 8115TIP3    H248541   5.343   4.907   3.110 -0.0970  0.9224 -0.9545
 8116TIP3   OH248542   2.257   5.064   3.177 -0.3433 -0.2245  0.3213
 8116TIP3    H148543   2.196   5.122   3.222  0.1947 -0.6422  1.6635
 8116TIP3    H248544   2.269   5.103   3.091 -2.1711  0.0834  0.1740
 8117TIP3   OH248545   7.541   7.055   0.686  0.1531  0.0677  0.3634
 8117TIP3    H148546   7.606   7.124   0.671  0.5497 -0.1745  0.9626
 8117TIP3    H248547   7.547   6.999   0.609  0.9336 -0.1787  0.6020
 8118TIP3   OH248548   2.960   6.058   2.774  0.6293  0.0711 -0.0689
 8118TIP3    H148549   2.951   6.125   2.706 -0.0313 -1.1817 -1.2595
 8118TIP3    H248550   2.914   5.982   2.739 -0.0909 -0.4889  1.9800
 8119TIP3   OH248551   1.957   4.989   0.640 -0.1145 -0.6844 -0.1253
 8119TIP3    H148552   1.963   4.894   0.652 -2.3254 -0.5691  3.0336
 8119TIP3    H248553   1.877   5.001   0.588 -0.4241 -0.5491  0.3743
 8120TIP3   OH248554   0.471   3.681   3.029  0.2096 -0.1117  0.1635
 8120TIP3    H148555   0.504   3.756   3.080  1.0109 -1.1061  1.1541
 8120TIP3    H248556   0.405   3.641   3.085 -0.1684 -0.2050 -0.3386
 8121TIP3   OH248557   5.594   2.942   0.765  0.6356  0.0862 -0.0200
 8121TIP3    H148558   5.673   2.889   0.777  0.5511  0.3601  2.0608
 8121TIP3    H248559   5.626   3.032   0.758  0.6750 -0.0548 -2.0936
 8122TIP3   OH248560   5.679   3.320   8.055 -0.5894 -0.4822 -0.2801
 8122TIP3    H148561   5.601   3.276   8.021 -0.8030  0.3949 -0.9604
 8122TIP3    H248562   5.645   3.388   8.112 -0.3242 -0.1808 -0.4778
 8123TIP3   OH248563   5.230   4.827   2.138 -0.0459 -0.2115  0.4456
 8123TIP3    H148564   5.300   4.832   2.203 -0.4826  0.3998  0.8699
 8123TIP3    H248565   5.257   4.889   2.070 -0.2910  0.2020  0.7235
 8124TIP3   OH248566   2.493   0.453   2.056  0.6141 -0.6133 -0.5560
 8124TIP3    H148567   2.408   0.498   2.059  1.2693  0.6205  0.5430
 8124TIP3    H248568   2.522   0.451   2.147  2.2447 -0.0377 -1.0319
 8125TIP3   OH248569   6.448   1.962   0.563 -0.0082  0.0559 -0.0640
 8125TIP3    H148570   6.538   1.931   0.558  0.5651  1.3591  1.3106
 8125TIP3    H248571   6.452   2.037   0.623 -1.6862  1.3483 -1.4534
 8126TIP3   OH248572   3.964   3.090   1.228  0.1631 -0.4091  0.1150
 8126TIP3    H148573   4.032   3.057   1.170  0.3662  1.4235 -0.7928
 8126TIP3    H248574   3.893   3.116   1.169 -0.3838 -0.2114  0.8432
 8127TIP3   OH248575   2.502   2.127   1.169  0.0996 -0.4628  0.2935
 8127TIP3    H148576   2.565   2.103   1.101 -0.9314  0.6830 -1.1239
 8127TIP3    H248577   2.516   2.062   1.238 -0.1432 -2.9129 -1.8216
 8128TIP3   OH248578   6.777   4.601   2.153 -1.0460  0.2806  0.1849
 8128TIP3    H148579   6.750   4.627   2.065 -1.1875 -1.0374 -0.1799
 8128TIP3    H248580   6.797   4.508   2.146 -0.1547  0.3590  1.3431
 8129TIP3   OH248581   0.332   6.534   2.432 -0.0057  0.0565 -0.3046
 8129TIP3    H148582   0.279   6.583   2.368  0.9911 -1.1868 -2.1518
 8129TIP3    H248583   0.267   6.485   2.482 -0.7746  0.4540 -0.8682
 8130TIP3   OH248584   3.181   3.691   3.255 -0.8248 -0.0957 -0.1240
 8130TIP3    H148585   3.276   3.682   3.257 -0.5380  1.3265 -2.8757
 8130TIP3    H248586   3.164   3.779   3.290 -1.0066  0.1243 -0.7536
 8131TIP3   OH248587   6.003   1.403   2.698  0.0618 -0.3373  0.1518
 8131TIP3    H148588   6.034   1.406   2.789 -1.8164 -2.2776  0.9515
 8131TIP3    H248589   6.021   1.315   2.668  1.2751  0.4733 -1.6675
 8132TIP3   OH248590   2.437   4.838   2.695  0.0521 -0.2563 -0.5529
 8132TIP3    H148591   2.502   4.903   2.721 -0.8619  0.3371  0.3382
 8132TIP3    H248592   2.362   4.890   2.665 -0.4879 -0.8929 -0.3364
 8133TIP3   OH248593   0.885   6.329   1.924 -0.2894  0.4016  0.1342
 8133TIP3    H148594   0.938   6.396   1.968  0.5572  0.3430 -0.7667
 8133TIP3    H248595   0.839   6.377   1.855  1.3815 -0.1269 -1.4241
 8134TIP3   OH248596   0.831   0.875   7.077  0.0997 -0.2003  0.1196
 8134TIP3    H148597   0.847   0.956   7.029  2.3473 -1.9810 -2.4169
 8134TIP3    H248598   0.779   0.821   7.018  0.3552 -1.3697  0.9253
 8135TIP3   OH248599   4.945   7.537   1.850  0.0369 -0.7616 -0.7603
 8135TIP3    H148600   5.030   7.579   1.864 -0.2850  0.6585 -2.6815
 8135TIP3    H248601   4.928   7.490   1.931  0.4669  2.7772  1.5920
 8136TIP3   OH248602   2.879   0.670   1.245  0.1042  0.1906 -0.2866
 8136TIP3    H148603   2.847   0.706   1.328 -1.5424 -0.5925 -0.5390
 8136TIP3    H248604   2.834   0.722   1.178  0.6271  0.1291 -0.6902
 8137TIP3   OH248605   2.258   1.637   0.904  0.3680 -0.8022  0.4282
 8137TIP3    H148606   2.342   1.677   0.881 -0.5842 -0.3350 -2.7322
 8137TIP3    H248607   2.195   1.709   0.898 -0.3931 -1.2896  2.0738
 8138TIP3   OH248608   6.186   6.494   2.381 -0.0782  0.6350 -0.0809
 8138TIP3    H148609   6.120   6.467   2.317 -0.0218  0.7327 -0.1793
 8138TIP3    H248610   6.203   6.414   2.432  0.4680  0.3395 -0.7086
 8139TIP3   OH248611   5.748   6.332   1.738 -0.1884 -0.3211  0.1098
 8139TIP3    H148612   5.814   6.275   1.777  1.3607  0.0286 -1.8797
 8139TIP3    H248613   5.675   6.329   1.800  1.8817 -0.2191  2.7274
 8140TIP3   OH248614   6.665   1.868   1.905  0.6008 -0.4275  0.4466
 8140TIP3    H148615   6.719   1.910   1.971  0.6650 -1.5673  1.1415
 8140TIP3    H248616   6.661   1.776   1.932 -2.4355 -0.2441  0.9512
 8141TIP3   OH248617   6.906   2.569   1.128  0.1972  0.3768  0.2374
 8141TIP3    H148618   6.913   2.474   1.137  0.4800  0.5305  2.0410
 8141TIP3    H248619   6.812   2.585   1.119  0.0972 -0.0351  0.5127
 8142TIP3   OH248620   3.214   0.768   1.021 -0.4324 -0.5384  0.0953
 8142TIP3    H148621   3.193   0.784   0.929 -1.1689 -1.7377  0.0365
 8142TIP3    H248622   3.191   0.850   1.065  0.4716  0.2452 -0.8621
 8143TIP3   OH248623   4.671   7.362   1.843 -0.2101  0.5874 -0.0371
 8143TIP3    H148624   4.751   7.354   1.895 -1.1322 -0.3274  1.3000
 8143TIP3    H248625   4.699   7.346   1.753  0.7947 -1.8795  0.6314
 8144TIP3   OH248626   7.151   7.515   1.476  0.3521 -0.5256 -0.4251
 8144TIP3    H148627   7.112   7.550   1.395  1.1367 -0.4699 -0.7871
 8144TIP3    H248628   7.219   7.578   1.498 -0.6472  0.1257  0.9822
 8145TIP3   OH248629   2.087   1.720   3.002 -0.2493 -0.0290  0.3322
 8145TIP3    H148630   2.028   1.764   2.942  0.2810 -0.5592 -0.6168
 8145TIP3    H248631   2.048   1.731   3.088 -1.4083  0.1343 -0.2028
 8146TIP3   OH248632   0.369   5.262   0.692 -0.1829 -0.4840 -0.1026
 8146TIP3    H148633   0.399   5.340   0.740 -0.1286  0.9687 -2.3444
 8146TIP3    H248634   0.442   5.241   0.633 -1.0700 -0.8158 -1.1129
 8147TIP3   OH248635   3.223   3.729   2.351 -0.2932  0.2066 -0.5452
 8147TIP3    H148636   3.315   3.755   2.361 -0.1362 -0.3243 -0.6066
 8147TIP3    H248637   3.226   3.641   2.314 -0.7866 -0.9524  2.0013
 8148TIP3   OH248638   5.114   6.554   2.757  0.0033  0.1124 -0.2169
 8148TIP3    H148639   5.146   6.641   2.783 -0.6423  0.0892  0.7090
 8148TIP3    H248640   5.094   6.511   2.839  0.6977 -1.0827 -0.6515
 8149TIP3   OH248641   6.980   1.217   1.143 -0.4361  0.3086  0.0423
 8149TIP3    H148642   6.970   1.234   1.236  0.4599  0.8173  0.0587
 8149TIP3    H248643   6.933   1.289   1.100 -0.7831  0.1164  0.1002
 8150TIP3   OH248644   6.718   1.459   1.682  0.4422  0.3149  0.2128
 8150TIP3    H148645   6.640   1.483   1.632 -0.2581  1.6075  1.8514
 8150TIP3    H248646   6.728   1.365   1.666 -1.0970  0.2450 -0.5033
 8151TIP3   OH248647   4.455   6.798   1.519  0.1355  0.2021 -0.2709
 8151TIP3    H148648   4.519   6.842   1.575  0.9680 -0.4853 -0.6673
 8151TIP3    H248649   4.390   6.865   1.500  0.5816  0.8339  0.3673
 8152TIP3   OH248650   2.362   5.165   2.920  0.6025 -0.0174 -0.0910
 8152TIP3    H148651   2.411   5.164   2.838  0.2637 -0.0562 -0.2971
 8152TIP3    H248652   2.344   5.258   2.936 -0.7304 -0.0978 -0.9221
 8153TIP3   OH248653   1.006   5.082   1.915 -0.0538 -0.1683 -0.2643
 8153TIP3    H148654   1.018   5.057   2.006  1.1308 -0.5129 -0.5028
 8153TIP3    H248655   1.066   5.026   1.866 -1.3961 -0.7117 -1.3761
 8154TIP3   OH248656   6.292   3.201   0.436 -0.2398  0.2213 -0.0140
 8154TIP3    H148657   6.314   3.279   0.385  0.3093  0.7291  0.9762
 8154TIP3    H248658   6.375   3.157   0.449  0.3501  1.9829  3.4724
 8155TIP3   OH248659   4.443   2.998   2.676 -0.0446 -0.4961  0.4532
 8155TIP3    H148660   4.371   2.954   2.629 -0.1510 -2.0098  1.9214
 8155TIP3    H248661   4.510   2.930   2.685  0.3858  0.0449  1.5471
 8156TIP3   OH248662   3.240   0.499   1.033 -0.0886  0.1964  0.3148
 8156TIP3    H148663   3.238   0.594   1.020  0.6004 -0.0224 -1.7222
 8156TIP3    H248664   3.151   0.476   1.060 -0.6198  1.2546 -0.4820
 8157TIP3   OH248665   2.221   5.019   2.476  0.7377  0.2052 -0.3416
 8157TIP3    H148666   2.144   5.043   2.424  0.8104  0.2265 -0.4388
 8157TIP3    H248667   2.189   4.951   2.536  0.2677  1.3072  0.6966
 8158TIP3   OH248668   1.723   1.656   2.353  0.0015  0.5422 -0.0967
 8158TIP3    H148669   1.686   1.593   2.415 -0.3933 -0.2164 -1.0893
 8158TIP3    H248670   1.682   1.739   2.377  0.2047  0.3516  0.9527
 8159TIP3   OH248671   2.161   5.663   2.876 -0.0030 -0.2243 -0.7087
 8159TIP3    H148672   2.095   5.600   2.904 -0.5460  0.8187  0.4630
 8159TIP3    H248673   2.215   5.677   2.954  0.1617  0.6908 -0.9780
 8160TIP3   OH248674   0.716   7.360   1.484  0.5100  0.0679  0.0232
 8160TIP3    H148675   0.643   7.363   1.545  0.7414 -0.9520  0.3680
 8160TIP3    H248676   0.786   7.407   1.528  0.1400  0.8581 -0.2156
 8161TIP3   OH248677   4.628   0.055   1.179 -0.2380 -0.1493 -0.3237
 8161TIP3    H148678   4.575   0.112   1.234  1.1051  0.5202  0.3289
 8161TIP3    H248679   4.663  -0.010   1.240  0.2946 -0.1264 -0.6000
 8162TIP3   OH248680   2.236   1.998   1.040  0.2661  0.6606 -0.3389
 8162TIP3    H148681   2.294   1.934   1.080 -2.0147 -0.7161  0.9233
 8162TIP3    H248682   2.250   1.987   0.946 -0.2176 -1.8885 -0.1724
 8163TIP3   OH248683   6.629   7.404   2.932  0.3067 -0.4972 -0.2384
 8163TIP3    H148684   6.656   7.496   2.924 -0.1897 -0.0388  2.4968
 8163TIP3    H248685   6.547   7.399   2.884  0.0902  0.6158 -0.0167
 8164TIP3   OH248686   1.524   2.491   1.092  0.4435 -0.2530 -0.5210
 8164TIP3    H148687   1.594   2.549   1.123 -0.2149  1.5078 -2.1251
 8164TIP3    H248688   1.570   2.415   1.055  1.4216  0.1358 -0.1270
 8165TIP3   OH248689   1.093   6.914   0.739  0.1820  0.4579  0.0638
 8165TIP3    H148690   1.119   6.966   0.663  1.3267  2.5494  1.7539
 8165TIP3    H248691   1.151   6.838   0.737  2.0258  1.7654  0.1306
 8166TIP3   OH248692   3.168   2.165   1.491 -0.2384  0.2034  0.2806
 8166TIP3    H148693   3.096   2.113   1.455 -0.3173  0.5284 -0.0395
 8166TIP3    H248694   3.195   2.117   1.569 -0.8204  0.0969  0.4212
 8167TIP3   OH248695   0.252   2.695   0.679  0.0685 -0.2636 -0.0484
 8167TIP3    H148696   0.277   2.604   0.695  0.4084  0.0969  1.6916
 8167TIP3    H248697   0.323   2.730   0.624 -0.7526 -1.3755 -1.8834
 8168TIP3   OH248698   4.169   0.240   0.732  0.1774 -0.0551  0.3817
 8168TIP3    H148699   4.220   0.232   0.813  2.9336 -0.6358 -1.2839
 8168TIP3    H248700   4.232   0.220   0.663 -1.8781  1.1978 -1.9736
 8169TIP3   OH248701   6.651   2.583   1.350 -0.0339  0.0497  0.3153
 8169TIP3    H148702   6.647   2.678   1.359 -1.3874  0.0281  0.0654
 8169TIP3    H248703   6.611   2.565   1.266 -1.4508 -0.8675  1.1525
 8170TIP3   OH248704   2.121   2.866   0.496 -0.7805 -0.3256 -0.5603
 8170TIP3    H148705   2.074   2.947   0.518 -1.8247 -0.7637 -1.1092
 8170TIP3    H248706   2.053   2.806   0.465  0.0022 -1.3557 -0.3617
 8171TIP3   OH248707   3.621   2.837   1.084  0.5798 -0.3345 -0.2793
 8171TIP3    H148708   3.636   2.753   1.127  1.2369  1.1813  2.7147
 8171TIP3    H248709   3.686   2.840   1.014  1.2952 -1.8213  0.2666
 8172TIP3   OH248710   6.595   3.556   1.193 -0.5007  0.6157 -0.1867
 8172TIP3    H148711   6.594   3.611   1.271 -0.0204 -1.0370  1.0565
 8172TIP3    H248712   6.503   3.535   1.177 -0.5715  0.5890  0.2340
 8173TIP3   OH248713   4.747   7.323   0.340 -0.1256 -0.0111 -0.2167
 8173TIP3    H148714   4.742   7.417   0.324  0.5814 -0.0720 -0.9147
 8173TIP3    H248715   4.659   7.290   0.321 -0.8529  0.7245  1.7068
 8174TIP3   OH248716   7.509   2.634   1.673  0.2806  0.2665  0.9724
 8174TIP3    H148717   7.557   2.571   1.620 -2.4103 -0.9024 -0.2676
 8174TIP3    H248718   7.459   2.580   1.735 -0.5414  1.3093  1.2442
 8175TIP3   OH248719   0.750   1.908   2.673 -0.2842 -0.4095 -0.2210
 8175TIP3    H148720   0.678   1.856   2.709 -0.2612 -0.2316  0.0930
 8175TIP3    H248721   0.824   1.847   2.670 -0.4083 -0.5508 -0.3969
 8176TIP3   OH248722   0.856   5.627   1.159  0.9602 -0.8941 -0.2451
 8176TIP3    H148723   0.834   5.644   1.067 -0.4982 -0.6721  0.1199
 8176TIP3    H248724   0.786   5.569   1.189  1.4325 -0.9681  0.7291
 8177TIP3   OH248725   0.524   4.328   1.557  0.1731 -0.3493 -0.1064
 8177TIP3    H148726   0.591   4.305   1.494  0.7906  0.4888  0.2197
 8177TIP3    H248727   0.471   4.395   1.514 -0.6416 -1.1906 -0.4619
 8178TIP3   OH248728   0.442   4.102   0.439  0.1782  0.1773 -0.8462
 8178TIP3    H148729   0.353   4.135   0.449  0.3762  0.4333  0.2618
 8178TIP3    H248730   0.497   4.179   0.449  0.5172  0.0679 -1.8441
 8179TIP3   OH248731   4.583   3.810   2.864  0.7167  0.0943 -0.1092
 8179TIP3    H148732   4.541   3.735   2.908 -0.8582  0.9622 -0.0598
 8179TIP3    H248733   4.535   3.819   2.782  2.0781 -0.0333 -0.9460
 8180TIP3   OH248734   1.655   6.688   1.586  0.3116  0.0435 -1.1345
 8180TIP3    H148735   1.576   6.688   1.533 -0.8367 -2.2214  0.4212
 8180TIP3    H248736   1.653   6.604   1.633  1.7119  1.4829  1.7629
 8181TIP3   OH248737   0.508   2.946   2.590  0.1352  0.0018  0.8461
 8181TIP3    H148738   0.517   3.038   2.615  0.0739  0.0703  0.6201
 8181TIP3    H248739   0.598   2.915   2.581  0.1611  0.2254  0.2627
 8182TIP3   OH248740   1.210   1.655   2.136  0.2156  0.1051  0.3221
 8182TIP3    H148741   1.119   1.672   2.161 -0.3133 -2.3568  0.3379
 8182TIP3    H248742   1.208   1.652   2.040  0.3555  0.3817  0.3100
 8183TIP3   OH248743   5.390   6.513   1.078  0.3651 -0.6065 -0.5999
 8183TIP3    H148744   5.337   6.520   1.158 -0.0022 -0.0651 -0.8839
 8183TIP3    H248745   5.403   6.419   1.066 -1.1994 -0.8158 -0.9505
 8184TIP3   OH248746   3.249   7.294   1.911 -0.0209  0.0321 -0.2290
 8184TIP3    H148747   3.310   7.289   1.837  0.2490 -1.5931  0.0839
 8184TIP3    H248748   3.268   7.217   1.963 -2.2726 -0.4641 -0.0612
 8185TIP3   OH248749   5.665   3.792   0.903  0.1424  0.2629 -0.3395
 8185TIP3    H148750   5.736   3.841   0.861  1.0037 -0.9586 -0.3672
 8185TIP3    H248751   5.657   3.713   0.850 -1.9014  0.7857 -0.8889
 8186TIP3   OH248752   0.619   5.689   0.772  0.2860 -0.1030 -0.3735
 8186TIP3    H148753   0.688   5.756   0.773 -0.1454  0.3664 -1.2801
 8186TIP3    H248754   0.586   5.688   0.862 -0.0802  1.3233 -0.4713
 8187TIP3   OH248755   1.573   4.681   1.910 -0.0733  0.4183  0.4551
 8187TIP3    H148756   1.494   4.720   1.947  1.0696  1.4405  1.9386
 8187TIP3    H248757   1.644   4.713   1.966  1.4505 -0.1466 -1.0685
 8188TIP3   OH248758   7.337   3.520   2.396 -0.4850  0.4368  0.1211
 8188TIP3    H148759   7.432   3.526   2.406 -0.2554  0.1392 -1.5197
 8188TIP3    H248760   7.322   3.431   2.363 -1.4623  0.0906  1.4084
 8189TIP3   OH248761   6.889   1.448   1.046  0.4240  0.0254  0.4136
 8189TIP3    H148762   6.812   1.505   1.043 -0.0111 -0.5741 -1.3677
 8189TIP3    H248763   6.960   1.504   1.013  0.2911 -0.0491 -0.0029
 8190TIP3   OH248764   6.517   7.168   2.247 -0.3448  0.0669  0.1789
 8190TIP3    H148765   6.555   7.080   2.255 -2.5297 -0.8907  0.6251
 8190TIP3    H248766   6.497   7.177   2.153  0.9643  0.6068 -0.0718
 8191TIP3   OH248767   6.484   0.580   1.242 -0.0085 -0.2990  0.5176
 8191TIP3    H148768   6.402   0.556   1.199  0.9635 -0.1015 -1.5399
 8191TIP3    H248769   6.502   0.670   1.214  0.9186 -0.3414  0.9160
 8192TIP3   OH248770   5.912   1.281   1.722 -0.1069 -0.3124  0.4970
 8192TIP3    H148771   5.872   1.203   1.684  1.6243  0.3953 -3.2624
 8192TIP3    H248772   5.960   1.249   1.798 -2.0350 -2.2798  0.9820
 8193TIP3   OH248773   0.952   5.656   0.423  0.3774  0.3585  0.1136
 8193TIP3    H148774   0.987   5.739   0.456 -0.8757  1.3553 -0.9608
 8193TIP3    H248775   0.867   5.678   0.387 -0.4811 -1.6267  0.7859
 8194TIP3   OH248776   0.010   4.272   1.453 -0.4176 -0.2898  0.2853
 8194TIP3    H148777   0.032   4.250   1.362  0.4400 -0.8913  0.6261
 8194TIP3    H248778   0.056   4.355   1.469  0.4733 -0.8267  0.5555
 8195TIP3   OH248779   4.824   6.776   2.013  0.1253  0.0793  0.4468
 8195TIP3    H148780   4.882   6.761   2.088  2.3459 -0.6237 -1.3022
 8195TIP3    H248781   4.880   6.761   1.936 -1.6780  2.1421 -1.3838
 8196TIP3   OH248782   4.783   7.264   2.322  0.0908  0.3725 -0.1841
 8196TIP3    H148783   4.744   7.205   2.256  0.6007  0.5127 -0.6178
 8196TIP3    H248784   4.852   7.212   2.362 -1.7370 -0.5865  1.9797
 8197TIP3   OH248785   6.086   6.873   1.000 -0.0193 -0.3356  0.1484
 8197TIP3    H148786   6.150   6.803   1.010 -0.4447 -0.8425 -0.6013
 8197TIP3    H248787   6.001   6.829   1.005 -0.2985  0.1785  0.0596
 8198TIP3   OH248788   1.092   2.790   1.781  0.4235  0.6247  0.2354
 8198TIP3    H148789   1.079   2.825   1.693  0.1926  1.2262  0.5056
 8198TIP3    H248790   1.183   2.812   1.802  1.4117 -1.9416 -0.9177
 8199TIP3   OH248791   6.179   3.011   1.654 -0.1143 -0.3911 -0.2258
 8199TIP3    H148792   6.162   3.105   1.639  1.0853 -0.3354 -1.5066
 8199TIP3    H248793   6.096   2.969   1.634  0.2841  0.0944 -3.6921
 8200TIP3   OH248794   3.803   1.410   0.459  0.2000 -0.1580  0.4812
 8200TIP3    H148795   3.761   1.437   0.541  1.1837 -2.0323  1.6573
 8200TIP3    H248796   3.852   1.488   0.431  0.5722  0.2554  2.1625
 8201TIP3   OH248797   5.827   4.693   1.341 -0.1118  0.0320 -0.2286
 8201TIP3    H148798   5.918   4.721   1.330  0.2265 -1.6484 -2.2585
 8201TIP3    H248799   5.826   4.603   1.310 -2.8061  0.5530 -1.9642
 8202TIP3   OH248800   0.004   1.433   1.404 -0.2618 -0.3705 -0.1515
 8202TIP3    H148801   0.054   1.503   1.447 -1.2437  0.5922 -0.5210
 8202TIP3    H248802  -0.066   1.412   1.465  0.8049 -2.0232  0.5523
 8203TIP3   OH248803   5.062   6.202   0.549 -0.3247 -0.5028 -0.0034
 8203TIP3    H148804   5.028   6.283   0.512  0.7402 -0.9974 -2.2363
 8203TIP3    H248805   5.002   6.133   0.519 -0.4900 -0.7230  0.7899
 8204TIP3   OH248806   3.006   3.800   0.444  0.3463  0.6693  0.5531
 8204TIP3    H148807   3.092   3.772   0.477 -0.3040  0.3372  2.0142
 8204TIP3    H248808   2.971   3.722   0.402  0.9638  0.9567 -0.5534
 8205TIP3   OH248809   0.177   4.174   0.434 -0.1792  0.1894  0.4590
 8205TIP3    H148810   0.224   4.238   0.379  2.7814  0.1323  2.6651
 8205TIP3    H248811   0.088   4.210   0.441  0.7901  3.0023 -0.0738
 8206TIP3   OH248812   3.824   4.417   1.229 -0.3057  0.4954 -0.6484
 8206TIP3    H148813   3.865   4.381   1.307  0.8860 -0.1294 -1.5359
 8206TIP3    H248814   3.880   4.490   1.203  0.0348 -0.0864 -1.6224
 8207TIP3   OH248815   6.347   4.097   0.331  0.0653  0.7099  0.2352
 8207TIP3    H148816   6.255   4.110   0.356  0.3671  2.3303  0.6086
 8207TIP3    H248817   6.353   4.134   0.243 -0.6143 -3.5286 -1.8700
 8208TIP3   OH248818   2.598   2.977   2.970 -0.1102  0.2537  0.0342
 8208TIP3    H148819   2.660   2.936   3.031  0.1423 -0.0545 -0.4245
 8208TIP3    H248820   2.653   3.018   2.904 -0.3195  2.3176  1.0726
 8209TIP3   OH248821   0.706   1.511   2.189  0.4572  0.0121  0.4037
 8209TIP3    H148822   0.634   1.458   2.156 -0.2482  0.2263  1.5584
 8209TIP3    H248823   0.780   1.488   2.133 -0.4879 -0.2253 -0.7832
 8210TIP3   OH248824   0.917   0.577   2.002 -0.1441  0.0391  0.0516
 8210TIP3    H148825   0.914   0.485   2.025  3.1421  0.2889  2.1232
 8210TIP3    H248826   1.003   0.589   1.962 -1.1843  1.9367 -1.8371
 8211TIP3   OH248827   7.315   0.375   0.551  0.0472  0.6182 -0.3665
 8211TIP3    H148828   7.377   0.429   0.600  0.6476  1.0699 -1.5898
 8211TIP3    H248829   7.269   0.436   0.494 -0.5312  0.0800 -0.4872
 8212TIP3   OH248830   6.152   2.766   2.118  0.2208  0.2236 -0.0276
 8212TIP3    H148831   6.074   2.735   2.071  0.4167  0.0651 -0.2445
 8212TIP3    H248832   6.214   2.790   2.049  0.3879  0.2997  0.1472
 8213TIP3   OH248833   2.212   0.125   0.583  0.1452  0.1303 -0.4998
 8213TIP3    H148834   2.125   0.116   0.622 -0.0790  0.0372 -1.0124
 8213TIP3    H248835   2.215   0.216   0.553  0.5836  0.4104  0.3478
 8214TIP3   OH248836   5.679   3.342   1.749  0.2720 -0.4213  0.3351
 8214TIP3    H148837   5.707   3.304   1.833  2.0685 -0.3678 -0.2146
 8214TIP3    H248838   5.678   3.268   1.689  1.5956 -0.0159 -0.2108
 8215TIP3   OH248839   1.763   4.796   1.023  0.2834  0.2187  0.1090
 8215TIP3    H148840   1.853   4.801   0.993 -0.2209  2.6951 -1.2279
 8215TIP3    H248841   1.720   4.737   0.961  0.7470 -0.1772  0.1568
 8216TIP3   OH248842   1.310   0.061   2.599  0.0244  0.1492 -0.6381
 8216TIP3    H148843   1.234   0.094   2.551  0.8221 -0.9171 -2.7923
 8216TIP3    H248844   1.367   0.137   2.610 -0.6019  0.6061 -0.5062
 8217TIP3   OH248845   4.127   1.771   2.860  0.7704  0.0898  0.2007
 8217TIP3    H148846   4.174   1.821   2.927 -0.5132  1.4190  0.1667
 8217TIP3    H248847   4.064   1.719   2.909 -0.3277  1.2362  0.0501
 8218TIP3   OH248848   5.093   5.279   2.547  0.0686  0.6712 -0.7371
 8218TIP3    H148849   5.116   5.223   2.621  0.4154  3.1276  1.1611
 8218TIP3    H248850   5.000   5.262   2.533 -0.6057  1.7579  1.8619
 8219TIP3   OH248851   6.239   1.746   1.427  0.1657 -0.6029 -0.1619
 8219TIP3    H148852   6.284   1.760   1.343  2.2126 -0.1656  0.9333
 8219TIP3    H248853   6.188   1.666   1.414 -0.1746 -0.1276 -2.0433
 8220TIP3   OH248854   5.089   4.404   0.751  0.0409 -0.1175 -0.1554
 8220TIP3    H148855   5.067   4.346   0.824 -0.2173  2.1534  1.6930
 8220TIP3    H248856   5.017   4.393   0.689 -0.4384 -1.0791  0.5443
 8221TIP3   OH248857   2.591   4.761   0.421 -0.3837 -0.1868 -0.1672
 8221TIP3    H148858   2.513   4.798   0.379 -1.1367 -0.0738  1.2370
 8221TIP3    H248859   2.556   4.710   0.494  0.8898  1.0348  1.3867
 8222TIP3   OH248860   3.667   3.571   1.250 -0.1998 -0.2698  0.1648
 8222TIP3    H148861   3.665   3.603   1.340  1.5855  0.4647 -0.0188
 8222TIP3    H248862   3.629   3.642   1.198 -0.3303 -0.2950  0.2243
 8223TIP3   OH248863   5.489   1.468   2.091  0.0373  0.2920  1.1040
 8223TIP3    H148864   5.451   1.556   2.094 -1.7709 -0.2118 -2.1039
 8223TIP3    H248865   5.415   1.409   2.100  0.7007 -0.8117 -0.2406
 8224TIP3   OH248866   6.972   4.616   1.645 -0.0589  0.2244  0.3187
 8224TIP3    H148867   6.957   4.564   1.724 -1.4497 -0.6538 -0.4926
 8224TIP3    H248868   7.056   4.585   1.611  0.2987  0.2471  1.1526
 8225TIP3   OH248869   3.793   0.517   1.982 -0.3441  0.0310  0.0301
 8225TIP3    H148870   3.848   0.525   1.904  1.1768  0.5594  1.1006
 8225TIP3    H248871   3.813   0.596   2.033 -0.5397 -0.7839  1.4176
 8226TIP3   OH248872   3.978   3.048   2.931  0.6052 -0.0974  0.3688
 8226TIP3    H148873   3.935   2.990   2.994  0.2241 -1.6776 -1.2512
 8226TIP3    H248874   3.907   3.081   2.877  1.0123  0.5929  0.2458
 8227TIP3   OH248875   3.068   4.890   1.439  0.6690 -0.3511 -0.0251
 8227TIP3    H148876   3.065   4.810   1.490  0.3024 -0.0337  0.4584
 8227TIP3    H248877   3.149   4.883   1.388 -0.5032 -2.0831 -1.7779
 8228TIP3   OH248878   5.942   2.071   2.286  0.6425  0.8414 -0.3405
 8228TIP3    H148879   5.969   1.995   2.336  1.0189  0.5283 -1.0068
 8228TIP3    H248880   5.849   2.056   2.266  0.8074  0.3839 -0.7755
 8229TIP3   OH248881   6.391   0.422   0.926  0.0383  0.0710 -0.6331
 8229TIP3    H148882   6.313   0.390   0.971 -0.1688  1.1876 -0.1846
 8229TIP3    H248883   6.386   0.517   0.932  0.1385  0.2590 -2.8132
 8230TIP3   OH248884   7.287   1.208   1.177  0.0647  0.2225  0.1243
 8230TIP3    H148885   7.202   1.222   1.218  0.1114  3.4643 -0.6385
 8230TIP3    H248886   7.291   1.114   1.161 -4.1075  0.1037 -1.3426
 8231TIP3   OH248887   2.116   7.125   1.380 -0.3115 -0.0858 -0.1968
 8231TIP3    H148888   2.120   7.210   1.424 -1.0389 -0.4195  0.5662
 8231TIP3    H248889   2.207   7.101   1.365 -0.0431  0.1530  0.9442
 8232TIP3   OH248890   5.349   0.013   0.870  0.4281  0.5187  0.2785
 8232TIP3    H148891   5.334   0.088   0.929 -0.6604  0.7508 -0.2728
 8232TIP3    H248892   5.262  -0.009   0.837  1.2086  2.1836 -3.4311
 8233TIP3   OH248893   3.848   3.876   2.241 -0.1746 -0.5924 -0.0771
 8233TIP3    H148894   3.933   3.851   2.279 -0.0194 -0.6562 -0.4633
 8233TIP3    H248895   3.824   3.803   2.184 -0.3419 -0.4397 -0.2057
 8234TIP3   OH248896   4.269   6.866   1.235 -0.1858  0.2336 -0.0582
 8234TIP3    H148897   4.214   6.893   1.309 -0.9631  0.9590 -0.8824
 8234TIP3    H248898   4.214   6.805   1.185  0.2129  0.0061 -0.2225
 8235TIP3   OH248899   6.790   0.692   2.401  0.2714 -0.0949 -0.2592
 8235TIP3    H148900   6.795   0.773   2.451  1.4470 -1.3303  1.7853
 8235TIP3    H248901   6.809   0.718   2.311  1.6035  1.7764  0.5022
 8236TIP3   OH248902   7.558   6.678   1.310  0.2474 -0.3921 -0.0966
 8236TIP3    H148903   7.545   6.760   1.262  2.5455 -1.1790 -2.2618
 8236TIP3    H248904   7.588   6.706   1.396 -0.8985  1.0215 -0.1009
 8237TIP3   OH248905   1.140   4.264   1.839 -0.3793 -0.2180 -0.1068
 8237TIP3    H148906   1.098   4.297   1.759  1.3053  1.0674 -0.5296
 8237TIP3    H248907   1.232   4.255   1.815  0.0671 -0.3514  1.5399
 8238TIP3   OH248908   0.226   1.185   2.734 -0.2090 -0.6783  0.0078
 8238TIP3    H148909   0.230   1.280   2.723  1.5946 -0.3960  2.2983
 8238TIP3    H248910   0.314   1.155   2.709  0.8401 -1.0799  3.6652
 8239TIP3   OH248911   2.077   5.104   1.228  0.2928 -0.0025 -0.2462
 8239TIP3    H148912   2.171   5.088   1.218  0.1502 -0.9528 -0.1791
 8239TIP3    H248913   2.041   5.085   1.142 -0.0874 -1.6471  0.2493
 8240TIP3   OH248914   2.181   4.590   1.885  0.1051  0.2199  0.0387
 8240TIP3    H148915   2.213   4.624   1.801  0.9811  1.9970  1.0330
 8240TIP3    H248916   2.119   4.656   1.916 -1.9357 -1.4803 -0.1746
 8241TIP3   OH248917   3.405   3.319   2.422  0.3105  0.2409 -0.0881
 8241TIP3    H148918   3.309   3.320   2.426  0.3153  0.1825  0.0531
 8241TIP3    H248919   3.425   3.330   2.329  0.1701  0.4719 -0.0922
 8242TIP3   OH248920   6.390   3.283   0.917 -0.2536 -0.9085  0.4961
 8242TIP3    H148921   6.385   3.226   0.995  0.9166  0.2664  1.4675
 8242TIP3    H248922   6.473   3.329   0.926 -0.5948  0.0396 -0.9232
 8243TIP3   OH248923   4.327   4.268   1.802 -0.1631 -0.0293 -0.2523
 8243TIP3    H148924   4.305   4.358   1.779 -0.6434  0.8525  3.0210
 8243TIP3    H248925   4.248   4.236   1.846  1.1852 -0.7246  1.8131
 8244TIP3   OH248926   2.506   2.659   0.531  0.1574 -0.6455 -0.1005
 8244TIP3    H148927   2.516   2.612   0.614  0.7552 -0.6299 -0.1642
 8244TIP3    H248928   2.587   2.707   0.520  0.6253 -1.6670 -1.3330
 8245TIP3   OH248929   2.472   0.070   1.566  0.0882 -0.3069  0.5288
 8245TIP3    H148930   2.485   0.113   1.650  0.7125  0.6895 -0.0440
 8245TIP3    H248931   2.538   0.110   1.509 -0.7402 -0.4813 -0.5916
 8246TIP3   OH248932   3.757   6.270   2.476 -0.5734  0.3029 -0.0141
 8246TIP3    H148933   3.717   6.184   2.485 -0.3134 -0.0607 -1.8449
 8246TIP3    H248934   3.846   6.252   2.446  1.0180  1.0999  3.6876
 8247TIP3   OH248935   3.862   7.025   2.593 -0.3365 -0.2404  0.2400
 8247TIP3    H148936   3.861   6.974   2.512 -0.3077 -2.2247  1.4184
 8247TIP3    H248937   3.807   6.975   2.653 -0.6653  1.3901  1.3380
 8248TIP3   OH248938   6.582   2.900   1.607 -0.7562  0.4640  0.8886
 8248TIP3    H148939   6.500   2.871   1.566 -2.1650  1.4616  2.8378
 8248TIP3    H248940   6.595   2.989   1.575  0.6579 -0.3431 -0.9103
 8249TIP3   OH248941   5.074   3.750   2.318  0.0710  0.0687  0.2465
 8249TIP3    H148942   5.145   3.750   2.382 -0.6782  4.8229  1.5021
 8249TIP3    H248943   5.115   3.783   2.238  0.0475 -1.2390 -0.3226
 8250TIP3   OH248944   5.708   1.272   0.865 -0.2312  0.2108  0.2066
 8250TIP3    H148945   5.728   1.338   0.798 -0.2702 -0.0728 -0.0880
 8250TIP3    H248946   5.671   1.322   0.938 -0.0109  0.5439  0.0905
 8251TIP3   OH248947   6.028   6.038   2.196 -0.3041 -0.0443 -0.3654
 8251TIP3    H148948   6.066   5.976   2.257 -1.1957 -1.0912 -0.8443
 8251TIP3    H248949   5.935   6.043   2.220 -0.7855 -0.8564 -1.8980
 8252TIP3   OH248950   2.673   5.377   1.230  0.0974  0.6260 -0.1889
 8252TIP3    H148951   2.631   5.377   1.316 -2.5813  1.1657 -1.3934
 8252TIP3    H248952   2.734   5.303   1.232  1.2180  1.5041  2.6139
 8253TIP3   OH248953   6.634   6.972   2.829 -0.1518 -0.0557  0.0118
 8253TIP3    H148954   6.696   7.036   2.865  0.6678  0.3479 -1.9556
 8253TIP3    H248955   6.565   6.966   2.894  1.5420  0.1172  1.9089
 8254TIP3   OH248956   1.901   1.907   0.745 -0.4508 -0.2096 -0.9009
 8254TIP3    H148957   1.833   1.871   0.802  0.4682  1.3497  1.3269
 8254TIP3    H248958   1.861   1.986   0.708 -0.5018 -0.3532 -1.1555
 8255TIP3   OH248959   7.185   4.773   1.803  0.2658 -0.4247 -0.2796
 8255TIP3    H148960   7.202   4.814   1.718  0.5260 -0.3622 -0.1966
 8255TIP3    H248961   7.230   4.689   1.799  0.3283 -0.3958 -0.1794
 8256TIP3   OH248962   6.312   3.564   1.061 -0.0195 -0.3695 -0.6666
 8256TIP3    H148963   6.258   3.530   0.989  0.4027 -3.3510  0.2881
 8256TIP3    H248964   6.253   3.622   1.109 -1.2364 -0.6843 -1.7108
 8257TIP3   OH248965   4.819   5.103   3.061  0.3961 -0.7310  0.2569
 8257TIP3    H148966   4.776   5.187   3.043  0.4105 -1.1840 -2.3037
 8257TIP3    H248967   4.776   5.070   3.139 -2.3411 -0.0996 -0.8856
 8258TIP3   OH248968   6.776   5.235   0.576 -0.0391  0.1641  0.5400
 8258TIP3    H148969   6.871   5.239   0.589 -0.1128 -1.3640  1.8238
 8258TIP3    H248970   6.756   5.310   0.520  1.8380  0.8573  0.7449
 8259TIP3   OH248971   1.098   5.904   3.170 -0.0871 -0.1864  0.6076
 8259TIP3    H148972   1.111   5.823   3.220 -2.4316 -0.7067  0.5162
 8259TIP3    H248973   1.123   5.974   3.230  1.4686 -0.9442  0.8811
 8260TIP3   OH248974   2.118   5.154   1.540 -0.6245  0.5586  0.4303
 8260TIP3    H148975   2.209   5.127   1.533 -1.3170 -1.9628  0.1197
 8260TIP3    H248976   2.095   5.139   1.632 -0.5059  2.1332  0.7483
 8261TIP3   OH248977   4.145   3.575   1.861 -0.7382  0.3032 -0.2803
 8261TIP3    H148978   4.155   3.553   1.954 -2.0818  0.6000 -0.0529
 8261TIP3    H248979   4.111   3.664   1.861 -0.5019  0.4014 -1.0755
 8262TIP3   OH248980   3.552   3.750   2.112  0.2616 -0.2580  0.1391
 8262TIP3    H148981   3.586   3.754   2.023 -0.4709  1.4772 -0.1053
 8262TIP3    H248982   3.463   3.784   2.106  0.3829  0.4201  1.6008
 8263TIP3   OH248983   0.535   2.841   1.608  0.3466  0.0014  0.1312
 8263TIP3    H148984   0.578   2.802   1.684  0.5144  2.3176  1.3002
 8263TIP3    H248985   0.594   2.823   1.535  1.0637 -0.7374  0.8753
 8264TIP3   OH248986   1.904   3.904   2.937  0.3395  0.0068 -0.1285
 8264TIP3    H148987   1.929   3.866   3.021  0.6390 -0.0001 -0.2164
 8264TIP3    H248988   1.900   3.998   2.953 -0.4072 -0.0643  0.0904
 8265TIP3   OH248989   1.853   5.340   1.227 -0.0657  0.9418  0.0024
 8265TIP3    H148990   1.772   5.367   1.184  0.4053  1.0777 -0.8213
 8265TIP3    H248991   1.921   5.396   1.190  0.8302 -0.8567 -1.2453
 8266TIP3   OH248992   6.564   6.419   1.249  0.1607  0.6188  0.2294
 8266TIP3    H148993   6.586   6.511   1.265  0.1107  0.8817 -1.0539
 8266TIP3    H248994   6.529   6.388   1.332 -1.9078  2.3986  0.1184
 8267TIP3   OH248995   1.695   6.057   1.156 -0.2882 -0.1907  0.1164
 8267TIP3    H148996   1.621   6.016   1.111 -0.6136 -0.3692  0.8023
 8267TIP3    H248997   1.713   5.999   1.229  2.2237 -1.5540 -1.4630
 8268TIP3   OH248998   3.569   7.535   1.258  0.1957 -0.4974  0.0445
 8268TIP3    H148999   3.582   7.595   1.331 -0.2459 -0.4255  0.0623
 8268TIP3    H249000   3.655   7.530   1.216  0.6818 -1.2596  1.1057
 8269TIP3   OH249001   7.187   6.909   2.583  0.1850 -0.4414 -0.8695
 8269TIP3    H149002   7.259   6.972   2.576 -0.3313  0.6443  2.0180
 8269TIP3    H249003   7.212   6.852   2.656 -1.8570  0.0857  0.3399
 8270TIP3   OH249004   0.628   1.562   1.556 -0.0537 -0.3468  0.8431
 8270TIP3    H149005   0.717   1.590   1.576  0.3684 -0.8762 -0.2285
 8270TIP3    H249006   0.630   1.536   1.464 -1.2803 -0.5224  0.8376
 8271TIP3   OH249007   6.375   4.768   2.986  0.4696  0.0787 -0.0635
 8271TIP3    H149008   6.420   4.784   2.903 -2.9744  0.3689 -2.0855
 8271TIP3    H249009   6.366   4.855   3.025 -0.6796  0.4680 -1.0892
 8272TIP3   OH249010   5.093   5.604   1.321 -0.5392  0.2596  0.0915
 8272TIP3    H149011   5.020   5.664   1.338 -0.2096  1.0812 -1.2958
 8272TIP3    H249012   5.073   5.566   1.236 -0.0306 -0.5665  0.3331
 8273TIP3   OH249013   3.628   2.236   0.972  0.7262  0.3510 -0.0037
 8273TIP3    H149014   3.629   2.250   1.067 -0.4885  1.5848 -0.1249
 8273TIP3    H249015   3.575   2.157   0.960  1.6860 -0.3661  0.3735
 8274TIP3   OH249016   1.647   7.348   1.171  1.0512  0.6373 -0.2778
 8274TIP3    H149017   1.557   7.318   1.160  2.0673 -2.6436 -0.8907
 8274TIP3    H249018   1.673   7.381   1.085  1.1084 -0.6286 -0.7647
 8275TIP3   OH249019   2.795   6.747   1.524 -0.0638 -0.2163  0.5996
 8275TIP3    H149020   2.884   6.722   1.550 -0.5125 -2.1636  0.4454
 8275TIP3    H249021   2.750   6.763   1.606 -0.3064 -2.1025  0.8928
 8276TIP3   OH249022   1.784   4.347   2.390 -0.1819 -0.0282 -0.1023
 8276TIP3    H149023   1.836   4.275   2.355 -1.5697 -1.5478  0.8336
 8276TIP3    H249024   1.702   4.345   2.339 -1.1782 -0.6478  1.4539
 8277TIP3   OH249025   5.745   3.239   1.978  0.2909  0.1297  0.2910
 8277TIP3    H149026   5.765   3.286   2.059 -0.7656  2.1628 -0.5420
 8277TIP3    H249027   5.830   3.213   1.943  0.8506  0.5655  1.2939
 8278TIP3   OH249028   7.476   3.960   2.443  0.3926 -0.2514 -0.3516
 8278TIP3    H149029   7.418   3.911   2.384  1.1178  0.8416 -2.0563
 8278TIP3    H249030   7.516   4.027   2.387  0.1232  1.7176  1.6963
 8279TIP3   OH249031   3.608   0.844   2.970  0.6315 -0.0151  0.3505
 8279TIP3    H149032   3.547   0.854   3.043  1.1149  1.7811  0.5719
 8279TIP3    H249033   3.566   0.892   2.898  0.3687 -1.3929 -0.4367
 8280TIP3   OH249034   1.356   3.342   1.179  0.2638 -0.2274 -0.0618
 8280TIP3    H149035   1.369   3.434   1.199  0.9880 -0.4821  0.6885
 8280TIP3    H249036   1.444   3.307   1.163 -0.1295 -0.4237 -2.0988
 8281TIP3   OH249037   6.830   0.896   2.593 -0.1918  0.0628  0.0710
 8281TIP3    H149038   6.768   0.904   2.665  1.6026 -0.7759  1.8109
 8281TIP3    H249039   6.912   0.869   2.635  1.0728  0.0600 -2.2383
 8282TIP3   OH249040   3.043   6.279   1.151 -0.1711  0.9789  0.1524
 8282TIP3    H149041   3.019   6.271   1.243  1.0952 -1.8316  0.3500
 8282TIP3    H249042   3.097   6.358   1.147  2.6569 -0.5870  2.6410
 8283TIP3   OH249043   0.549   5.777   1.895  0.3449 -0.1236  0.0018
 8283TIP3    H149044   0.584   5.770   1.983 -0.4811  2.2112  0.5856
 8283TIP3    H249045   0.491   5.853   1.898 -0.3030 -0.4419 -2.3610
 8284TIP3   OH249046   0.058   6.293   0.341  0.3474  0.1297 -0.3541
 8284TIP3    H149047   0.069   6.387   0.351 -0.7826  0.4176 -1.6003
 8284TIP3    H249048   0.145   6.257   0.359  0.6165  1.3126  0.9049
 8285TIP3   OH249049   0.030   5.374   1.349 -0.0404 -0.1759 -0.0662
 8285TIP3    H149050   0.035   5.279   1.352  1.0055 -0.1274 -0.0996
 8285TIP3    H249051   0.008   5.394   1.258  0.6014 -0.3517 -0.2614
 8286TIP3   OH249052   5.489   6.530   0.615  0.0929 -0.4515 -0.4650
 8286TIP3    H149053   5.449   6.445   0.596 -0.9443 -0.2165  0.5558
 8286TIP3    H249054   5.560   6.538   0.551  0.0737 -1.9821 -0.7143
 8287TIP3   OH249055   4.698   0.569   0.658  0.0561  0.3746 -0.4332
 8287TIP3    H149056   4.772   0.629   0.660  0.5433 -0.1039 -2.4915
 8287TIP3    H249057   4.652   0.588   0.576 -1.2454 -0.3574  0.0811
 8288TIP3   OH249058   2.462   1.956   2.445 -0.3286  0.5027 -0.2033
 8288TIP3    H149059   2.489   1.896   2.514 -0.3044  0.7184 -0.0222
 8288TIP3    H249060   2.488   2.042   2.477 -0.3562  0.6080 -0.4638
 8289TIP3   OH249061   2.972   5.611   3.671 -0.4040  0.3227  0.0890
 8289TIP3    H149062   2.927   5.595   3.754 -2.0554  1.0248 -0.6291
 8289TIP3    H249063   3.009   5.526   3.647  0.6005  0.2343  1.7980
 8290TIP3   OH249064   1.057   1.846   1.218  0.1860 -0.1612 -0.3820
 8290TIP3    H149065   1.147   1.864   1.191  0.0558 -0.5330 -1.0913
 8290TIP3    H249066   1.008   1.838   1.137 -0.4472 -0.1980 -0.0078
 8291TIP3   OH249067   1.176   5.087   2.712 -0.1670  0.1964  0.2085
 8291TIP3    H149068   1.154   5.179   2.725  2.2811  1.7309 -4.1988
 8291TIP3    H249069   1.105   5.052   2.658  0.3627  0.5090 -0.7262
 8292TIP3   OH249070   2.482   6.069   1.352 -0.2472 -0.1788  0.3881
 8292TIP3    H149071   2.498   5.977   1.376  0.5801 -0.1803 -0.1323
 8292TIP3    H249072   2.551   6.090   1.290 -1.2083  0.4054 -0.5132
 8293TIP3   OH249073   6.963   3.988   1.418 -0.5708  0.5299 -0.1757
 8293TIP3    H149074   6.949   3.909   1.470 -1.3259  1.1130  0.5539
 8293TIP3    H249075   6.876   4.010   1.385 -0.7337  1.9923  1.0634
 8294TIP3   OH249076   3.067   5.369   2.846 -0.1025  0.4113  1.1485
 8294TIP3    H149077   3.066   5.273   2.846  0.9653  0.3550  2.7686
 8294TIP3    H249078   3.019   5.394   2.925 -1.6512  1.2893 -0.0158
 8295TIP3   OH249079   4.252   0.020   1.222 -0.2683  0.0949  0.0645
 8295TIP3    H149080   4.221   0.082   1.288 -0.6864  0.5147 -0.5186
 8295TIP3    H249081   4.306  -0.042   1.271 -2.4511 -0.9990  1.2284
 8296TIP3   OH249082   0.156   0.823   1.518 -0.7156 -0.7500  0.3819
 8296TIP3    H149083   0.151   0.847   1.610  0.7002 -1.8728  0.7913
 8296TIP3    H249084   0.250   0.817   1.500 -0.9737 -0.8874 -1.0411
 8297TIP3   OH249085   0.978   4.357   1.083 -0.3880  0.0089  0.6229
 8297TIP3    H149086   0.936   4.433   1.042 -0.1783 -0.1773  0.0456
 8297TIP3    H249087   1.063   4.351   1.040 -0.3591 -0.4807  0.7474
 8298TIP3   OH249088   5.088   4.381   1.486  0.1718 -0.1005  0.1080
 8298TIP3    H149089   5.019   4.361   1.550 -1.1600  2.4071 -0.3974
 8298TIP3    H249090   5.154   4.313   1.500 -1.0993 -0.9753  2.5736
 8299TIP3   OH249091   7.149   2.747   2.402 -0.3314  0.0397  0.0440
 8299TIP3    H149092   7.124   2.727   2.492 -0.9630  0.2224 -0.0851
 8299TIP3    H249093   7.117   2.836   2.387  2.7219  1.3866  0.7188
 8300TIP3   OH249094   2.232   1.504   3.177  0.0389 -0.6464 -0.3583
 8300TIP3    H149095   2.265   1.589   3.147 -2.7914  1.2933  1.5263
 8300TIP3    H249096   2.173   1.475   3.108 -0.3052 -0.2047 -0.2536
 8301TIP3   OH249097   4.957   6.168   1.152  0.0913  0.6610 -0.2623
 8301TIP3    H149098   4.970   6.188   1.060  1.8659  3.7926  0.5111
 8301TIP3    H249099   5.024   6.219   1.198  0.2065 -1.8609  2.7304
 8302TIP3   OH249100   5.503   6.871   1.039  0.7726 -0.6545 -0.2928
 8302TIP3    H149101   5.527   6.819   0.962  0.4541 -0.1475 -0.7493
 8302TIP3    H249102   5.409   6.890   1.026  0.8742 -0.0061 -0.1257
 8303TIP3   OH249103   6.950   7.317   0.628 -0.2023  0.0484 -0.2445
 8303TIP3    H149104   6.982   7.350   0.711 -1.6897 -1.4105  0.9802
 8303TIP3    H249105   6.985   7.378   0.563 -0.3235  2.1846  1.5685
 8304TIP3   OH249106   0.007   6.708   1.685 -0.4367  0.3196 -0.0682
 8304TIP3    H149107   0.051   6.649   1.624 -2.3871 -1.4974  0.1731
 8304TIP3    H249108   0.027   6.671   1.772 -0.9961  0.4845  0.1350
 8305TIP3   OH249109   3.994   7.311   2.654 -0.6079  0.1418 -0.6440
 8305TIP3    H149110   3.928   7.326   2.722 -0.5111 -0.9424 -0.2922
 8305TIP3    H249111   3.948   7.259   2.587 -0.2411 -0.2563 -0.5952
 8306TIP3   OH249112   2.988   2.216   0.809  0.8007  0.4819 -0.0862
 8306TIP3    H149113   2.948   2.256   0.731  1.5939  0.4939 -0.4971
 8306TIP3    H249114   2.917   2.211   0.872 -0.6445 -2.1228 -1.7399
 8307TIP3   OH249115   1.124   4.064   2.641  0.8393 -0.3226  0.4643
 8307TIP3    H149116   1.191   3.996   2.637  0.9072 -0.2254 -0.1924
 8307TIP3    H249117   1.170   4.140   2.678  0.0652 -1.4063  4.0920
 8308TIP3   OH249118   6.545   3.192   2.218  0.3807 -0.0833 -0.6674
 8308TIP3    H149119   6.524   3.102   2.245 -1.3867  0.4332 -0.1907
 8308TIP3    H249120   6.519   3.196   2.126  1.3429 -0.3080 -0.9597
 8309TIP3   OH249121   3.681   5.337   2.504  0.2139 -0.2723 -0.4803
 8309TIP3    H149122   3.728   5.401   2.558  1.1802 -1.8056  0.5594
 8309TIP3    H249123   3.660   5.385   2.424  1.0181  1.3097  0.2039
 8310TIP3   OH249124   0.298   1.476   1.007 -0.2293 -0.1135 -0.4259
 8310TIP3    H149125   0.338   1.535   1.071 -0.3002  0.7768 -1.1826
 8310TIP3    H249126   0.283   1.395   1.056  0.0162  0.4335  0.5960
 8311TIP3   OH249127   3.004   7.212   1.721  0.1525  0.3349  0.7358
 8311TIP3    H149128   3.052   7.253   1.793  1.6045 -1.6451  0.9675
 8311TIP3    H249129   3.064   7.147   1.686 -1.5091 -0.5781 -0.5555
 8312TIP3   OH249130   0.681   4.220   0.859 -0.0480  0.1799 -0.4023
 8312TIP3    H149131   0.661   4.166   0.782  1.9984 -0.2854 -0.6590
 8312TIP3    H249132   0.749   4.280   0.829 -1.6265  2.3850  0.1272
 8313TIP3   OH249133   1.824   5.794   2.463 -0.2309  0.4341 -0.0622
 8313TIP3    H149134   1.789   5.850   2.532 -1.2756 -0.0429 -0.1800
 8313TIP3    H249135   1.762   5.805   2.390 -0.0729 -0.3386 -0.3246
 8314TIP3   OH249136   5.788   2.438   0.658  0.3094 -0.4618  0.3230
 8314TIP3    H149137   5.752   2.365   0.609 -1.5078  0.4150  0.2792
 8314TIP3    H249138   5.750   2.430   0.746  1.0350 -0.2346  0.6679
 8315TIP3   OH249139   5.627   2.449   1.417 -0.7974 -0.2367  0.1090
 8315TIP3    H149140   5.571   2.454   1.340  0.2921 -0.2007 -0.6939
 8315TIP3    H249141   5.715   2.471   1.385  0.0864 -2.3964  0.9033
 8316TIP3   OH249142   4.784   0.057   0.862  0.1377 -0.6426 -0.1832
 8316TIP3    H149143   4.815   0.108   0.937 -1.4236 -1.2692  0.9592
 8316TIP3    H249144   4.714   0.002   0.898  0.0016 -1.6869 -1.9143
 8317TIP3   OH249145   6.871   1.518   2.787  0.1859 -1.0591 -0.1806
 8317TIP3    H149146   6.901   1.500   2.876  0.5114  1.1892  0.2146
 8317TIP3    H249147   6.776   1.515   2.792  0.1959 -3.2523 -0.3286
 8318TIP3   OH249148   2.542   7.077   1.537  0.2381 -0.3188 -0.4956
 8318TIP3    H149149   2.594   7.067   1.457  0.6756 -0.1479 -0.2329
 8318TIP3    H249150   2.595   7.133   1.594 -0.8952  1.1544 -0.8141
 8319TIP3   OH249151   0.265   3.030   0.828  0.7287 -0.1042 -0.2819
 8319TIP3    H149152   0.241   3.120   0.808  1.0138  0.4725  1.6822
 8319TIP3    H249153   0.340   3.012   0.772 -0.0239  0.4701 -1.5045
 8320TIP3   OH249154   5.783   6.259   2.148 -0.1101 -0.4142 -0.5382
 8320TIP3    H149155   5.709   6.319   2.159  0.1631 -0.3636  1.4553
 8320TIP3    H249156   5.745   6.181   2.107 -0.8240  0.4290 -1.5066
 8321TIP3   OH249157   2.084   5.793   2.565 -0.0306 -0.6655 -0.5087
 8321TIP3    H149158   2.005   5.801   2.512  0.4906  0.6899 -1.1293
 8321TIP3    H249159   2.062   5.726   2.630 -2.7970  1.6902  1.2414
 8322TIP3   OH249160   1.811   5.856   1.701 -0.5963  0.0661  0.6152
 8322TIP3    H149161   1.760   5.828   1.776 -1.5733 -0.4027 -0.2053
 8322TIP3    H249162   1.830   5.775   1.653 -0.1886  0.3847  0.2253
 8323TIP3   OH249163   0.117   5.283   2.533  0.3411  0.1462  0.2774
 8323TIP3    H149164   0.035   5.288   2.484 -0.4801 -0.9715  1.4548
 8323TIP3    H249165   0.143   5.374   2.546 -1.5910  0.6068  1.2750
 8324TIP3   OH249166   1.960   5.603   2.197  0.0605 -0.3598 -0.1345
 8324TIP3    H149167   1.895   5.647   2.251 -1.1208 -0.2911 -1.5486
 8324TIP3    H249168   1.926   5.611   2.108  1.5383 -1.1654 -0.8006
 8325TIP3   OH249169   6.156   3.227   0.756  0.1708  0.1295  0.2203
 8325TIP3    H149170   6.170   3.187   0.670 -0.7418  0.9742 -0.3420
 8325TIP3    H249171   6.244   3.241   0.791  0.5837  0.4362 -0.8962
 8326TIP3   OH249172   7.025   2.409   1.959  0.1076  0.0967  0.4819
 8326TIP3    H149173   6.937   2.444   1.949  0.8286  1.6347 -1.1446
 8326TIP3    H249174   7.063   2.460   2.031 -0.5530 -1.1433  1.7523
 8327TIP3   OH249175   5.689   3.144   0.995 -0.0060  0.3925  0.0349
 8327TIP3    H149176   5.690   3.068   1.054 -0.4169 -1.9769 -2.7379
 8327TIP3    H249177   5.770   3.135   0.944 -0.1463  1.7497 -0.4676
 8328TIP3   OH249178   1.690   2.331   1.746 -0.4904  0.6444  0.0079
 8328TIP3    H149179   1.697   2.367   1.658  0.3664  4.9502  1.5757
 8328TIP3    H249180   1.616   2.377   1.786 -1.9148 -2.3758  1.1596
 8329TIP3   OH249181   2.733   5.753   1.775  0.2601 -0.1913  0.2974
 8329TIP3    H149182   2.658   5.796   1.815  0.0584  1.6283 -1.8484
 8329TIP3    H249183   2.784   5.720   1.849 -2.4297 -1.2217  1.8400
 8330TIP3   OH249184   2.155   3.931   2.073 -0.4314 -0.3145  0.1819
 8330TIP3    H149185   2.090   4.001   2.066  1.2066  1.1220 -1.6901
 8330TIP3    H249186   2.165   3.897   1.984  0.7561 -1.0849  0.5779
 8331TIP3   OH249187   5.767   1.508   0.757 -0.1250  0.0335 -0.2371
 8331TIP3    H149188   5.737   1.588   0.801  0.4330  0.7456 -1.1195
 8331TIP3    H249189   5.812   1.539   0.679  1.7971 -1.0305  0.3635
 8332TIP3   OH249190   4.642   4.233   1.397 -0.4827  0.1836  0.1925
 8332TIP3    H149191   4.566   4.183   1.364 -1.7539  2.8980 -1.3890
 8332TIP3    H249192   4.603   4.310   1.438  1.3326  2.5335 -2.1683
 8333TIP3   OH249193   6.820   4.066   1.005 -0.0880  0.7116  0.2552
 8333TIP3    H149194   6.800   4.110   1.088  0.5485  1.4430  0.0292
 8333TIP3    H249195   6.757   4.104   0.943 -1.2164 -0.5380  0.5925
 8334TIP3   OH249196   7.070   2.065   0.446  0.4816 -1.0470 -0.2116
 8334TIP3    H149197   7.088   2.126   0.374  2.0792 -1.0320  0.1535
 8334TIP3    H249198   7.033   2.120   0.515  0.4131 -0.7754 -0.4614
 8335TIP3   OH249199   1.643   1.067   1.659  0.2536 -0.3546 -0.2308
 8335TIP3    H149200   1.556   1.074   1.620  1.5470 -0.7611 -3.5936
 8335TIP3    H249201   1.672   0.978   1.637  1.9177  0.1422 -0.1873
 8336TIP3   OH249202   7.419   1.108   7.463  0.0373  0.0120  0.0251
 8336TIP3    H149203   7.353   1.131   7.398 -0.4184  3.6247  1.5711
 8336TIP3    H249204   7.499   1.150   7.433  1.0261 -1.9952 -0.3625
 8337TIP3   OH249205   1.975   4.095   2.593  0.4495 -0.9418 -0.0830
 8337TIP3    H149206   2.035   4.036   2.639  0.5373 -0.3908  0.5155
 8337TIP3    H249207   1.906   4.114   2.656  1.5095  1.2634  0.5051
 8338TIP3   OH249208   3.247   4.358   1.898  0.2877  0.4440  0.0022
 8338TIP3    H149209   3.321   4.399   1.944  1.7760  0.2184 -2.0864
 8338TIP3    H249210   3.265   4.371   1.805 -1.5424 -0.9520 -0.6189
 8339TIP3   OH249211   4.179   2.052   2.237  0.2775 -0.1779 -0.4823
 8339TIP3    H149212   4.197   2.096   2.154 -0.3963 -1.5904 -1.4293
 8339TIP3    H249213   4.252   2.077   2.294  1.2735  0.0681 -1.8170
 8340TIP3   OH249214   2.311   3.679   1.447 -0.3076 -0.2488  0.1547
 8340TIP3    H149215   2.222   3.683   1.482  0.4871 -0.0185  2.3680
 8340TIP3    H249216   2.363   3.731   1.509  1.2989  0.0084 -1.3297
 8341TIP3   OH249217   4.696   3.905   0.574 -0.4587 -0.6500  0.1971
 8341TIP3    H149218   4.724   3.816   0.552  0.5802  0.0841 -1.6535
 8341TIP3    H249219   4.776   3.957   0.571 -1.3091  0.6829 -0.7237
 8342TIP3   OH249220   4.290   1.811   1.575 -0.2508  0.4227 -0.3245
 8342TIP3    H149221   4.335   1.893   1.594 -1.0782  1.2270 -1.6590
 8342TIP3    H249222   4.328   1.781   1.492 -1.9700  1.0323 -1.3868
 8343TIP3   OH249223   0.960   3.624   2.443  0.2078  0.6224  0.7992
 8343TIP3    H149224   0.892   3.637   2.509  0.0658  2.1379  0.3713
 8343TIP3    H249225   1.039   3.663   2.482  0.7537 -0.7166  1.1011
 8344TIP3   OH249226   6.741   4.200   1.438 -0.5878 -0.3655 -0.1331
 8344TIP3    H149227   6.813   4.233   1.491 -1.4055  0.1427  0.6905
 8344TIP3    H249228   6.753   4.240   1.352  0.3100 -0.5775 -0.1086
 8345TIP3   OH249229   7.100   6.947   0.615 -0.1513  0.4392 -0.1554
 8345TIP3    H149230   7.021   6.997   0.637  0.3344  0.8571  0.6621
 8345TIP3    H249231   7.067   6.863   0.583 -1.0429  1.5611 -2.4874
 8346TIP3   OH249232   3.828   0.031   1.672 -0.2329 -0.2457  0.5652
 8346TIP3    H149233   3.915   0.068   1.658 -0.5917  0.4837  0.2076
 8346TIP3    H249234   3.817   0.032   1.767  1.0080 -2.4028  0.7994
 8347TIP3   OH249235   5.197   0.006   2.221  0.0511 -0.1009  0.0352
 8347TIP3    H149236   5.171   0.066   2.151 -2.4135  0.8178  1.6084
 8347TIP3    H249237   5.205  -0.079   2.178  0.1307  0.6971 -1.6008
 8348TIP3   OH249238   5.369   3.927   7.827 -0.0136 -0.2466 -0.1487
 8348TIP3    H149239   5.309   3.991   7.867  0.5982 -0.2858  0.8824
 8348TIP3    H249240   5.407   3.973   7.752  0.3666  0.5896  0.5413
 8349TIP3   OH249241   7.273   2.801   2.045 -0.4810  0.0577  0.1901
 8349TIP3    H149242   7.306   2.879   2.090 -0.1838 -1.0353  1.9999
 8349TIP3    H249243   7.352   2.757   2.014 -0.6124  0.1965 -0.3439
 8350TIP3   OH249244   0.787   3.469   2.024 -0.9549 -0.3703  0.3124
 8350TIP3    H149245   0.771   3.536   2.090 -1.3255 -0.7874  0.6479
 8350TIP3    H249246   0.881   3.475   2.007 -0.8887 -0.1367  0.7460
 8351TIP3   OH249247   1.292   0.214   0.818  0.3179  0.1640 -0.1766
 8351TIP3    H149248   1.208   0.237   0.856  0.0389  2.9934 -2.1360
 8351TIP3    H249249   1.270   0.158   0.743  0.3769 -0.6381  0.3934
 8352TIP3   OH249250   6.984   1.447   3.064 -0.1330 -0.3159  0.1763
 8352TIP3    H149251   6.960   1.356   3.044 -1.6343  0.2197 -0.6159
 8352TIP3    H249252   6.934   1.468   3.143 -0.1644 -0.0221  0.0777
 8353TIP3   OH249253   0.447   6.759   2.979 -0.2919  0.4434  0.3340
 8353TIP3    H149254   0.414   6.684   2.930  2.4498 -0.1969 -0.6960
 8353TIP3    H249255   0.391   6.832   2.951 -0.3666 -0.3988 -1.8849
 8354TIP3   OH249256   6.028   4.595   1.150 -0.3201  0.1975 -0.2109
 8354TIP3    H149257   6.090   4.559   1.086 -0.1390 -3.3727  1.6864
 8354TIP3    H249258   6.068   4.576   1.235 -0.3666  5.0385  1.2046
 8355TIP3   OH249259   4.725   5.071   1.341 -0.2733 -0.0651  0.1442
 8355TIP3    H149260   4.805   5.079   1.393  0.1173 -2.5993  0.0540
 8355TIP3    H249261   4.736   5.136   1.271  1.6409 -0.2297  0.2288
 8356TIP3   OH249262   4.697   0.288   1.058 -0.5027  0.8788  0.3202
 8356TIP3    H149263   4.633   0.310   0.991 -0.3120  0.6001  0.0444
 8356TIP3    H249264   4.658   0.216   1.107 -0.7578  1.2571  0.6827
 8357TIP3   OH249265   4.155   0.246   1.407 -0.1656 -0.4181  0.4562
 8357TIP3    H149266   4.101   0.250   1.328  1.1771 -0.8097 -0.4970
 8357TIP3    H249267   4.204   0.328   1.407 -3.2708  1.7073  3.2584
 8358TIP3   OH249268   4.329   5.293   1.039  0.4783 -0.1272 -0.3662
 8358TIP3    H149269   4.239   5.323   1.052  0.3293 -1.0496  0.8838
 8358TIP3    H249270   4.383   5.363   1.075  0.2259 -0.1356  0.0294
 8359TIP3   OH249271   5.066   3.910   0.692  0.1394 -0.1532 -0.4750
 8359TIP3    H149272   5.002   3.933   0.759  0.9702 -0.7111  0.5410
 8359TIP3    H249273   5.051   3.818   0.674 -0.0162 -0.0298 -1.0028
 8360TIP3   OH249274   6.655   3.924   2.321  0.3215 -0.0988 -0.0263
 8360TIP3    H149275   6.605   3.945   2.242 -0.4021  1.2597  0.7587
 8360TIP3    H249276   6.621   3.839   2.349  0.5493 -0.5643 -1.1319
 8361TIP3   OH249277   5.126   4.820   1.486  0.0027  0.6034 -0.2271
 8361TIP3    H149278   5.096   4.742   1.533 -1.0619  1.4966  0.6510
 8361TIP3    H249279   5.204   4.792   1.439 -0.1590 -0.8955  0.3528
 8362TIP3   OH249280   1.198   6.628   0.714  0.4173 -0.2582 -0.1795
 8362TIP3    H149281   1.270   6.622   0.776 -0.0638 -1.0289  0.3306
 8362TIP3    H249282   1.233   6.593   0.632  0.3590 -1.5521  0.3214
 8363TIP3   OH249283   0.207   3.931   0.639 -0.1627  0.2860 -0.1487
 8363TIP3    H149284   0.198   3.968   0.727  0.2161  0.7567 -0.3053
 8363TIP3    H249285   0.208   4.007   0.581 -0.4495 -0.0273 -0.5671
 8364TIP3   OH249286   5.479   3.310   0.926 -0.3630  0.0375  0.5600
 8364TIP3    H149287   5.416   3.282   0.992  0.4341 -0.9378  0.9326
 8364TIP3    H249288   5.564   3.282   0.960  0.5744  3.0448  1.0162
 8365TIP3   OH249289   5.345   3.203   2.083 -0.1500 -0.3229 -0.4969
 8365TIP3    H149290   5.313   3.253   2.007 -2.0118  0.4112  0.7046
 8365TIP3    H249291   5.271   3.150   2.110  0.2417 -0.0747  1.2056
 8366TIP3   OH249292   5.136   6.079   0.780  0.0986 -0.4854  0.1495
 8366TIP3    H149293   5.109   6.130   0.703  2.4131 -0.0463 -0.4540
 8366TIP3    H249294   5.176   6.144   0.838 -1.2230 -0.8929  1.5651
 8367TIP3   OH249295   7.502   4.473   2.178 -0.2376  0.3896 -0.0297
 8367TIP3    H149296   7.596   4.486   2.189 -0.2672  0.4522  0.1625
 8367TIP3    H249297   7.471   4.449   2.266  0.2174 -3.6810 -0.7767
 8368TIP3   OH249298   7.436   0.549   1.710 -0.4408  0.1417  0.0799
 8368TIP3    H149299   7.525   0.517   1.693 -0.0032  1.4453 -0.1649
 8368TIP3    H249300   7.442   0.594   1.794 -0.8355  0.3363  0.0076
 8369TIP3   OH249301   3.059   1.227   1.761 -0.1977 -0.6743 -0.0819
 8369TIP3    H149302   3.082   1.278   1.839 -0.6732  0.4258 -0.6465
 8369TIP3    H249303   3.010   1.152   1.795 -1.7514  0.5901  0.5847
 8370TIP3   OH249304   2.967   4.114   2.884 -0.4313 -0.1363 -0.2538
 8370TIP3    H149305   2.976   4.088   2.793 -3.0142  1.0419 -0.9277
 8370TIP3    H249306   2.892   4.065   2.917  0.4323 -0.5131  1.2508
 8371TIP3   OH249307   5.424   4.663   0.618 -0.4165 -0.6102  0.6472
 8371TIP3    H149308   5.502   4.696   0.661  0.5561 -1.3280 -0.4995
 8371TIP3    H249309   5.404   4.581   0.664 -1.0137 -0.0072  1.4883
 8372TIP3   OH249310   4.043   3.813   3.109 -0.3642 -0.4402  0.3061
 8372TIP3    H149311   3.979   3.755   3.151 -1.1368  0.2492  0.1076
 8372TIP3    H249312   4.004   3.834   3.024 -0.1387  0.4397  0.4160
 8373TIP3   OH249313   2.921   2.291   0.498  0.6981  0.1081 -0.0085
 8373TIP3    H149314   2.879   2.377   0.496  1.4972  0.5030 -1.6482
 8373TIP3    H249315   3.015   2.310   0.496  0.8846 -0.8050 -0.3354
 8374TIP3   OH249316   4.337   6.338   1.144  0.3047  0.4011 -0.1646
 8374TIP3    H149317   4.252   6.358   1.105 -0.1727 -0.1343  0.5895
 8374TIP3    H249318   4.320   6.332   1.238  0.7317 -1.8560 -0.1852
 8375TIP3   OH249319   2.267   3.707   0.571 -0.5762 -0.3499  0.4139
 8375TIP3    H149320   2.226   3.709   0.657 -1.3508  1.1408  0.0379
 8375TIP3    H249321   2.203   3.666   0.514 -0.3989 -0.5769  0.3749
 8376TIP3   OH249322   5.915   6.550   1.931 -0.2978  0.3132 -0.0317
 8376TIP3    H149323   6.004   6.576   1.954 -0.2509  0.4036 -0.3069
 8376TIP3    H249324   5.878   6.514   2.011  0.8918 -2.2510 -0.5415
 8377TIP3   OH249325   4.201   7.540   2.245 -0.5371  0.1163  0.0597
 8377TIP3    H149326   4.284   7.587   2.239 -0.1057 -0.4769  1.1877
 8377TIP3    H249327   4.196   7.510   2.336 -1.4792 -0.7960 -0.2679
 8378TIP3   OH249328   2.324   7.248   0.856  0.2025  0.2812 -0.2033
 8378TIP3    H149329   2.341   7.279   0.945  1.3851  0.4330 -0.4566
 8378TIP3    H249330   2.251   7.301   0.825  1.1290  1.7060 -0.0521
 8379TIP3   OH249331   2.862   5.187   2.631  0.2393  0.0667  0.3388
 8379TIP3    H149332   2.865   5.283   2.629  1.0427  0.0639  0.9233
 8379TIP3    H249333   2.769   5.166   2.640  0.1734  0.8280  1.5298
 8380TIP3   OH249334   4.878   1.434   2.624 -0.1200  0.7141  0.3425
 8380TIP3    H149335   4.891   1.518   2.668 -1.5361  1.4968 -0.6245
 8380TIP3    H249336   4.933   1.439   2.545  1.2637 -0.0757  1.2253
 8381TIP3   OH249337   1.998   7.265   0.982  0.4357  0.8037  0.1806
 8381TIP3    H149338   1.999   7.201   0.911  1.3878  0.7392  0.2380
 8381TIP3    H249339   2.032   7.216   1.058 -0.8527  0.7786  0.7691
 8382TIP3   OH249340   3.196   0.580   2.375  0.6697 -0.1170 -0.0559
 8382TIP3    H149341   3.115   0.586   2.425  0.6544 -0.9078  0.0351
 8382TIP3    H249342   3.263   0.620   2.431  0.5600 -0.5387  0.3801
 8383TIP3   OH249343   0.046   3.152   2.400  0.2369 -0.3022 -0.0974
 8383TIP3    H149344   0.078   3.235   2.367 -0.2497 -0.1916 -0.2897
 8383TIP3    H249345  -0.014   3.175   2.471  0.5970 -0.5107  0.2827
 8384TIP3   OH249346   2.939   3.978   0.701  0.4815 -0.2311  0.2825
 8384TIP3    H149347   2.989   3.920   0.759  0.5688 -0.6912 -0.2428
 8384TIP3    H249348   2.998   3.997   0.629  0.9760  1.7152  1.1387
 8385TIP3   OH249349   0.966   1.526   0.542 -0.5673 -0.2735  0.0921
 8385TIP3    H149350   0.917   1.600   0.506  0.3751 -0.5168 -1.8414
 8385TIP3    H249351   0.900   1.462   0.568 -1.3150 -0.2977 -1.7803
 8386TIP3   OH249352   3.204   5.485   0.635  0.3155  0.2063  0.0362
 8386TIP3    H149353   3.259   5.536   0.577  2.0850  1.6279  2.7486
 8386TIP3    H249354   3.117   5.523   0.626  0.5602  0.4483 -1.5356
 8387TIP3   OH249355   3.500   0.541   1.081  0.1424 -0.2184  0.0153
 8387TIP3    H149356   3.409   0.534   1.053  0.1825  0.4379 -0.3158
 8387TIP3    H249357   3.495   0.579   1.169  0.1340  1.3947 -0.6494
 8388TIP3   OH249358   6.195   0.330   3.448 -0.5206  0.0718  0.9054
 8388TIP3    H149359   6.256   0.404   3.442  1.4764 -1.4715  0.7624
 8388TIP3    H249360   6.176   0.323   3.541  1.1634 -0.5785  1.2517
 8389TIP3   OH249361   6.385   5.209   0.778  0.7492  0.0278  0.5213
 8389TIP3    H149362   6.422   5.163   0.702  2.3558 -0.9859  1.8601
 8389TIP3    H249363   6.296   5.175   0.786 -0.0603  1.3397 -1.8285
 8390TIP3   OH249364   1.779   4.454   2.938 -0.5483  0.6973  0.1176
 8390TIP3    H149365   1.697   4.499   2.961 -0.5308  0.4357  0.7143
 8390TIP3    H249366   1.844   4.489   2.998 -0.6420 -0.4737  0.9349
 8391TIP3   OH249367   4.395   7.377   1.882 -0.5027  0.4037  0.4873
 8391TIP3    H149368   4.366   7.414   1.799  0.7230 -1.2746 -0.7834
 8391TIP3    H249369   4.482   7.342   1.863 -1.0114 -1.8396  1.9013
 8392TIP3   OH249370   6.482   3.251   2.644 -0.1317  0.0139  0.3368
 8392TIP3    H149371   6.469   3.302   2.724  0.0393 -0.3898  0.6259
 8392TIP3    H249372   6.481   3.160   2.674 -2.1457 -0.2483 -0.4017
 8393TIP3   OH249373   4.440   7.180   1.313 -0.2605 -0.0111  0.2454
 8393TIP3    H149374   4.403   7.165   1.226 -0.1495  0.7320  0.0636
 8393TIP3    H249375   4.389   7.123   1.371  0.0108 -0.8974 -0.3758
 8394TIP3   OH249376   2.943   3.041   1.339  0.1246  0.3034 -0.2577
 8394TIP3    H149377   3.025   3.009   1.377  0.4519  1.7888  0.3926
 8394TIP3    H249378   2.875   2.988   1.382  0.7268 -1.0684 -0.9393
 8395TIP3   OH249379   0.706   6.754   2.897 -0.7189 -0.6696  0.0698
 8395TIP3    H149380   0.618   6.783   2.920 -1.5371 -1.6137 -1.6569
 8395TIP3    H249381   0.693   6.668   2.858  1.0381 -1.0494  0.2728
 8396TIP3   OH249382   3.988   3.664   1.133 -0.3017  0.3080 -0.0371
 8396TIP3    H149383   3.925   3.668   1.205 -1.3809  1.3578 -0.9906
 8396TIP3    H249384   3.940   3.620   1.062  0.5263 -0.1592 -0.3133
 8397TIP3   OH249385   6.183   7.505   1.083  0.0077  0.2394  1.0358
 8397TIP3    H149386   6.098   7.533   1.049  0.5233  0.9034  0.2497
 8397TIP3    H249387   6.188   7.412   1.062 -0.5515  0.1820  1.1439
 8398TIP3   OH249388   1.869   4.564   0.791 -0.1338  0.2913  0.4432
 8398TIP3    H149389   1.933   4.543   0.859  0.2797  0.1508  0.0082
 8398TIP3    H249390   1.785   4.560   0.837 -0.0189 -1.4704  0.5800
 8399TIP3   OH249391   1.617   4.580   0.918 -0.4145 -0.7582 -0.2310
 8399TIP3    H149392   1.539   4.626   0.949 -0.0369 -1.2134  1.5671
 8399TIP3    H249393   1.583   4.502   0.874 -0.9934 -0.1717 -0.8445
 8400TIP3   OH249394   3.968   5.516   3.085  0.3884  0.0450 -0.2668
 8400TIP3    H149395   4.008   5.477   3.163  0.0076  0.3398  0.0834
 8400TIP3    H249396   4.020   5.483   3.012  0.3036 -0.8162  0.0491
 8401TIP3   OH249397   4.424   5.012   1.043  0.2141  0.0210  0.0490
 8401TIP3    H149398   4.364   5.084   1.063  0.1897  0.5061 -1.5837
 8401TIP3    H249399   4.511   5.052   1.048  0.3479 -0.4023  1.3081
 8402TIP3   OH249400   6.306   5.482   1.556 -0.0174 -0.5506  0.3900
 8402TIP3    H149401   6.376   5.422   1.530  0.8986 -0.0846  1.7201
 8402TIP3    H249402   6.303   5.547   1.485  0.3554 -1.0127 -0.0571
 8403TIP3   OH249403   1.120   4.293   2.217 -0.2622 -0.4334 -0.3005
 8403TIP3    H149404   1.117   4.326   2.306 -1.2299  1.1116 -0.8632
 8403TIP3    H249405   1.203   4.245   2.211  0.7660  1.1378  0.8428
 8404TIP3   OH249406   6.110   1.525   1.283  0.1705  0.6618 -0.5026
 8404TIP3    H149407   6.138   1.445   1.327 -0.3020  1.4925  1.4165
 8404TIP3    H249408   6.167   1.531   1.206  3.2104  0.6632  1.5422
 8405TIP3   OH249409   2.473   6.444   2.115  0.7320 -0.3492 -0.2629
 8405TIP3    H149410   2.485   6.515   2.051 -1.9342  2.0967  1.6415
 8405TIP3    H249411   2.391   6.402   2.089  1.1010 -1.2207 -0.0473
 8406TIP3   OH249412   4.346   6.723   2.049  0.1277  0.3508 -0.2547
 8406TIP3    H149413   4.428   6.744   2.004 -0.4445  0.6727 -1.1685
 8406TIP3    H249414   4.344   6.628   2.053  1.8337  0.3280  2.2155
 8407TIP3   OH249415   0.848   6.001   3.037 -0.5708  0.8518  0.2238
 8407TIP3    H149416   0.886   6.088   3.039  1.1145  0.2255 -1.4240
 8407TIP3    H249417   0.910   5.945   3.084 -0.8934  0.3140  0.0318
 8408TIP3   OH249418   4.356   5.283   1.579 -0.3660 -0.2339 -0.1048
 8408TIP3    H149419   4.380   5.224   1.508  1.0066 -0.9584  0.9101
 8408TIP3    H249420   4.426   5.348   1.582 -0.9551  0.4108 -0.0755
 8409TIP3   OH249421   2.288   6.488   1.338  0.5873 -0.6963 -0.0892
 8409TIP3    H149422   2.378   6.489   1.369  0.3379 -1.5875  0.7259
 8409TIP3    H249423   2.295   6.474   1.243  1.3145 -0.0099 -0.1407
 8410TIP3   OH249424   2.368   0.697   0.771 -0.0388  0.1386  0.1857
 8410TIP3    H149425   2.399   0.786   0.790 -1.6084  0.6485  0.5605
 8410TIP3    H249426   2.402   0.644   0.844  1.1897  0.3409 -0.2168
 8411TIP3   OH249427   7.090   0.119   1.259 -1.0017 -0.4481 -0.1263
 8411TIP3    H149428   7.180   0.149   1.243 -1.1166 -0.1050 -0.1537
 8411TIP3    H249429   7.037   0.199   1.249 -1.0268 -0.0275  2.6744
 8412TIP3   OH249430   1.237   2.001   1.898 -0.5881  0.6351  0.8066
 8412TIP3    H149431   1.148   1.997   1.862 -0.9209  2.5687  1.2914
 8412TIP3    H249432   1.262   2.093   1.888  1.4431  0.0984  0.5433
 8413TIP3   OH249433   3.540   7.277   1.146  0.0719  0.1146  0.0099
 8413TIP3    H149434   3.543   7.370   1.170 -0.9665 -0.2265  1.6099
 8413TIP3    H249435   3.582   7.273   1.060  0.1218  2.0618 -0.0988
 8414TIP3   OH249436   2.824   3.782   2.671  0.3424 -0.9933  0.1095
 8414TIP3    H149437   2.733   3.803   2.650  0.5867 -1.9914 -2.3357
 8414TIP3    H249438   2.818   3.722   2.745 -0.9541 -0.7661  0.2201
 8415TIP3   OH249439   4.438   3.722   3.369  0.0272  0.9662 -0.8587
 8415TIP3    H149440   4.389   3.796   3.406 -0.5784  2.3118 -3.9718
 8415TIP3    H249441   4.388   3.645   3.396 -0.8528  1.9060  0.3205
 8416TIP3   OH249442   7.494   3.892   1.736 -0.7565  1.2866 -0.2385
 8416TIP3    H149443   7.544   3.959   1.690 -0.8468  0.8895 -0.9334
 8416TIP3    H249444   7.402   3.917   1.723 -0.8652  0.2747 -1.7532
 8417TIP3   OH249445   4.464   3.551   2.932  0.2662 -0.6639  1.0593
 8417TIP3    H149446   4.387   3.536   2.987 -0.6863 -1.2285 -0.3699
 8417TIP3    H249447   4.525   3.480   2.957 -0.6754 -1.7013  0.5072
 8418TIP3   OH249448   3.481   1.009   2.057  0.4009  0.1845  0.0044
 8418TIP3    H149449   3.463   1.031   1.966 -0.3555  1.5191  0.4522
 8418TIP3    H249450   3.575   0.992   2.060  0.3495 -0.3702 -1.1071
 8419TIP3   OH249451   0.717   1.397   0.907 -0.0317  0.4062  0.2412
 8419TIP3    H149452   0.787   1.442   0.954  1.3664 -2.3877  1.0548
 8419TIP3    H249453   0.661   1.361   0.976 -0.8627  0.5310 -0.3579
 8420TIP3   OH249454   6.231   6.288   1.694  0.0368  0.6833  0.1270
 8420TIP3    H149455   6.205   6.200   1.721 -1.1753  0.8537 -0.4419
 8420TIP3    H249456   6.263   6.329   1.775 -0.7314  0.1987  0.6890
 8421TIP3   OH249457   1.551   0.392   1.186 -0.3573  0.4270  0.0439
 8421TIP3    H149458   1.522   0.412   1.097 -0.2274  0.3292 -0.0196
 8421TIP3    H249459   1.480   0.341   1.224 -0.0595 -0.2375 -0.2732
 8422TIP3   OH249460   4.413   6.592   0.584 -0.5789  0.0854  0.3310
 8422TIP3    H149461   4.417   6.520   0.647  0.0064 -2.8412 -2.7729
 8422TIP3    H249462   4.321   6.596   0.558 -0.3124 -0.8468 -0.8197
 8423TIP3   OH249463   5.032   5.928   2.723  0.1147  0.1653 -0.2011
 8423TIP3    H149464   4.956   5.878   2.753 -1.2548  3.4070  2.2232
 8423TIP3    H249465   5.002   5.970   2.642 -0.1190  0.1713 -0.1135
 8424TIP3   OH249466   6.760   5.254   1.080  0.8325  0.2588  0.5874
 8424TIP3    H149467   6.782   5.258   0.987  0.2072  1.5131  0.4707
 8424TIP3    H249468   6.667   5.235   1.082  0.1874  3.0874  0.8467
 8425TIP3   OH249469   2.164   3.080   0.920 -0.1297  0.4261  0.2795
 8425TIP3    H149470   2.234   3.101   0.982  1.0099  0.9723 -1.1379
 8425TIP3    H249471   2.203   3.018   0.859 -0.4308  1.7321 -1.3090
 8426TIP3   OH249472   7.416   0.505   2.126  0.5318  0.0575  0.0301
 8426TIP3    H149473   7.416   0.425   2.074 -0.9560  0.5472 -0.7462
 8426TIP3    H249474   7.391   0.477   2.214  3.1783 -0.7903  0.6271
 8427TIP3   OH249475   5.193   2.417   1.067 -0.3825  0.1934  0.2848
 8427TIP3    H149476   5.128   2.486   1.052 -0.8816  0.1876  2.1618
 8427TIP3    H249477   5.223   2.393   0.980  0.8632  3.7524 -0.4065
 8428TIP3   OH249478   5.201   4.878   0.872 -0.3292  0.0625 -0.3861
 8428TIP3    H149479   5.268   4.903   0.808  0.1914  0.2707  0.2375
 8428TIP3    H249480   5.208   4.783   0.878 -0.3490  0.0462 -0.5959
 8429TIP3   OH249481   5.898   6.061   2.766  0.2104 -0.3630 -0.0853
 8429TIP3    H149482   5.842   6.024   2.834  2.3597 -1.6477  1.1024
 8429TIP3    H249483   5.883   6.006   2.690  1.2051 -1.9842  0.8112
 8430TIP3   OH249484   2.033   0.462   2.923 -0.2324 -0.4023 -0.0394
 8430TIP3    H149485   2.059   0.554   2.910 -0.1224 -0.5347 -0.8034
 8430TIP3    H249486   2.064   0.417   2.844 -0.7840 -0.9962  0.0756
 8431TIP3   OH249487   0.278   4.319   1.014  0.6680  0.3496 -0.5597
 8431TIP3    H149488   0.291   4.243   0.957  0.1221  0.3831 -0.7423
 8431TIP3    H249489   0.366   4.347   1.037  0.8751 -0.8973  0.2655
 8432TIP3   OH249490   0.918   1.660   2.542  0.5840  0.7316  0.1765
 8432TIP3    H149491   0.938   1.702   2.626 -0.3340 -0.3819  0.9897
 8432TIP3    H249492   0.829   1.626   2.553  0.3089  0.8616 -1.3845
 8433TIP3   OH249493   5.581   5.526   2.586  0.3968  0.4408  0.1027
 8433TIP3    H149494   5.601   5.460   2.652 -0.4310 -0.0823 -0.1567
 8433TIP3    H249495   5.620   5.607   2.621  1.7617 -0.2367  0.2351
 8434TIP3   OH249496   0.192   4.025   0.892  0.5579 -0.0379 -0.6301
 8434TIP3    H149497   0.145   3.943   0.909  0.8649 -0.1722 -0.4138
 8434TIP3    H249498   0.284   3.999   0.892  0.7418  0.5117  0.6957
 8435TIP3   OH249499   3.884   4.498   0.783  0.2437  0.7988 -0.0752
 8435TIP3    H149500   3.900   4.424   0.841 -1.0013  0.2497 -0.4079
 8435TIP3    H249501   3.831   4.559   0.835  0.9581  1.3118  0.0748
 8436TIP3   OH249502   4.821   5.420   2.413  0.3190 -0.5121 -0.1159
 8436TIP3    H149503   4.878   5.497   2.419  2.1270 -1.8788  1.8542
 8436TIP3    H249504   4.739   5.447   2.455  0.1293  0.9359 -1.3446
 8437TIP3   OH249505   4.224   3.912   1.790 -0.6004 -0.2945 -0.1910
 8437TIP3    H149506   4.306   3.866   1.806 -0.5775 -0.3060 -0.3437
 8437TIP3    H249507   4.165   3.881   1.859 -0.0449  0.7864  0.8094
 8438TIP3   OH249508   1.455   2.806   2.066  0.4361  0.2998 -0.5269
 8438TIP3    H149509   1.413   2.720   2.058  0.7249  0.1199 -0.1275
 8438TIP3    H249510   1.421   2.856   1.991 -1.1264  0.4276  0.2277
 8439TIP3   OH249511   2.144   6.479   2.608 -0.1156 -0.3765  0.3353
 8439TIP3    H149512   2.103   6.553   2.564  0.7464  0.6100  1.1571
 8439TIP3    H249513   2.131   6.496   2.702 -0.4130 -1.5650  0.5268
 8440TIP3   OH249514   3.568   5.876   2.152  0.2871  0.1440 -0.5189
 8440TIP3    H149515   3.519   5.795   2.143  1.3855 -0.6329  0.3256
 8440TIP3    H249516   3.575   5.909   2.062  0.8432 -1.3000 -1.0325
 8441TIP3   OH249517   6.450   0.351   2.243  0.2984 -0.0151  0.5741
 8441TIP3    H149518   6.372   0.340   2.296 -1.0819  0.2717 -1.2828
 8441TIP3    H249519   6.493   0.429   2.278 -2.1170  1.8917 -0.4699
 8442TIP3   OH249520   0.075   2.281   1.761 -0.1693 -0.5208  0.5012
 8442TIP3    H149521   0.162   2.308   1.790  0.0470 -0.7319  0.0667
 8442TIP3    H249522   0.087   2.259   1.668 -0.9406  0.6195  0.1040
 8443TIP3   OH249523   6.958   4.154   1.945 -0.5345  0.3591  0.6377
 8443TIP3    H149524   6.922   4.106   2.020 -1.4767  0.9131  0.5577
 8443TIP3    H249525   6.944   4.096   1.871 -2.7555  1.1784  0.3398
 8444TIP3   OH249526   6.552   2.392   2.923 -0.4992 -0.0954  0.2293
 8444TIP3    H149527   6.526   2.438   3.002  2.4088  0.3505  1.0542
 8444TIP3    H249528   6.538   2.456   2.853 -1.2149  0.2241  0.6478
 8445TIP3   OH249529   5.267   7.308   2.181  0.4265 -0.1731 -0.3860
 8445TIP3    H149530   5.315   7.294   2.262  1.8780 -1.4863 -1.4015
 8445TIP3    H249531   5.204   7.236   2.177  0.3448 -0.1005 -0.4219
 8446TIP3   OH249532   6.089   3.379   2.353  0.0240  0.6605  0.1164
 8446TIP3    H149533   6.136   3.445   2.302 -1.7311  0.1761 -2.2687
 8446TIP3    H249534   6.155   3.313   2.374  0.7483  0.6389 -2.0115
 8447TIP3   OH249535   1.407   3.870   0.932 -0.4539 -0.1584  0.3037
 8447TIP3    H149536   1.374   3.867   1.021 -1.3817  0.6976  0.0200
 8447TIP3    H249537   1.331   3.848   0.878 -1.1809  3.4824 -0.4646
 8448TIP3   OH249538   0.336   4.963   2.014 -0.1310 -0.1017 -0.5776
 8448TIP3    H149539   0.424   4.943   1.982 -0.4683 -0.6893 -1.1471
 8448TIP3    H249540   0.302   4.880   2.045 -0.8675 -0.0706 -1.2933
 8449TIP3   OH249541   6.101   5.809   1.547  0.4656  0.5744  0.7162
 8449TIP3    H149542   6.026   5.864   1.525  0.2835 -0.2581 -0.8490
 8449TIP3    H249543   6.067   5.720   1.547  1.3608  0.2192  0.4073
 8450TIP3   OH249544   3.824   6.058   1.843 -0.1144 -0.1372 -0.5164
 8450TIP3    H149545   3.768   6.121   1.889  2.1380 -0.0917  2.4901
 8450TIP3    H249546   3.902   6.108   1.819  0.0221 -0.9039 -1.7624
 8451TIP3   OH249547   6.028   0.393   0.962 -0.2655 -0.6678  0.2320
 8451TIP3    H149548   6.003   0.455   0.894  2.5367  0.9998  0.5746
 8451TIP3    H249549   5.986   0.427   1.041  0.3418  0.1711  0.2042
 8452TIP3   OH249550   2.978   2.885   0.695  0.4189 -0.3350  0.0208
 8452TIP3    H149551   3.050   2.946   0.705  1.1056 -1.3930  2.2237
 8452TIP3    H249552   3.019   2.798   0.704 -1.0970 -0.9545  1.4748
 8453TIP3   OH249553   5.297   3.598   1.075 -0.0794  0.1814 -0.2735
 8453TIP3    H149554   5.305   3.685   1.036  0.0203  1.3391  2.1502
 8453TIP3    H249555   5.209   3.570   1.052 -1.3030  2.3114  1.3975
 8454TIP3   OH249556   4.747   3.162   2.041  0.3522 -0.5365 -0.3249
 8454TIP3    H149557   4.716   3.086   1.992  1.2324 -0.5218 -0.9373
 8454TIP3    H249558   4.817   3.198   1.986  3.2803 -2.0673  2.1394
 8455TIP3   OH249559   1.236   7.105   0.607  0.3969  0.1123 -0.2412
 8455TIP3    H149560   1.282   7.181   0.573 -0.0776  0.1941 -0.7203
 8455TIP3    H249561   1.304   7.050   0.646  0.6839  0.9834  0.4901
 8456TIP3   OH249562   0.479   3.590   2.368  0.2883  0.4563  0.3741
 8456TIP3    H149563   0.477   3.566   2.460 -0.1518 -0.5822  0.1170
 8456TIP3    H249564   0.433   3.518   2.324  2.4416 -0.2288 -0.8989
 8457TIP3   OH249565   1.396   5.063   3.554  0.3360 -0.3761 -0.1152
 8457TIP3    H149566   1.491   5.068   3.542  0.1835  1.0301 -0.9211
 8457TIP3    H249567   1.374   4.973   3.530  0.9427  0.4112 -4.4286
 8458TIP3   OH249568   4.184   5.384   1.351 -0.4820  0.6795  0.0566
 8458TIP3    H149569   4.225   5.441   1.286  1.8135  1.2948  1.8810
 8458TIP3    H249570   4.257   5.357   1.408 -1.0551 -5.2638 -1.3769
 8459TIP3   OH249571   0.838   6.961   2.304 -0.2487 -0.3209  0.0581
 8459TIP3    H149572   0.807   6.944   2.215  1.1192  0.6696 -0.6579
 8459TIP3    H249573   0.874   7.050   2.300  1.5513 -0.9391  1.0716
 8460TIP3   OH249574   1.789   7.423   2.054  0.2371  0.1106 -0.9826
 8460TIP3    H149575   1.827   7.466   1.977 -0.8081  2.2194 -0.4160
 8460TIP3    H249576   1.854   7.435   2.123 -0.1066  0.9900 -0.7910
 8461TIP3   OH249577   6.147   2.290   0.538 -0.1335 -0.4811  0.0526
 8461TIP3    H149578   6.077   2.319   0.479  0.4228  1.6962  0.3930
 8461TIP3    H249579   6.148   2.195   0.528 -2.9423 -0.5649 -0.1864
 8462TIP3   OH249580   7.208   1.079   1.416  0.6694  0.2537  0.0679
 8462TIP3    H149581   7.126   1.030   1.412  0.2945  0.9296 -1.1864
 8462TIP3    H249582   7.259   1.035   1.484  0.0762 -1.4303 -0.5229
 8463TIP3   OH249583   0.898   2.102   2.554  0.0081 -0.3315 -0.6660
 8463TIP3    H149584   0.843   2.040   2.603  0.7821 -0.5546 -0.0480
 8463TIP3    H249585   0.902   2.066   2.466 -0.7577 -0.3550 -0.7020
 8464TIP3   OH249586   2.728   6.022   0.789 -0.4890  0.0161  0.5345
 8464TIP3    H149587   2.746   5.965   0.863 -0.1351 -0.7036 -0.0864
 8464TIP3    H249588   2.802   6.082   0.785 -1.6193  1.6524  2.1774
 8465TIP3   OH249589   4.301   5.753   0.887  0.2068 -0.2832  0.0067
 8465TIP3    H149590   4.257   5.810   0.823 -0.3715 -2.5722 -1.7677
 8465TIP3    H249591   4.377   5.804   0.916 -0.0835  1.2587 -1.7641
 8466TIP3   OH249592   2.011   4.729   0.404  0.1513 -0.1027 -0.1146
 8466TIP3    H149593   1.926   4.714   0.445 -0.7321  1.5031 -1.2173
 8466TIP3    H249594   1.997   4.807   0.349  2.3050  0.1303 -0.4158
 8467TIP3   OH249595   4.555   4.481   0.741 -0.2220  0.2498 -0.1234
 8467TIP3    H149596   4.640   4.441   0.759  0.8500  2.3334 -0.3668
 8467TIP3    H249597   4.508   4.476   0.825  1.5840  2.4118  1.1083
 8468TIP3   OH249598   5.108   1.924   2.902 -0.1589  0.7765 -0.1963
 8468TIP3    H149599   5.180   1.897   2.845 -0.5020 -2.3716  0.6929
 8468TIP3    H249600   5.034   1.938   2.844  0.0941 -0.0938 -0.7381
 8469TIP3   OH249601   0.580   2.481   1.109 -0.8722  0.1318  0.4581
 8469TIP3    H149602   0.510   2.534   1.071 -0.5520 -0.3545 -0.8363
 8469TIP3    H249603   0.644   2.545   1.139 -0.9588  0.5167 -0.1600
 8470TIP3   OH249604   0.487   2.564   0.590 -0.4830 -0.2705 -0.1659
 8470TIP3    H149605   0.414   2.502   0.601  0.0914 -1.1362 -1.1292
 8470TIP3    H249606   0.566   2.510   0.593 -0.0004  0.2495 -1.9966
 8471TIP3   OH249607   3.819   7.554   1.947 -0.0319 -0.5640 -0.4809
 8471TIP3    H149608   3.802   7.486   2.011  1.3650  0.3625  0.9253
 8471TIP3    H249609   3.778   7.633   1.984 -0.1554 -0.2454 -1.2641
 8472TIP3   OH249610   2.152   2.650   2.697 -0.7625 -0.1449  0.4145
 8472TIP3    H149611   2.205   2.590   2.643 -2.5502 -0.7353 -0.7789
 8472TIP3    H249612   2.176   2.629   2.787  0.7719 -0.6157 -0.0783
 8473TIP3   OH249613   4.594   0.128   0.630 -0.1578  0.1978  0.3619
 8473TIP3    H149614   4.576   0.217   0.659 -3.4388 -0.3885  0.5278
 8473TIP3    H249615   4.656   0.093   0.694  0.1351  1.9244  1.0520
 8474TIP3   OH249616   3.897   1.208   2.378 -0.1591 -0.2512  0.2104
 8474TIP3    H149617   3.815   1.165   2.403  0.2436 -1.4386 -0.4115
 8474TIP3    H249618   3.870   1.277   2.317 -0.8875  0.9330  1.8026
 8475TIP3   OH249619   6.320   1.402   1.655 -0.1665 -0.3741  0.2737
 8475TIP3    H149620   6.340   1.330   1.715  0.0555 -0.4653  0.0923
 8475TIP3    H249621   6.281   1.469   1.710 -1.7857 -1.2209  0.2156
 8476TIP3   OH249622   5.189   6.800   1.086 -0.4392  0.5128  0.0553
 8476TIP3    H149623   5.100   6.821   1.059 -0.7788 -0.0565  0.7238
 8476TIP3    H249624   5.179   6.743   1.162  0.4952  0.5574  0.2247
 8477TIP3   OH249625   3.405   5.772   0.848  0.0972  0.2985  0.1633
 8477TIP3    H149626   3.347   5.839   0.812 -0.7283 -0.8078 -0.6329
 8477TIP3    H249627   3.493   5.800   0.823 -0.1774  1.3888  0.3713
 8478TIP3   OH249628   7.252   3.080   2.160  0.1223 -0.4350  0.4094
 8478TIP3    H149629   7.234   3.149   2.096 -2.5702 -0.4309  1.0557
 8478TIP3    H249630   7.343   3.095   2.186 -0.0209  2.1581 -0.2960
 8479TIP3   OH249631   0.656   3.012   3.022 -0.2094  0.0459  0.0555
 8479TIP3    H149632   0.568   2.976   3.017 -0.0378 -0.4909  0.6966
 8479TIP3    H249633   0.713   2.946   2.982 -0.4059  1.8089 -3.5369
 8480TIP3   OH249634   7.012   3.213   1.475  0.2309 -0.0789 -0.2464
 8480TIP3    H149635   6.980   3.277   1.412  0.0175  1.8900  1.7309
 8480TIP3    H249636   6.985   3.128   1.439  0.1725  0.9280 -2.7653
 8481TIP3   OH249637   6.863   0.954   1.217  0.5194 -0.3215  0.4464
 8481TIP3    H149638   6.886   1.004   1.140 -0.1338  1.4130  1.3245
 8481TIP3    H249639   6.871   0.862   1.190  0.9622  0.2401 -1.4437
 8482TIP3   OH249640   5.524   4.385   2.677 -0.0442  0.0745  0.0424
 8482TIP3    H149641   5.610   4.370   2.717 -0.1745 -1.1879 -0.1308
 8482TIP3    H249642   5.461   4.365   2.746 -0.2088  1.6333  0.3749
 8483TIP3   OH249643   1.589   4.022   2.044  0.0326  0.0173 -0.3166
 8483TIP3    H149644   1.569   4.046   2.135 -2.5112  1.5411 -1.1731
 8483TIP3    H249645   1.684   4.028   2.039  0.1061  2.7398  1.5773
 8484TIP3   OH249646   2.229   5.482   3.374 -0.0542  0.4657 -0.0390
 8484TIP3    H149647   2.172   5.448   3.443 -0.9747  1.1099 -0.4611
 8484TIP3    H249648   2.306   5.514   3.421  0.1895 -0.8247  0.4959
 8485TIP3   OH249649   7.147   1.906   2.791 -0.2996  0.2247  0.3107
 8485TIP3    H149650   7.141   1.991   2.747 -2.3124 -0.6364 -1.2000
 8485TIP3    H249651   7.210   1.921   2.861  1.2392  2.3135 -1.3670
 8486TIP3   OH249652   6.390   4.695   1.248 -0.3563  0.2079  0.3333
 8486TIP3    H149653   6.305   4.667   1.283 -1.1264  2.8292  0.7220
 8486TIP3    H249654   6.429   4.747   1.318  0.4707  1.0642 -0.7317
 8487TIP3   OH249655   4.468   4.479   1.498  0.6468  0.0298  0.9791
 8487TIP3    H149656   4.558   4.511   1.504  1.0477 -0.3637 -1.7236
 8487TIP3    H249657   4.415   4.550   1.533  1.7796  2.0041 -1.0756
 8488TIP3   OH249658   0.007   2.736   0.576 -0.3734  0.5772  0.0385
 8488TIP3    H149659   0.100   2.748   0.595 -0.9417  1.1204  3.0943
 8488TIP3    H249660  -0.023   2.821   0.545  0.2864  0.1193 -2.0027
 8489TIP3   OH249661   4.322   0.119   0.559  0.2447  0.3335 -0.8394
 8489TIP3    H149662   4.416   0.136   0.562  0.3197 -0.1673  2.2879
 8489TIP3    H249663   4.314   0.047   0.496  1.8520  0.8212 -1.6677
 8490TIP3   OH249664   4.217   0.044   1.966  0.1141  0.5138  0.3429
 8490TIP3    H149665   4.192   0.015   2.053 -1.7658 -0.5977 -0.5069
 8490TIP3    H249666   4.305   0.009   1.953 -1.0763 -2.7800  0.3295
 8491TIP3   OH249667   6.004   3.420   1.163 -0.2397  0.3088  0.4998
 8491TIP3    H149668   6.007   3.506   1.206 -0.7276  0.6096 -0.0416
 8491TIP3    H249669   6.054   3.362   1.220 -0.5020  0.7994  1.2346
 8492TIP3   OH249670   6.831   7.065   0.632  0.2901  0.6362  0.3082
 8492TIP3    H149671   6.777   7.089   0.707  1.1996 -0.3000  1.2926
 8492TIP3    H249672   6.885   7.143   0.615 -0.8431  1.3296 -0.2506
 8493TIP3   OH249673   5.385   0.795   2.369  0.0068 -0.5420  0.3353
 8493TIP3    H149674   5.431   0.839   2.440  0.7790 -1.4448  0.4147
 8493TIP3    H249675   5.293   0.793   2.398 -0.6211  3.3585 -0.8853
 8494TIP3   OH249676   6.309   7.312   3.090  0.0660 -0.2530  0.0504
 8494TIP3    H149677   6.233   7.252   3.087 -1.0922  1.1472  0.2662
 8494TIP3    H249678   6.353   7.289   3.172  0.3973 -1.6802 -0.5061
 8495TIP3   OH249679   6.805   3.082   2.055 -0.0370  0.2611 -0.2570
 8495TIP3    H149680   6.711   3.080   2.037 -0.2336 -0.4321  0.7614
 8495TIP3    H249681   6.823   3.000   2.100  0.8665  0.8086  0.4302
 8496TIP3   OH249682   3.719   6.544   2.391  0.3977 -0.1870 -0.4360
 8496TIP3    H149683   3.682   6.574   2.474  0.7877 -0.0688 -0.3004
 8496TIP3    H249684   3.738   6.452   2.405 -0.7394 -0.4982 -0.8299
 8497TIP3   OH249685   6.691   1.106   2.179 -0.0022 -0.4703  0.5299
 8497TIP3    H149686   6.692   1.093   2.273 -1.3231  0.7788  0.7508
 8497TIP3    H249687   6.598   1.110   2.156  0.2753 -1.4553 -0.9426
 8498TIP3   OH249688   0.905   2.060   1.068  0.1550 -0.2838  0.0333
 8498TIP3    H149689   0.863   2.146   1.069  0.5254 -0.0725 -1.1386
 8498TIP3    H249690   0.986   2.074   1.019  0.2222 -1.3025 -0.1676
 8499TIP3   OH249691   4.289   7.107   0.679  0.1177 -0.1957 -0.0789
 8499TIP3    H149692   4.240   7.161   0.742 -0.0664 -0.9284  0.4146
 8499TIP3    H249693   4.380   7.131   0.693 -0.0373  0.8505 -0.6908
 8500TIP3   OH249694   4.947   2.029   1.294 -0.1366  0.3878  0.5583
 8500TIP3    H149695   4.880   2.033   1.225 -0.3254  4.6225  0.7622
 8500TIP3    H249696   4.897   2.028   1.376 -0.0160  2.0318  0.6804
 8501TIP3   OH249697   3.660   0.096   1.469 -0.1653 -0.0905 -1.2151
 8501TIP3    H149698   3.732   0.059   1.520  0.6591  0.6007 -1.8634
 8501TIP3    H249699   3.599   0.130   1.534  0.3108 -0.2785 -0.6691
 8502TIP3   OH249700   7.411   3.301   0.815 -0.1207 -0.7389  0.0415
 8502TIP3    H149701   7.390   3.357   0.740  0.6846 -0.5660 -0.0580
 8502TIP3    H249702   7.416   3.361   0.889 -3.4535 -1.1623  0.8143
 8503TIP3   OH249703   6.731   0.827   0.643  0.4345  0.1744 -0.1395
 8503TIP3    H149704   6.774   0.798   0.562  0.8848  3.2190 -1.1107
 8503TIP3    H249705   6.641   0.845   0.618  1.1405  3.4923 -0.7287
 8504TIP3   OH249706   2.639   0.255   0.974  0.1131 -0.3904  0.3251
 8504TIP3    H149707   2.651   0.246   1.069 -1.1354 -0.6115  0.4854
 8504TIP3    H249708   2.638   0.165   0.942  1.4029 -0.2906 -0.0358
 8505TIP3   OH249709   4.712   5.567   1.771 -0.2598 -0.5742 -0.0382
 8505TIP3    H149710   4.773   5.494   1.763 -1.1017 -1.1640 -1.3394
 8505TIP3    H249711   4.665   5.551   1.853  0.2650 -0.9334  0.1907
 8506TIP3   OH249712   2.236   5.837   1.762 -0.2923 -0.4459 -0.5605
 8506TIP3    H149713   2.188   5.906   1.807 -0.2964 -1.7931  1.6442
 8506TIP3    H249714   2.212   5.757   1.808  1.7588 -1.5591 -1.2949
 8507TIP3   OH249715   3.275   5.764   1.753  0.5378  0.5227 -0.2084
 8507TIP3    H149716   3.357   5.713   1.752  0.5190  0.4755  0.4104
 8507TIP3    H249717   3.206   5.699   1.750  0.4892  0.4110  1.9526
 8508TIP3   OH249718   5.524   5.081   0.451  0.1992  0.6327  0.4747
 8508TIP3    H149719   5.542   4.996   0.412 -0.1969  0.1273  1.3728
 8508TIP3    H249720   5.457   5.120   0.394 -0.2308 -0.0139  0.5296
 8509TIP3   OH249721   1.082   0.966   2.890  0.2137  0.4618 -0.3277
 8509TIP3    H149722   1.110   1.057   2.887 -0.2250  0.6127 -0.0441
 8509TIP3    H249723   1.141   0.920   2.830  0.9724  0.7827  0.1583
 8510TIP3   OH249724   6.073   0.708   2.745 -0.0577 -0.1246  0.1663
 8510TIP3    H149725   6.006   0.693   2.811  0.0271 -0.5073  0.1678
 8510TIP3    H249726   6.095   0.801   2.753 -1.1423  0.1984 -0.3633
 8511TIP3   OH249727   2.475   3.025   1.158 -0.1497 -0.1601  0.8674
 8511TIP3    H149728   2.517   3.019   1.072 -3.4835  0.3594 -0.9702
 8511TIP3    H249729   2.502   3.109   1.193 -0.5616  0.7098 -0.8085
 8512TIP3   OH249730   3.518   6.564   2.871 -0.2516 -0.1766 -0.3997
 8512TIP3    H149731   3.548   6.483   2.830  1.3474  0.0287  0.2908
 8512TIP3    H249732   3.557   6.563   2.958 -3.9396 -0.8579  1.4736
 8513TIP3   OH249733   1.978   3.615   1.809  0.1335  0.3605 -0.4612
 8513TIP3    H149734   2.072   3.619   1.790  0.7421 -1.6624  1.5922
 8513TIP3    H249735   1.942   3.564   1.737  0.8221  0.2179 -0.7188
 8514TIP3   OH249736   2.599   4.553   2.712 -0.3563 -0.2930  0.9315
 8514TIP3    H149737   2.629   4.464   2.694  2.7947  0.9718 -0.9761
 8514TIP3    H249738   2.596   4.558   2.808 -1.0619 -2.5244  1.0872
 8515TIP3   OH249739   1.083   5.831   1.117  0.3212 -0.1358  0.1212
 8515TIP3    H149740   1.076   5.751   1.170 -3.0660 -0.8528 -1.1614
 8515TIP3    H249741   1.111   5.800   1.031  1.5982  0.4924  0.2745
 8516TIP3   OH249742   0.362   5.651   1.414 -0.7152  0.5683 -0.2734
 8516TIP3    H149743   0.360   5.747   1.419  0.9347  0.5786  0.8682
 8516TIP3    H249744   0.270   5.625   1.415 -1.2072  2.1522 -1.2430
 8517TIP3   OH249745   5.369   2.233   2.240  0.7470  0.2352 -0.1282
 8517TIP3    H149746   5.403   2.152   2.203  0.6878  0.3191 -0.3631
 8517TIP3    H249747   5.431   2.255   2.310 -1.0602 -1.9155  2.3837
 8518TIP3   OH249748   4.599   3.117   1.031  0.1801  0.2772  0.5042
 8518TIP3    H149749   4.663   3.073   0.976 -0.2337  1.0729 -0.6452
 8518TIP3    H249750   4.525   3.134   0.974 -0.7597  0.0457  1.6255
 8519TIP3   OH249751   4.398   2.766   0.570  0.1070  0.0472  0.2467
 8519TIP3    H149752   4.485   2.788   0.605 -0.6479 -1.0228  3.1031
 8519TIP3    H249753   4.345   2.844   0.588  0.2905  0.4547 -0.9089
 8520TIP3   OH249754   6.601   4.010   0.474 -0.2084 -0.1970  0.3485
 8520TIP3    H149755   6.579   3.929   0.520  0.9080 -1.7119 -1.6537
 8520TIP3    H249756   6.523   4.029   0.422 -0.0811 -0.5992  0.0046
 8521TIP3   OH249757   5.858   5.976   1.484 -0.2654  0.4510  0.2299
 8521TIP3    H149758   5.896   5.975   1.396  1.1385  0.2836  0.8193
 8521TIP3    H249759   5.850   6.069   1.506  1.1584  0.4843  0.6564
 8522TIP3   OH249760   0.762   7.247   1.782  0.1499 -0.0033 -0.1847
 8522TIP3    H149761   0.830   7.305   1.750  1.7272 -0.9255  1.3088
 8522TIP3    H249762   0.801   7.160   1.780 -1.7975 -0.9127 -1.3899
 8523TIP3   OH249763   2.425   0.091   0.829  0.3454  1.2513  0.5873
 8523TIP3    H149764   2.375   0.111   0.750  0.8184  2.1168  0.4915
 8523TIP3    H249765   2.439   0.176   0.871 -0.5775  0.7263  2.0305
 8524TIP3   OH249766   5.809   2.761   0.746 -0.1808  0.4290 -0.0688
 8524TIP3    H149767   5.869   2.731   0.678 -0.6397 -1.5330  0.3442
 8524TIP3    H249768   5.754   2.685   0.765 -0.5569  1.1557  1.9719
 8525TIP3   OH249769   2.520   3.922   0.760  0.5182 -0.3299  0.1040
 8525TIP3    H149770   2.467   4.000   0.777 -0.1331 -0.2969 -1.8474
 8525TIP3    H249771   2.568   3.942   0.680  1.3414 -1.4465  0.2915
 8526TIP3   OH249772   2.750   5.834   0.985  0.6360 -0.1694 -0.2026
 8526TIP3    H149773   2.728   5.744   1.011  2.4189 -0.3944  0.6913
 8526TIP3    H249774   2.735   5.886   1.064  0.2479  0.2117 -0.5228
 8527TIP3   OH249775   1.631   2.228   1.351 -0.4322  0.3522 -1.0828
 8527TIP3    H149776   1.601   2.230   1.260 -0.2526  0.5708 -1.1396
 8527TIP3    H249777   1.558   2.190   1.400 -0.7567  0.7710 -1.2335
 8528TIP3   OH249778   6.319   3.010   2.127  0.1598  0.2020  0.0988
 8528TIP3    H149779   6.226   3.030   2.120  0.2533  0.5848 -0.0550
 8528TIP3    H249780   6.324   2.946   2.198 -0.2713 -0.1782 -0.2007
 8529TIP3   OH249781   5.912   2.376   0.381  0.5749  0.2224  0.0164
 8529TIP3    H149782   5.862   2.299   0.410  1.2369 -0.3275 -0.2824
 8529TIP3    H249783   5.856   2.450   0.403 -0.8591 -0.4281 -1.2808
 8530TIP3   OH249784   6.378   2.586   1.648 -0.0061  0.2628 -0.0340
 8530TIP3    H149785   6.449   2.523   1.634 -2.1237 -2.2289 -0.2021
 8530TIP3    H249786   6.314   2.539   1.700 -1.4727  2.5083  0.3020
 8531TIP3   OH249787   3.875   4.488   1.762  0.0662  0.1478  0.2479
 8531TIP3    H149788   3.816   4.532   1.700 -0.7627  1.1082  1.6667
 8531TIP3    H249789   3.871   4.396   1.736 -0.2883  0.5127 -1.0896
 8532TIP3   OH249790   2.746   4.289   2.146 -0.5959 -0.2381  0.0185
 8532TIP3    H149791   2.746   4.323   2.236 -1.3018 -1.5659  0.5401
 8532TIP3    H249792   2.662   4.244   2.137 -0.8390  0.4622 -1.5528
 8533TIP3   OH249793   1.235   1.261   2.544  0.2922 -0.2536  0.4013
 8533TIP3    H149794   1.200   1.177   2.513  0.4616  0.1422 -0.9190
 8533TIP3    H249795   1.213   1.323   2.475 -0.1351  0.8869  1.5206
 8534TIP3   OH249796   0.756   0.367   0.562  0.3411  0.0230  0.3784
 8534TIP3    H149797   0.696   0.406   0.625 -0.1497 -0.0087 -0.0572
 8534TIP3    H249798   0.835   0.346   0.612  0.7184  1.7927  0.5745
 8535TIP3   OH249799   5.921   0.054   1.885 -0.2889  0.5845 -0.0669
 8535TIP3    H149800   5.876  -0.026   1.909 -0.5933  1.2326  1.6987
 8535TIP3    H249801   5.992   0.062   1.950 -0.0377  1.5372 -0.4347
 8536TIP3   OH249802   1.407   5.937   2.387  0.5089 -0.1877  0.2122
 8536TIP3    H149803   1.396   5.843   2.406 -0.9328  0.0017  0.3634
 8536TIP3    H249804   1.357   5.952   2.307 -1.0048  0.8407  1.2933
 8537TIP3   OH249805   2.489   6.481   0.604 -0.0494 -0.8865 -0.2023
 8537TIP3    H149806   2.572   6.454   0.644 -0.4085 -0.7297  0.6899
 8537TIP3    H249807   2.448   6.400   0.575  0.2621 -0.9964 -0.3392
 8538TIP3   OH249808   1.389   7.284   2.220 -0.7156 -0.2164  0.2139
 8538TIP3    H149809   1.309   7.288   2.167 -0.6826  1.6840  0.2565
 8538TIP3    H249810   1.460   7.280   2.155 -0.7772 -0.3057  0.1515
 8539TIP3   OH249811   3.662   5.474   1.199 -0.0290 -0.4698 -0.3903
 8539TIP3    H149812   3.694   5.518   1.120  1.3718 -0.4310  0.1578
 8539TIP3    H249813   3.711   5.392   1.202  0.1355 -0.3471  0.5705
 8540TIP3   OH249814   4.102   1.621   2.081 -0.5419  0.0306  0.2915
 8540TIP3    H149815   4.115   1.565   2.004 -1.7076  0.1188  0.0184
 8540TIP3    H249816   4.149   1.702   2.060  0.0238 -0.3382  0.1229
 8541TIP3   OH249817   0.098   5.433   2.879  0.0665 -0.5898  0.1033
 8541TIP3    H149818   0.135   5.464   2.796 -0.3620 -0.8613 -0.1957
 8541TIP3    H249819   0.005   5.459   2.874  0.3723  0.8228  1.1985
 8542TIP3   OH249820   0.246   6.363   0.772  0.1961 -0.1632  0.1286
 8542TIP3    H149821   0.291   6.439   0.736  0.8638 -0.5653  0.0838
 8542TIP3    H249822   0.164   6.358   0.723  0.2571  0.3824 -0.0359
 8543TIP3   OH249823   1.790   3.251   0.660  0.0905  0.0982  0.0757
 8543TIP3    H149824   1.803   3.277   0.569  0.3297 -0.5190 -0.0652
 8543TIP3    H249825   1.703   3.285   0.682  1.4997  3.7022  0.8294
 8544TIP3   OH249826   4.701   1.745   2.357 -0.2603  0.0952  0.1997
 8544TIP3    H149827   4.704   1.838   2.336 -0.3309  0.0412 -0.0610
 8544TIP3    H249828   4.609   1.728   2.379 -0.3158  0.0178 -0.0883
 8545TIP3   OH249829   3.078   7.033   1.988 -0.3637 -0.5896 -0.3372
 8545TIP3    H149830   2.995   7.081   1.985 -0.9289 -1.5668 -0.6959
 8545TIP3    H249831   3.056   6.946   1.956  0.7398 -0.9613 -0.1061
 8546TIP3   OH249832   4.853   2.766   1.437  0.0908 -0.3394 -0.3031
 8546TIP3    H149833   4.870   2.696   1.499 -1.3488 -1.0926 -0.7055
 8546TIP3    H249834   4.805   2.724   1.365 -1.2425  1.1152 -0.3308
 8547TIP3   OH249835   5.290   1.914   2.488 -0.2258 -0.3121 -0.1934
 8547TIP3    H149836   5.243   1.996   2.507  0.6798  0.0023  0.7849
 8547TIP3    H249837   5.230   1.865   2.432  0.1068  1.9849 -2.8154
 8548TIP3   OH249838   3.105   3.449   3.514  0.0026  0.1969 -0.3316
 8548TIP3    H149839   3.056   3.486   3.440 -1.9979 -1.2060  0.1925
 8548TIP3    H249840   3.164   3.519   3.542 -0.8594  1.5686 -1.7893
 8549TIP3   OH249841   4.073   5.284   1.871  0.5291  0.3498 -0.7797
 8549TIP3    H149842   3.984   5.320   1.881  0.5607  0.6316 -1.4109
 8549TIP3    H249843   4.074   5.250   1.781  1.3131  1.0764 -1.0610
 8550TIP3   OH249844   5.910   7.330   7.293  0.2984  0.0617  0.0707
 8550TIP3    H149845   5.993   7.343   7.338  0.0802 -0.9374  0.7855
 8550TIP3    H249846   5.912   7.392   7.220  0.8184  1.4420  1.2197
 8551TIP3   OH249847   3.875   2.626   1.813  0.2242 -0.1199  0.0377
 8551TIP3    H149848   3.917   2.693   1.759  0.8975  0.2580  1.0040
 8551TIP3    H249849   3.853   2.671   1.894  0.9805 -1.1402  0.8311
 8552TIP3   OH249850   2.834   4.181   0.884 -0.0514  0.2726  0.1182
 8552TIP3    H149851   2.859   4.131   0.806 -2.0371 -0.9015  0.1570
 8552TIP3    H249852   2.790   4.259   0.850  0.7522  0.7112  0.0700
 8553TIP3   OH249853   5.442   4.320   2.429 -0.1424 -0.5364  0.1505
 8553TIP3    H149854   5.516   4.260   2.423  0.9026  0.6261  0.7138
 8553TIP3    H249855   5.460   4.371   2.509 -0.7768  0.7406 -0.4885
 8554TIP3   OH249856   1.256   5.229   0.590 -0.0744 -0.3914  0.0785
 8554TIP3    H149857   1.175   5.234   0.539  0.0330  0.9779 -0.0107
 8554TIP3    H249858   1.290   5.319   0.590 -0.2071 -0.2535  2.7740
 8555TIP3   OH249859   4.221   5.159   2.069 -1.1571  0.1373 -0.4043
 8555TIP3    H149860   4.294   5.215   2.040  0.1816 -1.2933  0.0446
 8555TIP3    H249861   4.158   5.163   1.997  1.0459 -1.4846 -2.6275
 8556TIP3   OH249862   6.786   5.400   1.404  0.1837 -0.4238 -0.1209
 8556TIP3    H149863   6.869   5.352   1.404  0.2315 -0.3576  0.6648
 8556TIP3    H249864   6.771   5.421   1.312 -0.1486 -2.4855 -0.6051
 8557TIP3   OH249865   3.312   1.241   2.045 -0.0204 -0.1535 -0.1294
 8557TIP3    H149866   3.288   1.188   1.968 -0.5406  1.2449 -0.9578
 8557TIP3    H249867   3.383   1.192   2.086  1.3568 -0.1822 -2.3911
 8558TIP3   OH249868   3.926   3.127   2.007  0.3618 -0.3320  0.1867
 8558TIP3    H149869   3.938   3.215   2.042 -0.7852 -0.0063 -0.1711
 8558TIP3    H249870   3.885   3.141   1.921 -1.6795 -1.2374  0.9448
 8559TIP3   OH249871   0.942   1.517   1.365 -0.2274 -0.2217  0.5232
 8559TIP3    H149872   0.930   1.568   1.446  2.0737 -1.1546  1.5467
 8559TIP3    H249873   0.910   1.430   1.386  1.8277 -0.9123  1.0634
 8560TIP3   OH249874   5.930   7.334   2.319  0.6441 -0.3194 -1.0029
 8560TIP3    H149875   6.013   7.380   2.311  0.5057  0.1882  0.1972
 8560TIP3    H249876   5.938   7.282   2.399 -0.4362  0.3198 -0.4463
 8561TIP3   OH249877   2.977   0.373   1.655 -0.0997 -0.2058  0.0437
 8561TIP3    H149878   3.054   0.419   1.623 -0.3315  0.2525  0.1393
 8561TIP3    H249879   2.973   0.393   1.749 -1.1145  0.9275 -0.2141
 8562TIP3   OH249880   7.436   4.681   7.679  0.3236  0.7363  0.3009
 8562TIP3    H149881   7.355   4.721   7.647  0.0762 -2.0351 -3.1368
 8562TIP3    H249882   7.437   4.593   7.640  4.5062  0.2484  1.0078
 8563TIP3   OH249883   5.537   4.216   0.659 -0.2459  0.2933 -0.6340
 8563TIP3    H149884   5.539   4.199   0.564  0.4258 -1.2621 -0.3628
 8563TIP3    H249885   5.519   4.131   0.698 -1.7521  1.1513  0.6088
 8564TIP3   OH249886   2.846   3.577   1.006 -0.0980 -0.5912 -0.2599
 8564TIP3    H149887   2.753   3.592   0.992 -0.6460 -2.0472  1.5050
 8564TIP3    H249888   2.866   3.498   0.955 -0.4403 -1.7107  1.2775
 8565TIP3   OH249889   4.740   5.673   0.357  0.2509 -0.6414  0.3284
 8565TIP3    H149890   4.770   5.627   0.436  1.7795 -0.1102  0.0940
 8565TIP3    H249891   4.686   5.608   0.312  1.1318 -1.7223  0.7495
 8566TIP3   OH249892   0.642   3.184   2.660  0.3932 -0.6929 -0.1957
 8566TIP3    H149893   0.649   3.279   2.660  0.7185 -0.6574 -2.1975
 8566TIP3    H249894   0.685   3.156   2.741  1.5922  0.8010 -0.2671
 8567TIP3   OH249895   2.214   1.501   2.523  0.1637 -0.3537 -0.2648
 8567TIP3    H149896   2.125   1.512   2.557  0.8922  1.0725  1.2897
 8567TIP3    H249897   2.208   1.528   2.432 -0.6038  1.7747  0.3589
 8568TIP3   OH249898   0.181   1.868   0.605 -0.1115 -0.1215 -0.2988
 8568TIP3    H149899   0.152   1.957   0.624  0.9886  0.2932 -0.5273
 8568TIP3    H249900   0.105   1.814   0.626 -1.0574  0.9352 -0.8973
 8569TIP3   OH249901   5.546   7.515   2.239  0.4913 -0.0526  0.1585
 8569TIP3    H149902   5.470   7.476   2.282  0.3687 -1.0003 -0.8508
 8569TIP3    H249903   5.585   7.442   2.190  2.6086  0.2006  1.3884
 8570TIP3   OH249904   6.020   0.557   2.513 -0.2115  0.0797  0.1861
 8570TIP3    H149905   5.948   0.519   2.562 -0.8025  0.9111 -0.0144
 8570TIP3    H249906   6.065   0.614   2.576  0.2849 -0.4355  0.3116
 8571TIP3   OH249907   4.984   6.274   2.529  0.0437  0.1123 -0.0322
 8571TIP3    H149908   5.048   6.229   2.473  0.2064 -0.4619  0.5927
 8571TIP3    H249909   4.998   6.367   2.513  0.5465 -0.0305 -0.4379
 8572TIP3   OH249910   0.058   3.741   2.867 -0.1783 -0.4094  0.6052
 8572TIP3    H149911   0.004   3.796   2.809 -0.6041 -1.0280  0.4070
 8572TIP3    H249912   0.137   3.793   2.882 -0.3823  0.0727  0.0613
 8573TIP3   OH249913   2.369   0.996   0.943 -0.8944  0.8079  0.2868
 8573TIP3    H149914   2.451   0.950   0.964 -1.7472 -0.9669 -0.1355
 8573TIP3    H249915   2.398   1.084   0.918  1.0136 -0.0477 -0.8174
 8574TIP3   OH249916   5.673   3.479   0.474 -0.0284  0.2594 -0.1758
 8574TIP3    H149917   5.595   3.535   0.477  0.0777  0.4077 -0.1765
 8574TIP3    H249918   5.651   3.411   0.410 -0.2877  0.1035  0.0762
 8575TIP3   OH249919   3.367   7.476   1.446  0.3243  0.5212 -0.5525
 8575TIP3    H149920   3.284   7.445   1.412  1.3311 -3.0392 -0.2049
 8575TIP3    H249921   3.422   7.490   1.369 -0.0773  1.2835 -0.7079
 8576TIP3   OH249922   0.915   6.649   0.838  0.3523 -0.2763  0.5592
 8576TIP3    H149923   0.851   6.689   0.779 -0.0051 -3.2502 -1.2904
 8576TIP3    H249924   0.999   6.659   0.794  0.0212 -2.9299 -0.8799
 8577TIP3   OH249925   0.177   0.016   3.049  0.1685 -0.5436  0.3638
 8577TIP3    H149926   0.194  -0.041   3.124  2.1032 -1.1631 -0.5063
 8577TIP3    H249927   0.212   0.101   3.075  0.4269 -0.6394  0.3246
 8578TIP3   OH249928   2.904   7.564   0.990  0.0079  0.7678 -0.5420
 8578TIP3    H149929   2.840   7.609   1.045 -0.1333 -0.5760  0.4662
 8578TIP3    H249930   2.866   7.565   0.903 -0.4434  1.7167 -0.3419
 8579TIP3   OH249931   3.310   1.879   1.287  0.0629 -0.8156 -0.2918
 8579TIP3    H149932   3.385   1.936   1.273 -1.1903  1.2201  0.7419
 8579TIP3    H249933   3.306   1.867   1.382 -2.6050  1.7377  0.0623
 8580TIP3   OH249934   0.880   4.635   1.746 -0.2165 -0.3356  0.6819
 8580TIP3    H149935   0.788   4.639   1.771 -0.3513 -0.5788  0.2411
 8580TIP3    H249936   0.906   4.726   1.735 -0.2759 -0.2441  1.2502
 8581TIP3   OH249937   2.664   3.744   3.152  0.7758  0.4243 -0.6003
 8581TIP3    H149938   2.588   3.799   3.169  0.5129  0.0002 -0.4074
 8581TIP3    H249939   2.739   3.801   3.170  0.5078  0.7729 -0.5742
 8582TIP3   OH249940   2.622   5.082   3.015 -0.0166 -0.3668  0.3671
 8582TIP3    H149941   2.663   5.167   3.033  0.4498 -0.6000  0.4344
 8582TIP3    H249942   2.553   5.101   2.951 -0.3221  0.1521  0.8473
 8583TIP3   OH249943   1.454   5.128   2.322  0.2702 -0.4333  0.0611
 8583TIP3    H149944   1.361   5.147   2.323  0.3862  0.1306  0.6936
 8583TIP3    H249945   1.464   5.059   2.255 -0.2641  1.1813 -1.7795
 8584TIP3   OH249946   5.411   1.405   0.415 -0.3562  0.2022  0.0234
 8584TIP3    H149947   5.481   1.341   0.431 -0.5789 -0.1530 -0.3925
 8584TIP3    H249948   5.456   1.480   0.377 -0.2653 -0.2776 -0.8697
 8585TIP3   OH249949   4.260   0.769   2.708 -0.0436 -0.0699  0.3160
 8585TIP3    H149950   4.187   0.818   2.747 -1.4720  0.0794 -2.3127
 8585TIP3    H249951   4.295   0.717   2.781 -3.0883 -0.5358  1.6277
 8586TIP3   OH249952   6.482   3.575   0.823  0.2423  0.1927 -0.0848
 8586TIP3    H149953   6.438   3.598   0.905 -1.4706 -1.3135 -0.5135
 8586TIP3    H249954   6.572   3.556   0.849  0.3725  2.0915  1.0416
 8587TIP3   OH249955   5.547   6.811   2.117 -0.1601 -0.3692  0.1913
 8587TIP3    H149956   5.478   6.774   2.171  0.3175 -1.2426  0.2238
 8587TIP3    H249957   5.626   6.808   2.172  0.3088 -1.1764 -0.5037
 8588TIP3   OH249958   2.433   3.717   2.129  0.1224 -0.5302 -0.2195
 8588TIP3    H149959   2.417   3.629   2.095  3.1874 -1.7117  1.0999
 8588TIP3    H249960   2.400   3.715   2.218  0.9063 -0.6422  0.0784
 8589TIP3   OH249961   2.179   2.682   0.678  0.6708  0.6117  0.1776
 8589TIP3    H149962   2.185   2.728   0.594 -1.4438  0.2028 -0.2495
 8589TIP3    H249963   2.207   2.592   0.659 -2.5309 -0.2939 -0.8868
 8590TIP3   OH249964   4.663   0.543   3.295 -0.2212  0.4110 -0.5031
 8590TIP3    H149965   4.750   0.582   3.296  0.1947 -0.5067  0.0082
 8590TIP3    H249966   4.623   0.575   3.214  0.7657  0.4509 -0.9839
 8591TIP3   OH249967   3.072   1.655   1.463 -0.3916  0.7126 -0.5107
 8591TIP3    H149968   3.024   1.586   1.508 -0.4272  0.5606 -0.7797
 8591TIP3    H249969   3.163   1.641   1.487 -0.3221  0.1741 -1.0910
 8592TIP3   OH249970   3.989   3.294   0.470  0.4588  0.2374  0.3929
 8592TIP3    H149971   3.923   3.260   0.530 -0.9675 -2.4077 -2.4056
 8592TIP3    H249972   4.071   3.256   0.500 -0.2206 -1.0740  0.6525
 8593TIP3   OH249973   6.481   0.183   0.566  0.5583  0.0717  0.3260
 8593TIP3    H149974   6.512   0.101   0.604 -0.4380 -0.6792 -0.4335
 8593TIP3    H249975   6.410   0.158   0.507  0.1367  1.4929  0.1719
 8594TIP3   OH249976   1.603   7.254   2.023 -0.1898  0.9161  0.0197
 8594TIP3    H149977   1.655   7.333   2.039  0.9620  0.5125 -1.4114
 8594TIP3    H249978   1.662   7.182   2.045  0.7321  0.3979 -3.5307
 8595TIP3   OH249979   2.795   0.992   1.722 -0.1213 -0.2105  0.5830
 8595TIP3    H149980   2.719   0.949   1.761  1.0651 -1.4276  1.6458
 8595TIP3    H249981   2.826   1.051   1.791 -0.3216  0.5911  0.0005
 8596TIP3   OH249982   5.213   0.590   2.628 -0.6816 -0.1761 -0.5612
 8596TIP3    H149983   5.236   0.565   2.718  0.3812 -0.4991 -0.9140
 8596TIP3    H249984   5.260   0.673   2.614  0.4028 -0.9006 -1.3328
 8597TIP3   OH249985   0.725   0.344   2.320 -0.3170  0.1072  0.7637
 8597TIP3    H149986   0.684   0.426   2.349 -1.1184  0.1337 -0.4052
 8597TIP3    H249987   0.798   0.332   2.381 -0.7400  1.2021  1.5311
 8598TIP3   OH249988   2.261   6.219   0.663  0.0228  0.0128 -0.1998
 8598TIP3    H149989   2.341   6.197   0.710 -0.9182  0.8165  1.9190
 8598TIP3    H249990   2.191   6.201   0.725 -1.4247 -0.1908 -1.8129
 8599TIP3   OH249991   3.769   4.250   0.668  0.5528 -0.5362 -0.0457
 8599TIP3    H149992   3.687   4.249   0.620  0.4910 -0.7186  0.0640
 8599TIP3    H249993   3.811   4.332   0.642  0.5206 -0.6366 -0.4119
 8600TIP3   OH249994   0.470   1.865   2.796  0.6145 -0.1205  0.0936
 8600TIP3    H149995   0.405   1.801   2.766  0.9392  0.1996 -1.3714
 8600TIP3    H249996   0.526   1.815   2.855 -0.6107 -0.5406  0.9475
 8601TIP3   OH249997   6.427   3.779   2.478  0.3756  0.7105 -0.3390
 8601TIP3    H149998   6.433   3.739   2.391 -0.1269 -0.4470  0.1290
 8601TIP3    H249999   6.358   3.845   2.470  0.9962  1.2820 -1.0553
 8602TIP3   OH250000   2.784   6.935   2.957  0.1521  0.2565 -0.2722
 8602TIP3    H150001   2.716   6.987   3.001  0.3867  0.3250  0.0179
 8602TIP3    H250002   2.847   6.916   3.027  1.6068  2.1366 -0.9926
 8603TIP3   OH250003   0.383   2.623   2.376 -0.5306  0.1455  0.2550
 8603TIP3    H150004   0.430   2.673   2.309 -0.5271  0.6672  0.6408
 8603TIP3    H250005   0.398   2.532   2.352 -1.1782  0.3278 -0.8964
 8604TIP3   OH250006   0.817   7.398   2.870  0.4913 -0.3122  0.6966
 8604TIP3    H150007   0.731   7.368   2.898  0.9254 -1.3546  0.9402
 8604TIP3    H250008   0.841   7.341   2.797  0.8395  0.1816  0.4108
 8605TIP3   OH250009   2.280   3.709   1.041 -0.1776  0.2720  0.5111
 8605TIP3    H150010   2.258   3.737   0.952 -0.1288 -1.4223 -0.0679
 8605TIP3    H250011   2.253   3.617   1.045  0.6298  0.0629  1.9583
 8606TIP3   OH250012   6.754   2.946   2.646  0.1571 -0.2065 -0.0223
 8606TIP3    H150013   6.755   2.994   2.563 -0.7930 -1.6139 -0.9000
 8606TIP3    H250014   6.662   2.948   2.674  0.2681 -0.6859  0.4062
 8607TIP3   OH250015   0.755   6.407   0.891 -0.2130  0.1835  0.4279
 8607TIP3    H150016   0.799   6.488   0.869  1.5482  0.2145  3.5162
 8607TIP3    H250017   0.663   6.431   0.902 -0.3112  1.0232 -1.7914
 8608TIP3   OH250018   1.315   5.769   1.740  0.0598  0.3178  0.3143
 8608TIP3    H150019   1.336   5.824   1.664  0.4850 -2.5238 -1.7689
 8608TIP3    H250020   1.231   5.804   1.772  0.9603  3.0004  0.0275
 8609TIP3   OH250021   2.611   2.408   1.035 -0.8828  0.2336  0.2923
 8609TIP3    H150022   2.544   2.339   1.043 -0.9780  0.2461 -0.3719
 8609TIP3    H250023   2.577   2.480   1.088 -1.2414  0.1145  0.2305
 8610TIP3   OH250024   4.079   1.410   3.343 -0.3434 -0.5003 -0.2438
 8610TIP3    H150025   3.998   1.393   3.296 -0.2904 -0.8741 -0.1998
 8610TIP3    H250026   4.117   1.486   3.298 -0.9664  0.0058  0.0590
 8611TIP3   OH250027   7.545   4.649   1.890  0.2954 -0.3162 -0.3418
 8611TIP3    H150028   7.545   4.553   1.885  1.3870 -0.2986 -1.1558
 8611TIP3    H250029   7.506   4.668   1.975 -0.0688 -1.4812 -0.2227
 8612TIP3   OH250030   6.823   0.070   1.118  0.0219 -0.2351  0.3863
 8612TIP3    H150031   6.804  -0.020   1.145  0.3910 -0.3528  0.2615
 8612TIP3    H250032   6.914   0.067   1.088  0.2647  0.3344  1.0548
 8613TIP3   OH250033   6.949   3.282   0.735  0.6763  0.0655 -0.3464
 8613TIP3    H150034   6.995   3.295   0.652 -0.9297 -1.0559 -1.4815
 8613TIP3    H250035   7.017   3.292   0.802  1.9188  1.5678 -1.7271
 8614TIP3   OH250036   7.297   3.822   2.311 -0.5202 -0.1899  0.1948
 8614TIP3    H150037   7.277   3.760   2.381 -0.0457 -1.2619 -0.5903
 8614TIP3    H250038   7.211   3.845   2.275 -0.7951  0.6463  1.3350
 8615TIP3   OH250039   7.510   2.445   2.819  0.3732  0.3403  0.1296
 8615TIP3    H150040   7.422   2.436   2.783  1.0134 -1.1770 -1.1765
 8615TIP3    H250041   7.520   2.539   2.833 -0.8963  0.7045 -1.1517
 8616TIP3   OH250042   2.480   6.840   3.191 -0.1574 -0.0043 -0.1933
 8616TIP3    H150043   2.386   6.847   3.204 -0.3414 -0.3451 -1.2517
 8616TIP3    H250044   2.500   6.747   3.208 -0.2133 -0.1951 -1.1281
 8617TIP3   OH250045   0.922   7.035   1.801  0.0823  0.0665  0.2138
 8617TIP3    H150046   0.884   6.980   1.869  0.3685 -0.0399  0.2903
 8617TIP3    H250047   1.013   7.048   1.829  0.1415  0.1986 -0.0377
 8618TIP3   OH250048   1.156   3.855   0.788  0.1781 -0.3797  0.6038
 8618TIP3    H150049   1.097   3.914   0.741 -1.1555 -0.4666  2.0603
 8618TIP3    H250050   1.126   3.860   0.879  1.4687 -1.6093  1.1305
 8619TIP3   OH250051   5.765   5.961   2.218  0.6534  0.0545 -0.2282
 8619TIP3    H150052   5.671   5.972   2.231  0.8252  1.7172 -0.1810
 8619TIP3    H250053   5.787   5.882   2.266 -0.4126  0.6447  1.3048
 8620TIP3   OH250054   3.719   1.569   0.699  0.3738  0.0528  0.3339
 8620TIP3    H150055   3.629   1.596   0.718  0.2249 -1.2747  1.7157
 8620TIP3    H250056   3.751   1.532   0.782  1.9483 -0.1762 -0.3341
 8621TIP3   OH250057   6.424   0.853   3.409 -0.2334 -0.7150 -0.2977
 8621TIP3    H150058   6.410   0.870   3.316 -0.0347 -2.2271 -0.6266
 8621TIP3    H250059   6.341   0.877   3.451 -0.2906  0.0623 -0.8349
 8622TIP3   OH250060   4.042   5.568   2.304  0.2336  0.0548 -0.0925
 8622TIP3    H150061   4.133   5.595   2.319  0.6012 -1.0889 -0.1999
 8622TIP3    H250062   4.040   5.477   2.330 -1.2545  0.4573  1.3070
 8623TIP3   OH250063   7.539   6.617   1.971  0.1852  0.2012 -0.5200
 8623TIP3    H150064   7.556   6.696   2.023  2.0275  0.2486 -1.0960
 8623TIP3    H250065   7.514   6.551   2.036 -1.4450  1.2492 -0.0350
 8624TIP3   OH250066   2.089   3.284   2.207  0.0242  0.1726 -0.3754
 8624TIP3    H150067   2.048   3.219   2.149 -0.6682  0.4540 -0.2133
 8624TIP3    H250068   2.048   3.367   2.183  0.2206  0.4009  0.0594
 8625TIP3   OH250069   7.547   4.968   3.187  0.6110 -0.1746  0.6437
 8625TIP3    H150070   7.618   4.923   3.233  1.0047 -0.7502 -0.4745
 8625TIP3    H250071   7.487   4.898   3.160  0.1321  0.2014  0.7175
 8626TIP3   OH250072   6.641   7.504   1.998 -0.2122 -0.3674 -0.6240
 8626TIP3    H150073   6.681   7.575   1.948 -1.2036  0.1239 -0.7590
 8626TIP3    H250074   6.641   7.536   2.089 -0.0634 -0.4771 -0.5852
 8627TIP3   OH250075   4.512   0.569   1.303 -0.0527  0.6824  0.4561
 8627TIP3    H150076   4.498   0.602   1.392 -1.9803 -1.8043  1.1767
 8627TIP3    H250077   4.588   0.511   1.312  1.0849  2.0156 -0.0556
 8628TIP3   OH250078   1.974   5.855   2.939 -0.0658 -0.1437 -0.5925
 8628TIP3    H150079   2.043   5.800   2.902 -0.8435 -1.4121 -0.2252
 8628TIP3    H250080   1.999   5.865   3.031  0.7153  1.1798 -0.9198
 8629TIP3   OH250081   6.943   5.088   1.692  0.0586  0.3423  0.3777
 8629TIP3    H150082   6.943   5.179   1.722  0.8141  0.4955 -0.0682
 8629TIP3    H250083   7.029   5.055   1.715 -0.3250 -0.3764  0.8428
 8630TIP3   OH250084   1.305   5.927   0.362 -0.1046 -0.6183  0.8870
 8630TIP3    H150085   1.348   5.919   0.276 -0.8944  3.4310 -0.0687
 8630TIP3    H250086   1.362   5.879   0.421  2.5417 -0.4098 -1.2864
 8631TIP3   OH250087   2.028   5.130   3.360 -0.3006 -0.2219  0.7042
 8631TIP3    H150088   1.941   5.123   3.320 -0.1717 -2.5559  0.6949
 8631TIP3    H250089   2.046   5.042   3.394  1.7048  0.4266  1.4689
 8632TIP3   OH250090   5.673   7.282   2.141 -0.1031  0.5126  0.3106
 8632TIP3    H150091   5.705   7.243   2.222 -0.8903  1.4549  1.1054
 8632TIP3    H250092   5.656   7.207   2.083  0.3302 -0.1787  1.0560
 8633TIP3   OH250093   0.959   3.209   3.289 -0.0268  0.0961  0.0007
 8633TIP3    H150094   0.959   3.114   3.304 -0.9650  0.2140  0.8933
 8633TIP3    H250095   0.885   3.241   3.342 -0.7032  1.1293 -1.5011
 8634TIP3   OH250096   4.124   5.652   1.885  0.2344 -0.4250 -0.2981
 8634TIP3    H150097   4.132   5.684   1.796  0.2278 -1.0112 -0.5132
 8634TIP3    H250098   4.032   5.630   1.895  0.2878 -0.6276 -0.2421
 8635TIP3   OH250099   6.262   0.961   1.078  0.2661  0.3016  0.0534
 8635TIP3    H150100   6.206   0.963   1.156  0.6248  0.7896  0.3026
 8635TIP3    H250101   6.251   1.046   1.038  0.5365  0.2628 -0.1048
 8636TIP3   OH250102   0.280   6.168   0.469 -0.1374 -0.2240 -0.5535
 8636TIP3    H150103   0.376   6.164   0.470 -0.1112 -0.0051  1.6460
 8636TIP3    H250104   0.252   6.085   0.508 -0.8437 -0.1368 -0.8587
 8637TIP3   OH250105   7.222   0.573   1.531 -0.1958  0.0109 -0.2550
 8637TIP3    H150106   7.277   0.570   1.610 -1.2475 -1.6925  0.4759
 8637TIP3    H250107   7.151   0.512   1.549 -1.3593  0.8007 -1.9034
 8638TIP3   OH250108   6.296   2.819   2.783  0.2025  0.3458 -0.1851
 8638TIP3    H150109   6.351   2.787   2.855 -0.6527 -0.4809  0.1168
 8638TIP3    H250110   6.243   2.743   2.759  0.5670  0.5741 -1.7842
 8639TIP3   OH250111   2.528   4.267   0.581  0.5092 -0.4616  0.9167
 8639TIP3    H150112   2.532   4.195   0.517  0.1397 -0.8935  1.3712
 8639TIP3    H250113   2.440   4.261   0.618  0.4096  0.3457  0.8261
 8640TIP3   OH250114   3.433   6.468   1.988 -0.4115 -0.2977 -0.3185
 8640TIP3    H150115   3.358   6.518   2.022  0.1771  1.0140 -0.8728
 8640TIP3    H250116   3.457   6.411   2.061 -0.4937  0.9528  0.7424
 8641TIP3   OH250117   7.258   6.057   2.487 -0.4636 -0.6146  0.1040
 8641TIP3    H150118   7.343   6.099   2.503 -1.1394  0.3826  1.1509
 8641TIP3    H250119   7.237   6.013   2.569 -0.8405 -1.1090 -0.2525
 8642TIP3   OH250120   5.703   1.921   3.110  0.0104  0.2403  0.3848
 8642TIP3    H150121   5.691   2.005   3.153 -1.5310  0.1860  0.1184
 8642TIP3    H250122   5.667   1.857   3.172 -0.0782 -0.0801  0.0063
 8643TIP3   OH250123   3.982   0.906   1.256  0.0889 -0.4092 -0.0647
 8643TIP3    H150124   3.978   0.848   1.333 -2.6600 -2.6226 -1.6624
 8643TIP3    H250125   4.051   0.868   1.201 -0.3077 -0.9723 -0.1888
 8644TIP3   OH250126   5.093   3.888   1.094 -0.2132 -0.0450  0.9725
 8644TIP3    H150127   5.173   3.913   1.139  1.5206 -1.3068 -1.1849
 8644TIP3    H250128   5.036   3.854   1.163  2.0472 -1.3653  2.3193
 8645TIP3   OH250129   4.725   3.643   0.557 -0.2899 -0.2303  0.1142
 8645TIP3    H150130   4.688   3.597   0.632 -0.9968 -0.5861 -0.4421
 8645TIP3    H250131   4.737   3.574   0.491  0.6632  0.0113  0.0218
 8646TIP3   OH250132   2.557   7.085   1.085  0.1768 -0.4002  0.2836
 8646TIP3    H150133   2.569   7.048   1.173  0.4650  2.6404  1.6309
 8646TIP3    H250134   2.488   7.150   1.096  0.7692  0.5979 -1.5926
 8647TIP3   OH250135   3.090   4.568   0.393  0.4086  0.5858  0.4812
 8647TIP3    H150136   3.069   4.479   0.419  1.3056 -0.3725 -1.8017
 8647TIP3    H250137   3.015   4.596   0.341  1.7386 -0.4216 -2.1801
 8648TIP3   OH250138   1.841   4.135   1.801  0.2427  0.3601 -0.3990
 8648TIP3    H150139   1.839   4.085   1.883 -0.9677 -1.0851 -1.2611
 8648TIP3    H250140   1.808   4.221   1.825 -2.7660 -0.8346  0.1834
 8649TIP3   OH250141   7.497   3.162   1.066 -0.2195  0.3044  0.2679
 8649TIP3    H150142   7.566   3.210   1.112  0.3404  0.2128 -0.4450
 8649TIP3    H250143   7.526   3.070   1.068  0.4606  0.4421 -1.2976
 8650TIP3   OH250144   3.240   0.798   1.521  0.7064 -0.2044  0.4523
 8650TIP3    H150145   3.332   0.817   1.541  0.5376  0.9832  0.1618
 8650TIP3    H250146   3.243   0.751   1.438  1.0250  0.1511  0.2630
 8651TIP3   OH250147   1.347   2.538   0.867 -0.8923  0.6772  0.6075
 8651TIP3    H150148   1.377   2.627   0.850 -1.5928  0.9545  0.7878
 8651TIP3    H250149   1.371   2.521   0.959 -0.9790  0.7670  0.6460
 8652TIP3   OH250150   2.371   5.051   1.598 -0.3316 -0.2777 -0.0076
 8652TIP3    H150151   2.425   5.066   1.675 -0.7125  0.1670  0.1764
 8652TIP3    H250152   2.428   5.004   1.537  0.6205  1.1428 -0.2548
 8653TIP3   OH250153   3.208   5.892   3.194 -0.4664 -0.2535  0.1044
 8653TIP3    H150154   3.284   5.872   3.249 -0.7174 -0.2155  0.4697
 8653TIP3    H250155   3.202   5.987   3.194  0.0146 -0.2183 -0.6550
 8654TIP3   OH250156   3.499   7.046   3.316  0.3242  0.3721 -0.5176
 8654TIP3    H150157   3.527   7.125   3.270  0.0598  0.6870 -0.1400
 8654TIP3    H250158   3.411   7.065   3.347  0.0550 -0.2598 -0.8624
 8655TIP3   OH250159   2.626   5.136   1.790 -0.6209 -0.2623  0.3388
 8655TIP3    H150160   2.621   5.041   1.781  0.3848 -0.3900  0.9192
 8655TIP3    H250161   2.717   5.152   1.816 -0.5487  0.9275 -0.5733
 8656TIP3   OH250162   1.224   2.962   3.166  0.2621 -0.0344  0.2968
 8656TIP3    H150163   1.283   2.906   3.218  0.6968 -1.0697 -1.2518
 8656TIP3    H250164   1.139   2.917   3.171  0.0164  0.4936  1.0449
 8657TIP3   OH250165   3.162   3.655   1.663 -0.3402 -0.3375 -0.3966
 8657TIP3    H150166   3.144   3.650   1.569 -1.3369 -1.7307 -0.1594
 8657TIP3    H250167   3.256   3.670   1.669 -0.3303  0.2011 -1.6108
 8658TIP3   OH250168   0.787   0.106   2.930 -0.3090  0.1475 -0.0536
 8658TIP3    H150169   0.774   0.149   2.846  1.7810  2.3030  0.5882
 8658TIP3    H250170   0.816   0.018   2.908  1.5024  1.0684 -1.7161
 8659TIP3   OH250171   7.463   4.635   0.619  0.2831  0.2130 -0.1606
 8659TIP3    H150172   7.556   4.655   0.608  0.0491  1.4088 -0.1071
 8659TIP3    H250173   7.454   4.546   0.587  1.8053 -0.6590  1.6283
 8660TIP3   OH250174   3.845   6.603   0.481 -0.2425 -0.5073 -0.3733
 8660TIP3    H150175   3.789   6.531   0.451 -2.2078  1.0150 -0.5596
 8660TIP3    H250176   3.792   6.681   0.468  1.3426  0.8636  1.0012
 8661TIP3   OH250177   0.544   5.150   1.073 -0.0639  0.7671  0.3078
 8661TIP3    H150178   0.565   5.243   1.073  2.3893  0.2718 -0.0173
 8661TIP3    H250179   0.560   5.121   1.163 -3.3712  1.0979  1.1143
 8662TIP3   OH250180   0.897   7.463   0.528 -0.5588  0.1604 -0.3982
 8662TIP3    H150181   0.830   7.493   0.466 -0.4765 -0.6706 -0.9094
 8662TIP3    H250182   0.886   7.519   0.605 -0.8719  1.0055 -1.0395
 8663TIP3   OH250183   5.763   6.593   2.151  0.3179  0.0023 -0.4851
 8663TIP3    H150184   5.678   6.550   2.158  0.4710 -0.2987 -0.4589
 8663TIP3    H250185   5.781   6.625   2.240  0.2192  0.0963 -0.4977
 8664TIP3   OH250186   2.707   6.042   1.180 -0.1309 -0.0753  1.1636
 8664TIP3    H150187   2.789   6.007   1.215  0.1809 -2.8223 -1.7516
 8664TIP3    H250188   2.735   6.114   1.123  0.7829 -2.3694 -1.5868
 8665TIP3   OH250189   6.526   6.387   1.498  0.0470  0.3363  0.1285
 8665TIP3    H150190   6.561   6.321   1.558 -0.0311 -0.2542 -0.4668
 8665TIP3    H250191   6.566   6.469   1.527  1.0611 -0.1483  0.1549
 8666TIP3   OH250192   3.780   4.730   0.462  0.4025 -0.1270 -0.0152
 8666TIP3    H150193   3.730   4.661   0.505  0.6343  0.8205  1.9189
 8666TIP3    H250194   3.869   4.695   0.457  0.0408 -0.9198 -1.3748
 8667TIP3   OH250195   6.691   4.901   0.664  0.0901  0.0154  0.0389
 8667TIP3    H150196   6.652   4.815   0.648  0.3696 -0.1726  0.3491
 8667TIP3    H250197   6.694   4.909   0.760 -0.0739  0.4364  0.0127
 8668TIP3   OH250198   7.532   5.113   0.486  0.5730  0.1235  0.2660
 8668TIP3    H150199   7.505   5.077   0.401  3.2694 -0.4659 -0.4293
 8668TIP3    H250200   7.485   5.196   0.493 -0.1400 -0.0832 -1.5483
 8669TIP3   OH250201   3.384   2.575   2.561  0.1946 -0.1250 -0.1170
 8669TIP3    H150202   3.477   2.596   2.573  0.2842 -1.2569  1.5552
 8669TIP3    H250203   3.379   2.541   2.471  1.3706  0.0577 -0.2749
 8670TIP3   OH250204   1.651   3.328   2.597  0.1897 -0.4485  0.4193
 8670TIP3    H150205   1.673   3.367   2.682  1.7450  0.4107 -0.3144
 8670TIP3    H250206   1.557   3.339   2.589 -0.1521 -1.4023  2.4146
 8671TIP3   OH250207   1.783   6.466   2.458 -0.8691 -0.5420  0.0001
 8671TIP3    H150208   1.830   6.432   2.535 -0.7261 -0.3317  0.0062
 8671TIP3    H250209   1.709   6.514   2.494 -0.0725  0.6689  0.0575
 8672TIP3   OH250210   3.436   5.166   2.331 -0.5320 -0.3527 -0.1681
 8672TIP3    H150211   3.411   5.097   2.393  0.8433 -1.1634 -0.4589
 8672TIP3    H250212   3.527   5.187   2.355  0.0313 -0.6648 -1.8516
 8673TIP3   OH250213   3.010   6.562   3.437  0.1089 -0.4492 -0.4660
 8673TIP3    H150214   2.951   6.613   3.492  1.0143  0.6091 -0.4440
 8673TIP3    H250215   3.043   6.625   3.373  0.5471 -1.2300 -1.0196
 8674TIP3   OH250216   0.517   2.137   2.804  0.6087  0.1489 -0.6934
 8674TIP3    H150217   0.432   2.133   2.848  0.7355 -0.2300 -0.4830
 8674TIP3    H250218   0.552   2.048   2.810  0.5983  0.0667 -1.6157
 8675TIP3   OH250219   5.373   6.095   1.234  0.0946  0.3657 -1.0789
 8675TIP3    H150220   5.329   6.010   1.229 -2.4174  1.6088 -1.8649
 8675TIP3    H250221   5.316   6.150   1.287  1.5844  1.6520 -0.7004
 8676TIP3   OH250222   1.952   1.518   0.869 -0.3316 -0.0758  0.0031
 8676TIP3    H150223   1.971   1.576   0.943  0.9920  1.2178 -1.2762
 8676TIP3    H250224   1.857   1.505   0.872 -0.7287  2.4258  0.1904
 8677TIP3   OH250225   5.175   4.505   0.507  0.6697 -0.4156 -0.1100
 8677TIP3    H150226   5.149   4.596   0.494  2.1968 -0.0064 -0.4339
 8677TIP3    H250227   5.166   4.491   0.602 -0.0041 -0.0895 -0.1163
 8678TIP3   OH250228   6.929   4.270   1.628  0.5801  0.3030  0.2513
 8678TIP3    H150229   6.927   4.333   1.700  0.0229  1.4255 -0.7210
 8678TIP3    H250230   7.022   4.247   1.620  0.5693 -0.3891  1.7633
 8679TIP3   OH250231   0.245   2.406   0.631  0.3374 -0.2220 -0.2992
 8679TIP3    H150232   0.260   2.312   0.638 -1.4720 -0.6680 -1.6690
 8679TIP3    H250233   0.150   2.416   0.640  0.3877  1.3619 -1.2115
 8680TIP3   OH250234   6.880   7.166   2.131  0.0753  0.1354  0.4891
 8680TIP3    H150235   6.846   7.104   2.066 -0.1074  0.4125  0.3148
 8680TIP3    H250236   6.803   7.213   2.162  0.1805  0.0981  0.8127
 8681TIP3   OH250237   6.942   5.443   1.139 -0.2350 -0.2766  0.4706
 8681TIP3    H150238   6.988   5.395   1.207  0.1985 -1.5461 -0.6748
 8681TIP3    H250239   6.888   5.377   1.095  0.6972  0.1469 -1.4208
 8682TIP3   OH250240   4.569   4.513   1.029  0.3902  0.1116 -0.5716
 8682TIP3    H150241   4.570   4.609   1.030 -0.7238  0.1306 -0.5823
 8682TIP3    H250242   4.661   4.489   1.041  0.4759  1.1654  1.3378
 8683TIP3   OH250243   6.051   0.857   0.404 -0.3565  0.8900  0.9147
 8683TIP3    H150244   5.972   0.810   0.377 -0.4376  1.5646 -0.0960
 8683TIP3    H250245   6.038   0.874   0.497 -1.3414  0.8462  0.7999
 8684TIP3   OH250246   2.673   0.212   1.452 -0.5368 -0.3139  0.5303
 8684TIP3    H150247   2.679   0.210   1.357  1.5959 -1.4195  0.6330
 8684TIP3    H250248   2.681   0.304   1.475 -1.3439 -0.0100 -0.3625
 8685TIP3   OH250249   3.576   2.244   2.486  0.1071 -0.2938  0.4965
 8685TIP3    H150250   3.505   2.277   2.430  0.2004 -1.2375 -0.2091
 8685TIP3    H250251   3.590   2.314   2.550  0.1029  0.9126 -0.7548
 8686TIP3   OH250252   3.613   5.453   0.545  0.1200 -0.1809  0.5651
 8686TIP3    H150253   3.532   5.505   0.551 -0.6696 -1.4355  1.2171
 8686TIP3    H250254   3.584   5.366   0.520  1.5594 -0.0409 -1.9629
 8687TIP3   OH250255   2.742   4.404   2.413 -0.2436 -0.0241 -0.2115
 8687TIP3    H150256   2.833   4.422   2.393 -0.4514  0.7373 -0.5138
 8687TIP3    H250257   2.745   4.349   2.491  0.4934 -0.7100 -0.7165
 8688TIP3   OH250258   6.497   2.549   2.705  0.5312 -0.4107  0.4488
 8688TIP3    H150259   6.562   2.590   2.649  2.8273 -1.1485  2.4087
 8688TIP3    H250260   6.437   2.505   2.644  1.8095  0.3394 -1.4421
 8689TIP3   OH250261   4.053   4.271   2.207  0.5083 -0.1825  0.1600
 8689TIP3    H150262   4.022   4.197   2.155  4.0555 -1.6313 -0.2115
 8689TIP3    H250263   4.048   4.346   2.148 -0.6329 -0.6492 -0.3734
 8690TIP3   OH250264   4.161   2.853   2.619  0.3499  0.2825 -0.0425
 8690TIP3    H150265   4.139   2.765   2.590 -0.5857  0.7126 -0.7120
 8690TIP3    H250266   4.141   2.853   2.713  1.2753 -0.4784  0.1684
 8691TIP3   OH250267   2.914   0.918   2.283  0.1399 -0.5764 -0.4726
 8691TIP3    H150268   2.870   0.961   2.356  0.5417 -2.0226  0.6838
 8691TIP3    H250269   2.984   0.978   2.257 -1.2676  0.8585 -1.0346
 8692TIP3   OH250270   4.538   5.877   0.963 -0.4888 -0.4533 -0.0358
 8692TIP3    H150271   4.541   5.965   1.001  2.3327  0.4526 -2.0595
 8692TIP3    H250272   4.592   5.824   1.021  1.1402  0.1786 -0.8931
 8693TIP3   OH250273   6.945   4.824   1.909 -0.1598 -0.0860  0.6620
 8693TIP3    H150274   7.027   4.797   1.868 -1.2653  1.0386 -2.6676
 8693TIP3    H250275   6.880   4.761   1.878 -1.3760  1.8382 -1.0252
 8694TIP3   OH250276   5.598   0.858   2.162 -0.4658  0.2130  0.4664
 8694TIP3    H150277   5.517   0.839   2.115 -0.2275 -1.5251  0.7126
 8694TIP3    H250278   5.573   0.863   2.254 -0.2590 -0.6341  0.5751
 8695TIP3   OH250279   1.809   4.525   2.142 -0.0015 -0.2772 -0.2356
 8695TIP3    H150280   1.869   4.496   2.211 -0.8582 -0.4157  0.4743
 8695TIP3    H250281   1.834   4.474   2.065  0.6198 -0.5197  0.1215
 8696TIP3   OH250282   3.516   4.363   1.568  1.2487  0.4169  0.2802
 8696TIP3    H150283   3.469   4.281   1.553  0.1143  0.7897  1.6106
 8696TIP3    H250284   3.545   4.358   1.659 -0.8121  2.3784  1.1601
 8697TIP3   OH250285   0.825   5.799   0.915 -0.6011  0.5509 -0.5815
 8697TIP3    H150286   0.765   5.872   0.927 -0.5331  0.5071  0.0897
 8697TIP3    H250287   0.911   5.835   0.937 -0.5560  0.2964 -0.3282
 8698TIP3   OH250288   6.358   1.667   1.022 -0.4904  0.3656  0.1646
 8698TIP3    H150289   6.294   1.597   1.012 -0.3167  0.1477  0.5379
 8698TIP3    H250290   6.408   1.665   0.940 -0.7890  0.3614 -0.0171
 8699TIP3   OH250291   6.266   0.505   1.486 -0.4658 -0.3453 -0.0296
 8699TIP3    H150292   6.277   0.519   1.392  1.6299  1.5042  0.4083
 8699TIP3    H250293   6.227   0.586   1.518  1.0053  0.0150  0.9759
 8700TIP3   OH250294   5.504   2.735   0.933  0.4238 -0.1675 -0.2010
 8700TIP3    H150295   5.563   2.660   0.942  0.0955 -0.1924  2.1346
 8700TIP3    H250296   5.562   2.811   0.932  0.5956 -0.2740  0.7528
 8701TIP3   OH250297   2.587   0.921   2.392 -0.1225  0.6237 -0.3030
 8701TIP3    H150298   2.570   0.846   2.334 -0.5896 -0.7112  1.4546
 8701TIP3    H250299   2.565   0.997   2.339 -0.8928 -0.5460 -1.7657
 8702TIP3   OH250300   1.470   3.684   0.410 -0.4472 -0.1004  0.3571
 8702TIP3    H150301   1.413   3.722   0.343 -1.9999 -0.2211  1.5403
 8702TIP3    H250302   1.424   3.701   0.492 -0.1417 -2.5795  1.1255
 8703TIP3   OH250303   4.283   5.481   0.797 -0.1309  0.1302 -0.0330
 8703TIP3    H150304   4.282   5.548   0.865 -1.8923  0.9572 -0.7998
 8703TIP3    H250305   4.353   5.421   0.823  1.2532  2.0362  0.8804
 8704TIP3   OH250306   2.133   6.114   1.897  0.1866 -0.3056  0.6139
 8704TIP3    H150307   2.119   6.173   1.823 -0.7472  0.1702  1.1554
 8704TIP3    H250308   2.046   6.090   1.926  0.5454 -0.7088  1.3907
 8705TIP3   OH250309   0.128   5.541   1.547  0.4105  0.6791  0.2851
 8705TIP3    H150310   0.083   5.500   1.473  0.3074  1.1923  0.0605
 8705TIP3    H250311   0.084   5.625   1.559 -0.5295  0.0024  1.8625
 8706TIP3   OH250312   2.910   6.062   3.049  0.3873 -0.3109 -0.1435
 8706TIP3    H150313   2.930   6.150   3.080 -0.5187 -0.4513  0.8911
 8706TIP3    H250314   2.916   6.068   2.954  0.1759  0.9106 -0.0861
 8707TIP3   OH250315   6.094   0.028   2.797  0.4037 -0.3586  0.9771
 8707TIP3    H150316   6.106  -0.027   2.719 -1.2656  0.5342  0.0305
 8707TIP3    H250317   6.085  -0.034   2.869  0.4927 -1.2577  0.2318
 8708TIP3   OH250318   2.226   0.021   2.375 -0.0647 -0.0258  0.2353
 8708TIP3    H150319   2.225  -0.002   2.468  1.9825 -0.7396  0.1431
 8708TIP3    H250320   2.212   0.115   2.372  2.8120  0.5295  1.5508
 8709TIP3   OH250321   2.197   0.836   1.049 -0.3122  0.0910  0.8042
 8709TIP3    H150322   2.280   0.881   1.033 -0.3748  0.5237  1.6277
 8709TIP3    H250323   2.142   0.860   0.975 -0.5458  1.8958  1.5110
 8710TIP3   OH250324   1.337   2.144   2.886  0.2874  0.3151 -0.1623
 8710TIP3    H150325   1.395   2.099   2.947 -0.1075  0.3479  0.2447
 8710TIP3    H250326   1.351   2.237   2.903 -1.0731  0.3256  1.1072
 8711TIP3   OH250327   3.032   1.860   1.684  0.5800 -0.1296 -0.0323
 8711TIP3    H150328   3.122   1.879   1.660 -0.1894  1.6683 -1.7853
 8711TIP3    H250329   2.996   1.811   1.610  0.1288 -0.9067  0.6802
 8712TIP3   OH250330   5.048   2.100   2.563 -0.0431  0.4125  0.5030
 8712TIP3    H150331   5.020   2.090   2.472  0.2252  0.9883  0.3538
 8712TIP3    H250332   5.074   2.191   2.570  0.7912  0.1518  0.9177
 8713TIP3   OH250333   1.300   1.970   1.137 -0.1261  0.5298  1.0462
 8713TIP3    H150334   1.363   2.022   1.087  1.3998 -2.5011 -0.4461
 8713TIP3    H250335   1.287   2.020   1.218  3.2226  1.9774  0.8536
 8714TIP3   OH250336   2.881   2.134   1.412  0.4894  0.2143  0.6275
 8714TIP3    H150337   2.869   2.217   1.365  0.2455  0.1357  0.5475
 8714TIP3    H250338   2.860   2.066   1.348  0.6842  0.0910  0.6944
 8715TIP3   OH250339   2.145   3.980   2.773 -0.0346  0.2763  0.8342
 8715TIP3    H150340   2.185   3.907   2.725  4.0700  1.9766  1.2340
 8715TIP3    H250341   2.141   3.950   2.863 -0.4191 -0.2203  0.6524
 8716TIP3   OH250342   1.003   7.257   0.676  0.0799  0.3892 -0.1981
 8716TIP3    H150343   1.090   7.226   0.651 -0.0966  1.2471 -1.9926
 8716TIP3    H250344   0.985   7.328   0.615 -2.7996 -1.1905 -1.3626
 8717TIP3   OH250345   6.444   0.819   1.605  0.6844  0.0191  0.5172
 8717TIP3    H150346   6.526   0.816   1.556  0.0149 -1.1942 -0.5984
 8717TIP3    H250347   6.471   0.834   1.695  2.2137 -1.3877  0.3452
 8718TIP3   OH250348   1.013   2.431   2.030  0.0694  0.6894  0.0516
 8718TIP3    H150349   1.035   2.505   2.086  1.4428 -0.5021  1.1824
 8718TIP3    H250350   1.016   2.355   2.089  1.1594 -0.5681 -1.5270
 8719TIP3   OH250351   7.476   5.447   2.149  0.4443  0.2717 -0.3725
 8719TIP3    H150352   7.498   5.523   2.095 -0.5959  0.3956 -0.6444
 8719TIP3    H250353   7.390   5.420   2.118  0.5275 -0.6316  0.1567
 8720TIP3   OH250354   2.863   4.748   0.595  0.4993  0.0480  0.7755
 8720TIP3    H150355   2.901   4.688   0.659  0.6256 -1.1010 -0.3383
 8720TIP3    H250356   2.935   4.806   0.570  0.2492  1.0394  2.2337
 8721TIP3   OH250357   0.274   3.571   3.158  0.3432 -0.3477  0.1398
 8721TIP3    H150358   0.230   3.496   3.119  1.7647 -0.7693 -0.7132
 8721TIP3    H250359   0.205   3.615   3.209 -1.0733 -0.9371 -1.1752
 8722TIP3   OH250360   6.015   3.553   3.310  0.4567  0.0357  0.9126
 8722TIP3    H150361   6.093   3.584   3.357  0.2136  1.3091  0.5316
 8722TIP3    H250362   5.999   3.621   3.245  1.2208 -2.0246 -1.5723
 8723TIP3   OH250363   2.192   0.987   2.831 -0.2471 -0.1894  0.5640
 8723TIP3    H150364   2.104   1.024   2.838  0.3781  1.6541 -0.5143
 8723TIP3    H250365   2.226   0.989   2.920 -1.8798 -2.6408  1.3351
 8724TIP3   OH250366   6.460   3.700   2.223 -0.1910 -0.0397  0.0899
 8724TIP3    H150367   6.544   3.654   2.226  0.3077  0.8382 -0.0033
 8724TIP3    H250368   6.463   3.750   2.141 -0.5087  0.5474  0.4323
 8725TIP3   OH250369   0.537   2.210   0.632 -0.2311  0.5797  0.3012
 8725TIP3    H150370   0.587   2.170   0.702 -1.4757  1.5239  1.7883
 8725TIP3    H250371   0.592   2.282   0.600  0.2034  0.3438  0.5154
 8726TIP3   OH250372   1.448   2.491   1.439  0.7948  0.3354 -0.1762
 8726TIP3    H150373   1.519   2.521   1.383  0.9769  0.2355  0.0019
 8726TIP3    H250374   1.455   2.545   1.518  0.4123  0.6200 -0.3282
 8727TIP3   OH250375   1.000   0.518   0.531 -0.1719 -0.1201 -0.5557
 8727TIP3    H150376   1.029   0.600   0.569 -0.7895  0.1815 -0.7238
 8727TIP3    H250377   0.904   0.522   0.533 -0.2291 -1.1959  0.2200
 8728TIP3   OH250378   2.648   5.718   3.041 -0.1646 -0.0168 -0.4958
 8728TIP3    H150379   2.595   5.680   2.972  0.4279 -1.7428 -0.0547
 8728TIP3    H250380   2.608   5.687   3.122  0.3936  0.2247 -0.1173
 8729TIP3   OH250381   1.934   1.039   2.708 -0.0928  0.5965 -0.1955
 8729TIP3    H150382   1.866   1.106   2.705  0.2018  0.8453 -2.2548
 8729TIP3    H250383   2.009   1.079   2.665  0.8868 -0.2118  0.7201
 8730TIP3   OH250384   6.437   7.093   0.639  0.2027 -0.4512  0.2891
 8730TIP3    H150385   6.389   7.157   0.587  0.1804 -0.2466  0.5586
 8730TIP3    H250386   6.499   7.054   0.578 -0.7167 -1.1563 -0.2161
 8731TIP3   OH250387   6.695   3.159   0.684  0.1581 -0.7751 -0.2659
 8731TIP3    H150388   6.670   3.119   0.767  0.3725 -0.5247 -0.0817
 8731TIP3    H250389   6.778   3.204   0.702  0.7790 -1.6405 -0.8842
 8732TIP3   OH250390   3.387   7.043   2.280 -0.0037  0.3631 -0.5997
 8732TIP3    H150391   3.328   7.008   2.346  0.1782  1.8306  0.3829
 8732TIP3    H250392   3.347   7.125   2.252 -0.4606 -0.5490 -2.9087
 8733TIP3   OH250393   0.642   3.836   0.364 -0.1789 -0.1392 -0.1100
 8733TIP3    H150394   0.565   3.894   0.368  0.9236  1.3186  1.3291
 8733TIP3    H250395   0.605   3.748   0.364 -1.8664  0.5146  0.5325
 8734TIP3   OH250396   6.595   4.246   2.026 -0.8217 -0.0361  0.0566
 8734TIP3    H150397   6.516   4.253   1.972 -0.1071  1.0020 -0.9345
 8734TIP3    H250398   6.625   4.156   2.013 -0.0998  0.4526 -2.2103
 8735TIP3   OH250399   0.667   0.913   0.767  0.4932  0.2510  0.0125
 8735TIP3    H150400   0.652   1.002   0.798 -1.2767 -0.2277  0.6780
 8735TIP3    H250401   0.740   0.881   0.820  0.2022  0.8326  0.7815
 8736TIP3   OH250402   7.496   3.276   2.625 -0.3986 -0.6859 -0.3169
 8736TIP3    H150403   7.403   3.294   2.634 -0.8390 -1.7434 -2.2126
 8736TIP3    H250404   7.538   3.331   2.691 -2.3553 -0.2567  0.6360
 8737TIP3   OH250405   4.961   1.831   1.813 -0.0463  0.2713 -0.3521
 8737TIP3    H150406   4.905   1.866   1.743  1.3808  0.7482 -1.2997
 8737TIP3    H250407   4.988   1.908   1.863  0.0012  0.0835 -0.0903
 8738TIP3   OH250408   1.785   7.129   1.501 -0.0380 -0.0298  0.7056
 8738TIP3    H150409   1.880   7.137   1.513 -0.0721 -1.9533  2.9866
 8738TIP3    H250410   1.775   7.058   1.438  0.0633 -0.8891  1.6341
 8739TIP3   OH250411   3.106   7.142   2.782  0.4121  0.4096 -0.6382
 8739TIP3    H150412   3.015   7.113   2.784  0.4104  0.4507  0.1780
 8739TIP3    H250413   3.157   7.062   2.794  0.4100  0.6706  1.4877
 8740TIP3   OH250414   7.495   0.988   0.306  0.5068 -0.7135 -0.2929
 8740TIP3    H150415   7.438   0.949   0.373  1.0895 -1.8133 -0.4111
 8740TIP3    H250416   7.448   0.975   0.224 -0.7912  1.7338 -0.0333
 8741TIP3   OH250417   3.269   6.577   0.808  0.2413  0.2199 -0.1241
 8741TIP3    H150418   3.352   6.535   0.832 -0.5890 -2.1385 -1.1026
 8741TIP3    H250419   3.268   6.658   0.859  2.3393 -0.5253  1.2574
 8742TIP3   OH250420   0.754   3.474   2.650 -0.0299  0.1541 -0.1643
 8742TIP3    H150421   0.813   3.401   2.669  0.0556  0.1274 -0.5248
 8742TIP3    H250422   0.781   3.543   2.710  0.4371  0.1793 -0.4044
 8743TIP3   OH250423   6.585   3.142   1.504 -0.3382 -0.4896 -0.3095
 8743TIP3    H150424   6.618   3.232   1.505 -0.6207 -0.3824 -0.4545
 8743TIP3    H250425   6.596   3.114   1.413 -0.2417 -0.6068 -0.2625
 8744TIP3   OH250426   4.086   2.735   1.396 -1.1276 -0.3621 -0.8940
 8744TIP3    H150427   4.182   2.733   1.395 -1.1356 -1.5653 -0.9133
 8744TIP3    H250428   4.061   2.741   1.304 -1.0833  1.1620 -0.8350
 8745TIP3   OH250429   5.247   1.273   1.036  0.4778  0.5167 -0.1413
 8745TIP3    H150430   5.159   1.276   0.998  0.9331  1.8516 -1.1740
 8745TIP3    H250431   5.300   1.326   0.977  1.9158 -0.0133  0.6413
 8746TIP3   OH250432   3.236   3.743   0.596 -0.7344 -0.1523 -0.6504
 8746TIP3    H150433   3.238   3.779   0.685 -3.1964  0.3085 -0.6900
 8746TIP3    H250434   3.312   3.781   0.553  0.7924 -0.7630  1.3580
 8747TIP3   OH250435   2.450   3.920   1.342 -0.2821  0.0284  0.2062
 8747TIP3    H150436   2.485   3.908   1.430 -4.1526 -0.3403  1.9059
 8747TIP3    H250437   2.430   3.831   1.312 -2.6685  0.2823  0.7864
 8748TIP3   OH250438   3.680   6.024   2.551  0.8371 -0.1387  0.6372
 8748TIP3    H150439   3.740   6.011   2.624  0.6103 -1.0353  0.6661
 8748TIP3    H250440   3.665   5.937   2.516 -0.9150 -0.0085  0.9793
 8749TIP3   OH250441   5.306   7.026   2.044  0.0133 -0.0679  0.0949
 8749TIP3    H150442   5.356   7.003   2.122  1.6833  0.1207 -0.8806
 8749TIP3    H250443   5.358   6.992   1.971 -1.0291  0.5974 -0.9912
 8750TIP3   OH250444   2.670   3.481   1.375  0.4447  0.8929  0.7448
 8750TIP3    H150445   2.722   3.443   1.446  0.5019  0.0156  0.2436
 8750TIP3    H250446   2.716   3.562   1.352  0.6977  0.9334  1.3696
 8751TIP3   OH250447   7.531   6.258   1.349  0.0936  0.6361  0.1275
 8751TIP3    H150448   7.551   6.199   1.276 -0.9875 -0.7957  0.9438
 8751TIP3    H250449   7.463   6.213   1.398  0.9857  1.4352  2.1992
 8752TIP3   OH250450   7.511   6.063   0.433 -0.4204 -0.2103  0.0377
 8752TIP3    H150451   7.584   6.000   0.435 -1.5017 -1.5270 -0.6513
 8752TIP3    H250452   7.542   6.133   0.376  0.0652 -1.0822 -0.7962
 8753TIP3   OH250453   3.304   3.715   1.087  0.0960  0.1731  0.2542
 8753TIP3    H150454   3.217   3.696   1.123 -0.5208  2.0302 -0.1550
 8753TIP3    H250455   3.343   3.776   1.150  0.4490  0.6044 -0.3706
 8754TIP3   OH250456   3.342   0.461   1.348 -0.3381 -0.6191  0.4329
 8754TIP3    H150457   3.300   0.432   1.429 -0.6486 -0.8781  0.1812
 8754TIP3    H250458   3.382   0.382   1.313  1.0272 -0.2355  1.0540
 8755TIP3   OH250459   0.951   2.598   1.462 -0.3705 -0.4457 -0.1076
 8755TIP3    H150460   0.933   2.691   1.453  0.2992 -0.1735  1.1386
 8755TIP3    H250461   1.047   2.593   1.470 -0.4623 -1.1549  0.6730
 8756TIP3   OH250462   1.581   6.954   2.215 -0.7178  0.5129  0.5641
 8756TIP3    H150463   1.609   6.877   2.266  3.0725  1.2058 -0.1891
 8756TIP3    H250464   1.561   7.020   2.281 -1.4059 -0.2876  1.1795
 8757TIP3   OH250465   2.373   1.782   1.193  0.4705  0.1097  0.6145
 8757TIP3    H150466   2.320   1.703   1.201 -1.0128  0.8660 -1.0980
 8757TIP3    H250467   2.455   1.752   1.154 -0.2545 -0.5468 -0.4479
 8758TIP3   OH250468   5.879   4.104   1.437  0.5318 -0.0547 -0.2345
 8758TIP3    H150469   5.794   4.122   1.478  0.9170 -0.7046  0.9009
 8758TIP3    H250470   5.941   4.105   1.510  1.6988  1.4902 -1.1868
 8759TIP3   OH250471   0.713   5.669   2.106  0.1233 -0.0332  0.2101
 8759TIP3    H150472   0.779   5.707   2.165 -1.8145  0.3928  2.2521
 8759TIP3    H250473   0.678   5.595   2.155 -2.2847  0.9542  0.0721
 8760TIP3   OH250474   2.060   6.312   3.405 -0.0322  0.1366 -0.2462
 8760TIP3    H150475   1.983   6.297   3.460  0.5210 -0.7301  0.3251
 8760TIP3    H250476   2.078   6.227   3.365  0.6961  0.2948 -0.2759
 8761TIP3   OH250477   1.336   5.798   1.429 -0.4977  0.3911 -0.5018
 8761TIP3    H150478   1.242   5.801   1.410 -0.3026 -0.9417 -1.8602
 8761TIP3    H250479   1.363   5.890   1.431 -1.7049  0.7679 -0.7742
 8762TIP3   OH250480   7.451   2.559   1.066 -0.0199  0.4613 -0.1720
 8762TIP3    H150481   7.512   2.517   1.126 -1.0304  0.2528  0.7528
 8762TIP3    H250482   7.501   2.572   0.985  0.3494 -2.4657 -0.5117
 8763TIP3   OH250483   2.961   6.226   2.577 -0.0966  0.7193 -0.0141
 8763TIP3    H150484   2.963   6.189   2.489 -0.4868 -0.0625  0.3020
 8763TIP3    H250485   3.031   6.292   2.577 -0.0581  0.6842 -0.8863
 8764TIP3   OH250486   5.880   1.688   7.666 -0.6243 -0.4204 -0.2934
 8764TIP3    H150487   5.955   1.747   7.660 -1.0660  0.0890 -1.0702
 8764TIP3    H250488   5.842   1.707   7.752  0.6840 -1.3912  0.5375
 8765TIP3   OH250489   3.616   4.350   1.852  0.4728 -0.0730  0.2395
 8765TIP3    H150490   3.708   4.344   1.881 -0.0048  0.4497  1.9881
 8765TIP3    H250491   3.600   4.444   1.841 -0.2609 -0.0307  1.4624
 8766TIP3   OH250492   1.461   6.504   1.069 -0.7456  0.2139  0.2912
 8766TIP3    H150493   1.379   6.468   1.102 -0.7944  0.2282  0.1839
 8766TIP3    H250494   1.528   6.464   1.124 -0.6441 -1.4877 -1.0057
 8767TIP3   OH250495   2.484   1.513   1.580 -0.3641  0.0727 -0.2140
 8767TIP3    H150496   2.422   1.581   1.603 -0.5056 -0.4852  1.1319
 8767TIP3    H250497   2.455   1.482   1.494 -2.7303 -1.0263  0.9108
 8768TIP3   OH250498   0.983   3.326   2.717  0.5150  1.2207  0.4812
 8768TIP3    H150499   0.939   3.294   2.795  1.3042  0.6077  0.6994
 8768TIP3    H250500   1.077   3.318   2.738  0.7949 -0.7337 -1.1722
 8769TIP3   OH250501   6.877   0.431   2.346 -0.3354 -0.7381 -0.1022
 8769TIP3    H150502   6.847   0.509   2.393 -1.2888 -0.9928 -0.2756
 8769TIP3    H250503   6.870   0.360   2.410  2.5516 -0.3698  0.7428
 8770TIP3   OH250504   1.506   1.338   1.339 -0.4572 -0.7858  0.1147
 8770TIP3    H150505   1.459   1.336   1.256 -0.8698 -0.1049  0.3188
 8770TIP3    H250506   1.591   1.300   1.320 -0.0453  0.5998 -0.9472
 8771TIP3   OH250507   5.911   1.460   2.061 -0.1959  0.2603 -0.1719
 8771TIP3    H150508   5.839   1.435   2.119  1.1689  0.5235  1.7442
 8771TIP3    H250509   5.869   1.478   1.977 -1.7593 -4.9738 -0.8774
 8772TIP3   OH250510   5.890   6.810   0.569  0.1154 -0.2780 -0.3524
 8772TIP3    H150511   5.799   6.839   0.570 -1.3112 -4.0308 -1.3602
 8772TIP3    H250512   5.922   6.835   0.482 -0.8845 -1.1623 -1.0054
 8773TIP3   OH250513   3.830   2.321   1.875 -0.2508 -0.4718  0.3710
 8773TIP3    H150514   3.788   2.238   1.895 -0.1356 -0.4081  0.9019
 8773TIP3    H250515   3.913   2.318   1.924  0.2335 -0.4837 -0.4396
 8774TIP3   OH250516   6.581   5.276   2.158 -0.3264 -0.3666 -0.1045
 8774TIP3    H150517   6.598   5.193   2.113 -2.3345 -0.2770 -1.1325
 8774TIP3    H250518   6.563   5.251   2.249  1.5918 -0.7597  0.2152
 8775TIP3   OH250519   3.645   5.627   0.969 -0.8181 -0.8193 -0.1628
 8775TIP3    H150520   3.606   5.679   1.039  0.9018  1.4088 -0.7515
 8775TIP3    H250521   3.706   5.686   0.926  0.0983 -2.8979 -1.9207
 8776TIP3   OH250522   6.794   4.377   8.987 -0.4208 -0.0872 -0.4083
 8776TIP3    H150523   6.752   4.362   9.071 -1.4211  2.5081 -0.3631
 8776TIP3    H250524   6.887   4.390   9.009 -0.4372 -0.7605  0.1020
 8777TIP3   OH250525   5.409   0.229   3.358 -0.1038  0.2498  0.6348
 8777TIP3    H150526   5.500   0.242   3.331  0.6375 -2.0077  1.8146
 8777TIP3    H250527   5.370   0.175   3.290 -0.4675  0.8835  0.3303
 8778TIP3   OH250528   3.645   2.294   1.628 -0.1994 -0.0714 -0.3593
 8778TIP3    H150529   3.625   2.209   1.667 -0.3080 -0.1228 -0.5266
 8778TIP3    H250530   3.655   2.276   1.535 -0.9180  0.2151 -0.4996
 8779TIP3   OH250531   7.160   0.411   2.274  0.3856  0.3073 -0.6062
 8779TIP3    H150532   7.068   0.424   2.296  0.5472 -0.1813  0.3984
 8779TIP3    H250533   7.160   0.336   2.214 -0.0152  1.3779 -2.0075
 8780TIP3   OH250534   1.629   3.881   2.552  0.1603  0.0319 -0.0421
 8780TIP3    H150535   1.657   3.893   2.642  1.4417 -1.1754 -0.2437
 8780TIP3    H250536   1.660   3.793   2.528 -2.9243 -1.0205 -0.6502
 8781TIP3   OH250537   0.524   3.605   0.539  0.0535 -0.1977 -0.0034
 8781TIP3    H150538   0.455   3.540   0.550  0.5763 -0.8914 -0.6987
 8781TIP3    H250539   0.602   3.554   0.518  0.1246  0.6955 -2.2396
 8782TIP3   OH250540   4.658   6.891   2.477 -0.7322  0.7154 -0.5117
 8782TIP3    H150541   4.599   6.852   2.413 -0.7595 -0.9059  0.4517
 8782TIP3    H250542   4.745   6.863   2.449 -0.5907  1.3325 -0.7168
 8783TIP3   OH250543   5.798   0.677   1.337  0.2241  0.6073 -0.2560
 8783TIP3    H150544   5.796   0.592   1.381 -0.5766  1.3187  1.1593
 8783TIP3    H250545   5.707   0.695   1.314  0.3986  1.0327 -0.6248
 8784TIP3   OH250546   2.335   6.474   1.808  0.0691  0.2598  0.1346
 8784TIP3    H150547   2.386   6.392   1.805  0.1459  0.3184 -0.2118
 8784TIP3    H250548   2.384   6.529   1.869  0.2629  0.2073  0.0310
 8785TIP3   OH250549   3.983   0.221   1.181  0.2326 -0.3038  0.2469
 8785TIP3    H150550   4.008   0.146   1.127 -0.9779 -0.8649  0.4335
 8785TIP3    H250551   3.888   0.216   1.187  0.2333  0.5179  1.3282
 8786TIP3   OH250552   4.917   3.240   2.342  0.4288 -0.8009  0.0982
 8786TIP3    H150553   4.919   3.217   2.249  2.0147  0.3962 -0.2225
 8786TIP3    H250554   4.925   3.336   2.343 -1.4710 -0.6100  1.4375
 8787TIP3   OH250555   3.234   7.187   2.531 -0.1725  0.5040  0.8253
 8787TIP3    H150556   3.227   7.092   2.531 -1.9965  0.5888 -0.4578
 8787TIP3    H250557   3.188   7.214   2.611  2.1757  0.2708  2.3275
 8788TIP3   OH250558   3.192   5.780   2.358  0.2584 -0.1940 -0.3796
 8788TIP3    H150559   3.209   5.737   2.274  3.0867 -2.0334  0.9790
 8788TIP3    H250560   3.267   5.838   2.371  2.0329 -2.8030  2.4532
 8789TIP3   OH250561   1.372   4.230   2.129  0.6471  0.6511  0.0415
 8789TIP3    H150562   1.406   4.252   2.042  1.1693 -1.6291 -0.3923
 8789TIP3    H250563   1.426   4.282   2.189  1.3874  1.0076 -0.9009
 8790TIP3   OH250564   5.163   1.759   3.317 -0.0967 -0.4368 -0.1099
 8790TIP3    H150565   5.223   1.822   3.278 -1.7932  1.1194 -0.3127
 8790TIP3    H250566   5.220   1.698   3.364  1.6334  0.8402 -0.4497
 8791TIP3   OH250567   6.591   2.784   1.854 -0.4568  0.1042 -0.0736
 8791TIP3    H150568   6.591   2.861   1.911 -1.3524  1.7856 -2.2220
 8791TIP3    H250569   6.599   2.819   1.765  2.1825 -2.4561 -1.0385
 8792TIP3   OH250570   5.254   2.721   2.484 -0.1199 -0.1390 -0.0983
 8792TIP3    H150571   5.204   2.802   2.474  0.5972  0.2771 -0.4792
 8792TIP3    H250572   5.238   2.693   2.574  0.0356  0.7241  0.2092
 8793TIP3   OH250573   5.045   2.499   3.131 -0.0849  0.2949 -0.1206
 8793TIP3    H150574   5.041   2.422   3.187 -0.5326  1.4864  1.5732
 8793TIP3    H250575   5.133   2.496   3.092 -0.5206 -1.6762 -1.0683
 8794TIP3   OH250576   7.153   0.575   1.203 -0.0167  0.6122  0.6790
 8794TIP3    H150577   7.125   0.589   1.113 -1.0738 -0.9529  0.7321
 8794TIP3    H250578   7.238   0.531   1.195 -1.5531 -2.5628  0.2939
 8795TIP3   OH250579   3.523   3.673   3.057  0.0542 -0.0123 -0.8229
 8795TIP3    H150580   3.528   3.748   3.116 -1.1148 -0.8482  0.4094
 8795TIP3    H250581   3.573   3.700   2.980 -0.0536  1.8892 -0.2901
 8796TIP3   OH250582   3.277   0.368   1.595  0.2278 -0.2073  0.3829
 8796TIP3    H150583   3.262   0.455   1.633  1.8392  0.6710 -0.8322
 8796TIP3    H250584   3.280   0.309   1.670 -1.1417  0.7298  1.2199
 8797TIP3   OH250585   5.422   0.724   3.234 -0.3861  0.6056 -0.7193
 8797TIP3    H150586   5.478   0.661   3.280 -1.6407 -0.2351 -0.3126
 8797TIP3    H250587   5.335   0.709   3.269 -0.5838  3.2979  0.1585
 8798TIP3   OH250588   5.214   1.371   1.778  0.0780 -0.0896  0.4762
 8798TIP3    H150589   5.141   1.433   1.775  0.6846  0.6316  0.0420
 8798TIP3    H250590   5.248   1.377   1.867  0.8907  1.1418  0.1159
 8799TIP3   OH250591   4.361   5.141   3.135 -0.5283 -0.3170  0.9558
 8799TIP3    H150592   4.347   5.079   3.206 -0.7177 -0.8238  0.4856
 8799TIP3    H250593   4.377   5.086   3.058 -1.2538  0.1974  0.4138
 8800TIP3   OH250594   0.011   6.168   0.871 -0.5039  0.1485  0.2535
 8800TIP3    H150595   0.029   6.251   0.827  1.5478 -1.2844 -1.8161
 8800TIP3    H250596  -0.046   6.120   0.811 -0.4771 -0.5121  0.7412
 8801TIP3   OH250597   4.883   5.573   1.140 -0.1452 -0.2387 -0.1156
 8801TIP3    H150598   4.842   5.603   1.059 -0.8609  0.3665  0.4510
 8801TIP3    H250599   4.908   5.482   1.123 -2.6503 -0.9832 -0.1689
 8802TIP3   OH250600   4.983   3.230   1.534  0.1203  0.9008 -0.0733
 8802TIP3    H150601   5.035   3.151   1.528 -2.2078 -0.8585  1.1635
 8802TIP3    H250602   4.943   3.240   1.448  0.1681  0.5029 -0.1419
 8803TIP3   OH250603   4.331   4.572   2.275 -0.3220 -0.2913  0.3533
 8803TIP3    H150604   4.327   4.627   2.197 -0.2728 -0.8093 -0.0261
 8803TIP3    H250605   4.244   4.579   2.314 -0.0331  0.7986  0.8465
 8804TIP3   OH250606   1.543   5.259   1.152 -0.2800 -0.6268  0.0013
 8804TIP3    H150607   1.471   5.240   1.090 -1.2488 -0.0268  0.9078
 8804TIP3    H250608   1.600   5.183   1.145  0.3431 -0.0348 -2.5672
 8805TIP3   OH250609   1.992   4.044   0.806  0.0046 -0.2782 -0.3097
 8805TIP3    H150610   1.968   4.122   0.856 -1.9123  0.9317 -2.8777
 8805TIP3    H250611   2.026   4.078   0.723  0.5931 -2.1780 -0.8959
 8806TIP3   OH250612   4.015   4.155   0.760  0.0216  0.0806  0.0824
 8806TIP3    H150613   3.993   4.199   0.842 -0.1792  0.7984 -0.3442
 8806TIP3    H250614   3.941   4.175   0.702  0.8139  0.7900 -0.7259
 8807TIP3   OH250615   1.560   5.633   0.928  0.4732  0.0184  0.4862
 8807TIP3    H150616   1.649   5.611   0.899  1.1569  1.9207  0.9570
 8807TIP3    H250617   1.570   5.652   1.021 -0.6705 -0.8547  0.8044
 8808TIP3   OH250618   4.514   3.260   1.809  0.1698 -0.4143  0.1584
 8808TIP3    H150619   4.599   3.233   1.772  0.9524  0.4097  1.2919
 8808TIP3    H250620   4.470   3.177   1.827  0.5150 -0.8537 -0.8975
 8809TIP3   OH250621   3.535   4.364   3.355  0.5098 -0.0168  0.1566
 8809TIP3    H150622   3.576   4.412   3.283 -0.3657 -1.7633 -1.6055
 8809TIP3    H250623   3.444   4.391   3.354  0.3167 -0.6589  0.0776
 8810TIP3   OH250624   1.935   2.255   1.768 -0.3971 -0.1271  0.0619
 8810TIP3    H150625   1.849   2.294   1.754 -1.5439 -1.3098  3.0808
 8810TIP3    H250626   1.918   2.163   1.789  1.8929 -1.2345 -2.2685
 8811TIP3   OH250627   4.915   5.391   1.731  0.7668  0.2424  0.2785
 8811TIP3    H150628   4.918   5.377   1.637 -0.9024  0.7640  0.1139
 8811TIP3    H250629   4.980   5.460   1.748  1.2727 -0.0473 -0.4297
 8812TIP3   OH250630   0.580   0.149   1.251  0.6213  0.2319 -0.3324
 8812TIP3    H150631   0.520   0.090   1.205  1.3262  0.1053 -1.1172
 8812TIP3    H250632   0.580   0.117   1.341 -0.1949  0.0035 -0.3995
 8813TIP3   OH250633   1.663   6.329   1.131  0.1107  0.1739 -0.2232
 8813TIP3    H150634   1.730   6.346   1.198  1.9296 -1.6108 -1.4648
 8813TIP3    H250635   1.630   6.242   1.152  0.1673 -0.0900 -1.1958
 8814TIP3   OH250636   0.077   1.885   1.436 -0.2468  0.1730  0.3369
 8814TIP3    H150637   0.024   1.838   1.372  1.4887 -1.1647 -0.1682
 8814TIP3    H250638   0.025   1.882   1.516 -1.3034 -0.3576 -0.3430
 8815TIP3   OH250639   4.877   1.285   1.733  0.3842 -0.0594  0.1281
 8815TIP3    H150640   4.879   1.195   1.698  1.4708 -0.2278  0.5664
 8815TIP3    H250641   4.839   1.276   1.820  0.4546 -0.0910  0.1557
 8816TIP3   OH250642   1.268   5.532   2.639 -0.3090  0.1290  0.2972
 8816TIP3    H150643   1.324   5.471   2.591 -0.8007 -1.1051  1.2177
 8816TIP3    H250644   1.194   5.478   2.669 -0.0624  0.8406  2.3308
 8817TIP3   OH250645   1.662   6.044   2.485  0.1526 -0.4605  0.8105
 8817TIP3    H150646   1.663   6.084   2.572 -0.2415  0.7651  0.2565
 8817TIP3    H250647   1.574   6.007   2.477  0.1450 -0.4567  0.8726
 8818TIP3   OH250648   3.790   5.339   1.834 -0.0499 -0.5180  0.3361
 8818TIP3    H150649   3.802   5.270   1.899  0.6552 -0.4985  0.2312
 8818TIP3    H250650   3.713   5.311   1.784  0.1134 -1.1314  0.4196
 8819TIP3   OH250651   3.598   5.219   1.648 -0.2432 -0.0434 -0.1034
 8819TIP3    H150652   3.675   5.163   1.645  0.5939  1.1063 -0.7286
 8819TIP3    H250653   3.555   5.206   1.564  0.7537  1.2964 -0.8677
 8820TIP3   OH250654   5.423   5.241   3.178  0.3037  0.0676 -0.0039
 8820TIP3    H150655   5.503   5.228   3.127  0.9472  1.7872  0.5152
 8820TIP3    H250656   5.392   5.152   3.196  3.0869 -0.7602  1.3223
 8821TIP3   OH250657   1.674   2.301   2.913  0.6156  0.0165  0.0010
 8821TIP3    H150658   1.643   2.380   2.957  1.2967 -0.1955  0.8820
 8821TIP3    H250659   1.601   2.274   2.858  0.0825  0.8042  0.3068
 8822TIP3   OH250660   5.920   5.641   0.733  0.7088  0.9367 -0.2576
 8822TIP3    H150661   5.955   5.650   0.645 -1.5882 -0.1636 -1.3619
 8822TIP3    H250662   5.883   5.728   0.753  0.5177  0.9717 -0.7379
 8823TIP3   OH250663   2.909   6.878   2.511 -0.3530  1.0052 -0.0635
 8823TIP3    H150664   2.915   6.832   2.595 -0.1966 -0.6703 -0.9505
 8823TIP3    H250665   2.914   6.809   2.445 -0.7561  2.2542 -1.4654
 8824TIP3   OH250666   1.975   1.001   0.909 -0.4457  0.0720  0.4154
 8824TIP3    H150667   1.881   1.001   0.892 -0.1268 -0.2752 -1.5296
 8824TIP3    H250668   1.990   1.085   0.954 -1.8478 -0.4753  2.0231
 8825TIP3   OH250669   1.903   6.808   0.612 -0.6839 -0.6298 -0.4577
 8825TIP3    H150670   1.810   6.830   0.608 -0.6721 -0.7488 -1.9193
 8825TIP3    H250671   1.924   6.776   0.524  1.6039  2.8197 -1.3608
 8826TIP3   OH250672   4.494   7.255   2.355 -0.0639  0.0147  0.1108
 8826TIP3    H150673   4.582   7.264   2.318  0.3343 -1.0200  0.7682
 8826TIP3    H250674   4.436   7.266   2.280  0.5772  1.4742 -0.2012
 8827TIP3   OH250675   3.215   3.221   1.663 -0.1712  0.5135  0.3903
 8827TIP3    H150676   3.295   3.178   1.692  0.0038 -0.9848 -2.0451
 8827TIP3    H250677   3.146   3.155   1.673 -0.6576  0.9886  0.2514
 8828TIP3   OH250678   0.185   5.263   1.706 -0.1474  0.6093 -0.1190
 8828TIP3    H150679   0.094   5.260   1.677  0.1102  0.6126 -0.9242
 8828TIP3    H250680   0.183   5.319   1.784 -1.3750 -1.9853  1.8540
 8829TIP3   OH250681   5.836   4.383   1.310  0.3719  0.2150 -0.0541
 8829TIP3    H150682   5.917   4.339   1.282 -0.1154 -0.5486 -0.3061
 8829TIP3    H250683   5.780   4.311   1.340  0.0841  0.8179  0.8649
 8830TIP3   OH250684   7.379   6.085   1.483 -0.4214 -0.0840  0.0135
 8830TIP3    H150685   7.301   6.131   1.515 -0.6009 -0.8041  0.6247
 8830TIP3    H250686   7.440   6.086   1.557 -1.3217 -2.8816  0.9127
 8831TIP3   OH250687   6.682   5.608   2.487 -0.1607 -0.0878 -0.2005
 8831TIP3    H150688   6.684   5.568   2.400 -0.3892  0.1413 -0.3104
 8831TIP3    H250689   6.645   5.541   2.544 -0.0363 -0.2277 -0.2831
 8832TIP3   OH250690   5.022   1.607   2.003 -0.3335 -0.0962  0.8205
 8832TIP3    H150691   5.009   1.690   1.957  0.1637 -0.0306  0.7932
 8832TIP3    H250692   4.968   1.615   2.081  0.0542  0.4440  1.0454
 8833TIP3   OH250693   3.127   5.625   3.226  0.4279  0.0987 -0.2499
 8833TIP3    H150694   3.147   5.621   3.320  0.1062  1.0735 -0.1340
 8833TIP3    H250695   3.141   5.717   3.203  0.5290 -0.1416 -1.1693
 8834TIP3   OH250696   0.533   0.548   1.142 -0.0733  0.0765 -0.2502
 8834TIP3    H150697   0.588   0.495   1.085 -0.0891  0.5610 -0.7175
 8834TIP3    H250698   0.591   0.578   1.211  0.1177  0.1029 -0.4211
 8835TIP3   OH250699   7.090   1.422   2.058  0.5594 -0.1970 -0.0784
 8835TIP3    H150700   7.110   1.332   2.031  1.1565 -0.0261 -0.2160
 8835TIP3    H250701   7.120   1.476   1.985 -0.6799  0.0570 -0.4238
 8836TIP3   OH250702   3.913   4.001   1.520  0.1180  0.8817  0.8101
 8836TIP3    H150703   3.889   3.962   1.435  0.6091  0.1484  1.0001
 8836TIP3    H250704   3.833   3.999   1.571 -0.0233  0.7254  0.5839
 8837TIP3   OH250705   6.503   2.165   0.875 -0.5163  0.5189  0.2475
 8837TIP3    H150706   6.463   2.228   0.815 -0.0521 -0.5263 -1.2297
 8837TIP3    H250707   6.432   2.107   0.901 -0.2979 -0.5202 -1.3094
 8838TIP3   OH250708   4.254   0.220   1.004 -0.1597 -0.1112  0.1193
 8838TIP3    H150709   4.289   0.145   1.051 -0.4614 -0.2342  0.1451
 8838TIP3    H250710   4.284   0.296   1.054 -0.0508 -0.2209  0.2212
 8839TIP3   OH250711   2.552   7.341   0.726  0.2182 -0.4617  0.6124
 8839TIP3    H150712   2.549   7.342   0.631  0.5324  0.0111  0.6014
 8839TIP3    H250713   2.472   7.297   0.753  0.4034 -1.1037  0.1223
 8840TIP3   OH250714   4.608   4.783   0.992 -0.3297  0.2623 -0.0324
 8840TIP3    H150715   4.534   4.826   1.036 -0.5688 -0.2868  0.1109
 8840TIP3    H250716   4.684   4.807   1.045 -0.3400  1.1423 -0.3942
 8841TIP3   OH250717   4.251   6.661   2.957 -0.4335 -0.1520 -0.3731
 8841TIP3    H150718   4.227   6.591   3.017 -1.0590 -0.3340 -0.8378
 8841TIP3    H250719   4.279   6.733   3.015 -2.4716  0.2193  0.2112
 8842TIP3   OH250720   2.235   3.123   1.902  0.3273  0.4995  0.1741
 8842TIP3    H150721   2.197   3.207   1.875  0.4414  0.5916  0.2977
 8842TIP3    H250722   2.310   3.147   1.956  1.6222  0.3321 -1.4744
 8843TIP3   OH250723   3.878   0.400   2.328  0.0714 -0.5391 -0.3028
 8843TIP3    H150724   3.933   0.445   2.393 -0.3436 -0.0798 -0.2646
 8843TIP3    H250725   3.837   0.329   2.376  0.9223 -1.1294 -0.4185
 8844TIP3   OH250726   4.523   2.030   1.523  0.5842 -0.4216 -0.5137
 8844TIP3    H150727   4.614   2.000   1.526  0.5207 -0.8854 -2.4359
 8844TIP3    H250728   4.526   2.118   1.561  1.6433 -0.8150  0.3692
 8845TIP3   OH250729   3.762   2.859   1.934 -0.1143  0.1201 -0.2879
 8845TIP3    H150730   3.795   2.947   1.950  3.6650 -1.6246  3.3071
 8845TIP3    H250731   3.700   2.843   2.006  1.5047 -1.0084  0.9420
 8846TIP3   OH250732   4.568   3.344   2.404 -0.2971  0.1449  0.2206
 8846TIP3    H150733   4.638   3.295   2.446  0.4479  0.2184 -0.9169
 8846TIP3    H250734   4.600   3.435   2.401 -0.4225  0.1747 -0.3255
 8847TIP3   OH250735   2.275   3.689   2.598 -0.0113  0.1617  0.0597
 8847TIP3    H150736   2.249   3.757   2.535  0.0176 -0.1830 -0.3254
 8847TIP3    H250737   2.328   3.628   2.547  0.4406  0.1509  0.5373
 8848TIP3   OH250738   5.838   0.656   2.906 -0.2444 -0.3318  0.2196
 8848TIP3    H150739   5.796   0.734   2.942 -0.9711 -0.8332  0.4888
 8848TIP3    H250740   5.779   0.584   2.930  0.8806 -1.0906  0.8012
 8849TIP3   OH250741   4.146   3.145   2.701  0.1583  0.4295  0.3831
 8849TIP3    H150742   4.094   3.109   2.773 -0.9576 -0.0997 -0.6412
 8849TIP3    H250743   4.155   3.072   2.640 -0.4933  1.3431 -0.8499
 8850TIP3   OH250744   6.376   5.801   1.532 -0.3034  0.1125 -0.0510
 8850TIP3    H150745   6.284   5.802   1.557  0.1842  1.3957  1.8690
 8850TIP3    H250746   6.417   5.867   1.587  1.9779 -1.1683 -0.0712
 8851TIP3   OH250747   4.355   7.533   1.628 -0.5096 -0.0781  0.0179
 8851TIP3    H150748   4.386   7.524   1.538  1.9334 -0.4058  0.8070
 8851TIP3    H250749   4.390   7.617   1.657 -1.8598  0.3502  0.4813
 8852TIP3   OH250750   2.646   2.600   0.751 -0.1920 -0.7518 -0.2257
 8852TIP3    H150751   2.726   2.626   0.706  0.2521  2.4449  2.1140
 8852TIP3    H250752   2.659   2.626   0.842 -3.8861 -0.0108  0.2495
 8853TIP3   OH250753   1.007   3.675   2.994 -0.5751  0.0648  0.3972
 8853TIP3    H150754   1.034   3.737   3.062 -1.0794 -0.4709  1.1065
 8853TIP3    H250755   0.911   3.681   2.993 -0.6620 -0.9962  0.7759
 8854TIP3   OH250756   0.468   5.007   2.823  0.0777  0.0928  0.1275
 8854TIP3    H150757   0.481   5.000   2.918  1.2980  4.0537  0.4364
 8854TIP3    H250758   0.380   5.043   2.814 -0.6511 -1.7476 -0.3954
 8855TIP3   OH250759   7.137   5.946   2.025 -0.4550  0.4502  0.0599
 8855TIP3    H150760   7.165   6.030   1.988  1.4649 -0.2816 -0.2904
 8855TIP3    H250761   7.197   5.931   2.098 -1.2306 -0.2828  0.5565
 8856TIP3   OH250762   1.090   7.415   1.416 -0.6161 -0.7712 -0.2371
 8856TIP3    H150763   1.004   7.456   1.400 -1.1845 -1.5754  0.6172
 8856TIP3    H250764   1.134   7.476   1.476 -0.6185 -0.3910 -0.6177
 8857TIP3   OH250765   4.858   6.039   0.879 -0.2940 -0.1585 -0.0149
 8857TIP3    H150766   4.863   6.078   0.791  2.6299 -2.2384 -0.9500
 8857TIP3    H250767   4.904   5.956   0.870 -2.4682 -1.8357  2.8741
 8858TIP3   OH250768   5.254   3.177   3.036  0.0475 -0.0540  0.2985
 8858TIP3    H150769   5.196   3.244   3.071  1.1089  0.0554  1.9731
 8858TIP3    H250770   5.341   3.218   3.033  0.0806 -0.1759 -2.2552
 8859TIP3   OH250771   5.011   0.819   2.838 -0.0332  0.1848 -0.4756
 8859TIP3    H150772   5.010   0.736   2.884 -1.3655  1.1835  1.4301
 8859TIP3    H250773   5.065   0.876   2.891  0.2333  0.7770 -1.3521
 8860TIP3   OH250774   5.256   2.805   0.884 -0.5953  0.4569 -0.2058
 8860TIP3    H150775   5.280   2.826   0.794 -0.9432 -0.1956 -0.4529
 8860TIP3    H250776   5.335   2.765   0.921 -0.2209  1.3508  0.0023
 8861TIP3   OH250777   6.970   4.927   0.641  0.1935 -0.1056 -0.1511
 8861TIP3    H150778   6.977   4.959   0.551  0.5873 -0.0087 -0.0876
 8861TIP3    H250779   6.879   4.901   0.650 -0.0708  0.7313 -0.3034
 8862TIP3   OH250780   5.053   0.942   0.976 -0.2840 -0.3540 -0.1734
 8862TIP3    H150781   5.111   0.959   1.049  0.6203 -0.7809 -0.7695
 8862TIP3    H250782   4.978   0.896   1.014  1.0605 -2.3092  0.2359
 8863TIP3   OH250783   6.451   3.423   2.441  0.6184  0.5129  0.0525
 8863TIP3    H150784   6.437   3.368   2.517  0.0285  0.7678  0.1355
 8863TIP3    H250785   6.424   3.369   2.367 -0.1837  0.7635  0.1538
 8864TIP3   OH250786   3.890   3.520   2.386  0.3736  0.8746 -0.1910
 8864TIP3    H150787   3.966   3.575   2.367  1.3969 -0.8135 -1.1945
 8864TIP3    H250788   3.927   3.443   2.429 -0.6947 -0.1632 -1.0733
 8865TIP3   OH250789   5.704   2.619   2.868 -0.2830  0.3502  0.9403
 8865TIP3    H150790   5.739   2.596   2.954 -1.3713  1.8717  1.8413
 8865TIP3    H250791   5.610   2.629   2.882 -0.3587  1.6002 -0.1728
 8866TIP3   OH250792   7.449   0.691   2.374 -0.3163 -0.2334  0.1855
 8866TIP3    H150793   7.426   0.598   2.382  0.3892 -0.5937 -1.5013
 8866TIP3    H250794   7.366   0.734   2.353 -0.5333 -0.5968  0.2942
 8867TIP3   OH250795   3.160   1.058   1.100 -0.6940  0.5432  0.0840
 8867TIP3    H150796   3.167   1.138   1.151  0.2737  0.7424 -0.3357
 8867TIP3    H250797   3.137   1.087   1.012  0.8735  0.4912 -0.3751
 8868TIP3   OH250798   0.453   2.578   2.720 -0.2898  0.0841 -0.0790
 8868TIP3    H150799   0.372   2.533   2.700  0.4346 -0.5089 -1.8305
 8868TIP3    H250800   0.451   2.590   2.815 -2.3676  0.0306 -0.0785
 8869TIP3   OH250801   5.453   6.242   1.887 -0.5175  0.2714  0.3785
 8869TIP3    H150802   5.371   6.198   1.906 -1.2571  0.4665 -2.0679
 8869TIP3    H250803   5.457   6.246   1.792  2.1761  0.5896  0.4319
 8870TIP3   OH250804   6.811   5.897   1.596  0.3202 -0.3300  0.1707
 8870TIP3    H150805   6.806   5.806   1.625 -0.8888 -1.1683 -2.3623
 8870TIP3    H250806   6.903   5.910   1.573 -0.0422 -2.2573 -3.0163
 8871TIP3   OH250807   1.198   4.019   1.534 -0.0261 -0.9832  0.2092
 8871TIP3    H150808   1.282   4.014   1.489  0.7379  0.2928  1.3867
 8871TIP3    H250809   1.134   3.986   1.471  1.4957 -3.2686 -0.2420
 8872TIP3   OH250810   1.494   1.193   0.614  0.3758  0.2449 -0.9500
 8872TIP3    H150811   1.525   1.269   0.564 -0.7424  0.5374 -1.2107
 8872TIP3    H250812   1.567   1.130   0.609  0.2483  0.2044 -3.0607
 8873TIP3   OH250813   4.929   4.553   1.370 -0.0879 -0.5808  0.1770
 8873TIP3    H150814   5.004   4.500   1.398 -1.5400 -2.9452 -0.0645
 8873TIP3    H250815   4.938   4.558   1.275 -1.1648 -2.5926 -0.1018
 8874TIP3   OH250816   1.870   4.082   2.324 -0.4074 -0.5624 -0.3799
 8874TIP3    H150817   1.776   4.063   2.328 -0.3256 -1.5947 -2.2337
 8874TIP3    H250818   1.897   4.090   2.416 -2.0583 -1.5368  0.2314
 8875TIP3   OH250819   2.797   6.720   1.257  0.1603 -0.1382 -0.2812
 8875TIP3    H150820   2.869   6.770   1.218  0.0587 -1.3868 -2.2321
 8875TIP3    H250821   2.818   6.715   1.350  2.5312 -0.3434 -0.7613
 8876TIP3   OH250822   3.373   7.034   1.942 -0.0931 -0.3036 -0.0660
 8876TIP3    H150823   3.392   6.980   1.866 -1.1622  1.2929 -1.5381
 8876TIP3    H250824   3.280   7.019   1.959 -0.1706  0.3453  0.1046
 8877TIP3   OH250825   6.043   6.445   2.625 -0.2792  0.4656  0.1016
 8877TIP3    H150826   5.962   6.414   2.584  0.6712 -0.8226 -0.8884
 8877TIP3    H250827   6.069   6.520   2.573 -1.0455  1.1595  0.6925
 8878TIP3   OH250828   4.892   3.827   1.715  0.1022  0.1825  0.2382
 8878TIP3    H150829   4.921   3.776   1.791 -0.9129 -0.8613 -0.0359
 8878TIP3    H250830   4.920   3.916   1.733 -0.6832  0.0821  2.1618
 8879TIP3   OH250831   5.354   6.293   1.465  0.8536 -0.0703 -0.6808
 8879TIP3    H150832   5.434   6.264   1.509 -0.2230 -0.1309  1.3441
 8879TIP3    H250833   5.305   6.340   1.532 -0.7586  0.1044 -1.9124
 8880TIP3   OH250834   4.082   5.194   1.605  0.5460 -0.1641 -0.1376
 8880TIP3    H150835   4.171   5.230   1.609  0.0364  1.0780  0.2744
 8880TIP3    H250836   4.078   5.149   1.520  2.1949 -1.9696  0.6456
 8881TIP3   OH250837   4.198   6.450   2.066 -0.2482 -0.7293 -0.2378
 8881TIP3    H150838   4.253   6.448   1.987  0.0052  0.6642 -0.1220
 8881TIP3    H250839   4.258   6.470   2.137 -0.4563 -2.1205  0.3523
 8882TIP3   OH250840   0.723   0.836   1.502  0.6829 -0.0844 -0.1613
 8882TIP3    H150841   0.794   0.900   1.509 -0.3671  1.1103 -0.0427
 8882TIP3    H250842   0.731   0.783   1.581  0.7795  0.7729  0.4238
 8883TIP3   OH250843   4.214   7.474   2.530 -0.1251  0.4454  0.0145
 8883TIP3    H150844   4.303   7.445   2.555 -0.3820  0.4335  0.9597
 8883TIP3    H250845   4.156   7.412   2.575 -0.6293  0.9890  0.1189
 8884TIP3   OH250846   1.137   4.899   0.561 -0.2775 -0.0201  0.3386
 8884TIP3    H150847   1.230   4.911   0.544 -0.4232  1.8618  0.6875
 8884TIP3    H250848   1.118   4.956   0.635 -1.4880 -1.2697  1.0452
 8885TIP3   OH250849   5.771   3.430   1.016 -0.5367 -0.5146 -0.2216
 8885TIP3    H150850   5.855   3.461   1.050 -0.6017 -1.2372  0.6490
 8885TIP3    H250851   5.784   3.337   1.001 -0.7511 -0.3517 -1.5100
 8886TIP3   OH250852   4.853   0.931   1.378 -0.0890  0.3316 -0.0251
 8886TIP3    H150853   4.873   1.018   1.345 -0.4638  0.2782 -0.3983
 8886TIP3    H250854   4.866   0.937   1.472 -0.4116  0.8695 -0.0132
 8887TIP3   OH250855   5.370   2.505   0.422  0.5280 -0.4377  0.7026
 8887TIP3    H150856   5.297   2.503   0.484 -2.0394  1.2492 -1.9919
 8887TIP3    H250857   5.432   2.569   0.459 -0.2483 -0.5131  2.1712
 8888TIP3   OH250858   0.976   3.239   0.459 -0.3156 -0.6391 -0.1124
 8888TIP3    H150859   1.055   3.186   0.448  0.6849  1.3341 -3.9367
 8888TIP3    H250860   1.009   3.326   0.480 -1.2563  0.4982 -2.9239
 8889TIP3   OH250861   7.498   2.347   0.718 -0.1802 -0.3604 -0.1996
 8889TIP3    H150862   7.408   2.362   0.689 -0.5982 -0.2573  1.1058
 8889TIP3    H250863   7.489   2.304   0.803  0.9392  3.1316  1.8619
 8890TIP3   OH250864   4.482   4.652   1.762  0.3366  0.0765 -0.0325
 8890TIP3    H150865   4.571   4.678   1.739  0.2385 -0.4529 -1.0854
 8890TIP3    H250866   4.437   4.733   1.785  1.5635  0.1724  2.2913
 8891TIP3   OH250867   2.953   4.706   3.368  0.7192  0.5552 -0.0193
 8891TIP3    H150868   2.960   4.659   3.285  1.4398  2.1109 -0.8820
 8891TIP3    H250869   2.973   4.796   3.346  0.6343  1.0599  1.8171
 8892TIP3   OH250870   4.113   0.954   2.903 -0.1023 -0.3408 -0.2872
 8892TIP3    H150871   4.039   0.901   2.932 -0.1968  0.0032  0.1059
 8892TIP3    H250872   4.075   1.041   2.885 -0.1179 -0.6317 -1.7987
 8893TIP3   OH250873   4.520   2.551   1.189 -0.3687  0.0597  0.6851
 8893TIP3    H150874   4.579   2.623   1.211 -1.0196  0.1741  2.2474
 8893TIP3    H250875   4.443   2.592   1.150  0.2398 -0.0270 -0.6609
 8894TIP3   OH250876   6.030   0.739   2.313 -0.2444 -0.1793  0.3262
 8894TIP3    H150877   6.113   0.780   2.333  0.0005  0.1338 -1.1603
 8894TIP3    H250878   6.024   0.664   2.372  1.0079 -0.1107  0.5513
 8895TIP3   OH250879   3.209   6.150   1.951  0.4527  0.5400 -0.2032
 8895TIP3    H150880   3.185   6.217   1.887 -0.3461  0.9350  0.5032
 8895TIP3    H250881   3.191   6.190   2.036 -1.2971 -1.0376  0.2175
 8896TIP3   OH250882   0.726   2.601   2.736 -0.3901  0.0902  0.3039
 8896TIP3    H150883   0.633   2.598   2.714 -0.6779  0.1348  1.4332
 8896TIP3    H250884   0.763   2.521   2.699 -0.6538  0.5702 -1.0461
 8897TIP3   OH250885   6.622   0.560   1.475  0.0373  0.3683 -0.1280
 8897TIP3    H150886   6.553   0.575   1.411  0.0994  1.4837  0.0322
 8897TIP3    H250887   6.651   0.648   1.499  2.1542 -0.0677 -0.8648
 8898TIP3   OH250888   4.242   0.339   2.311  0.0690  0.2524 -0.9070
 8898TIP3    H150889   4.208   0.280   2.378 -0.6359  1.7810  0.1301
 8898TIP3    H250890   4.335   0.320   2.307 -0.0997 -0.7510 -0.4209
 8899TIP3   OH250891   3.300   5.518   1.503 -0.3447 -0.2872  0.1747
 8899TIP3    H150892   3.387   5.528   1.464  0.1103 -0.4225  1.1280
 8899TIP3    H250893   3.305   5.434   1.549 -0.3069  0.6507  1.9372
 8900TIP3   OH250894   0.605   6.529   0.525 -0.1914  0.1953 -0.5144
 8900TIP3    H150895   0.572   6.440   0.535  0.9124 -0.2129 -0.3425
 8900TIP3    H250896   0.527   6.583   0.521 -0.8770 -0.7538 -0.3702
 8901TIP3   OH250897   2.890   4.263   1.323  0.6497  0.0274 -0.3611
 8901TIP3    H150898   2.856   4.341   1.278  0.6861  0.7862  0.8565
 8901TIP3    H250899   2.860   4.274   1.413  1.0903 -1.1290 -0.0649
 8902TIP3   OH250900   4.283   2.074   0.871 -0.2089  0.6080 -0.8099
 8902TIP3    H150901   4.193   2.102   0.884  0.0341  1.2928 -0.5770
 8902TIP3    H250902   4.336   2.139   0.918  0.3258 -0.6002  0.3401
 8903TIP3   OH250903   2.197   6.638   0.682 -0.1646  0.1517 -0.2999
 8903TIP3    H150904   2.103   6.623   0.690 -0.3695  1.0353 -0.9150
 8903TIP3    H250905   2.229   6.565   0.630 -0.6220  0.2086 -0.6667
 8904TIP3   OH250906   4.251   7.265   1.621 -0.0565 -0.4224 -0.1583
 8904TIP3    H150907   4.157   7.277   1.610  0.1925 -0.7912 -3.9483
 8904TIP3    H250908   4.289   7.352   1.607  0.2405 -0.6236 -0.6584
 8905TIP3   OH250909   6.493   1.278   3.561  0.4114 -0.1955  0.9196
 8905TIP3    H150910   6.518   1.218   3.490 -1.7727  2.9595 -2.8949
 8905TIP3    H250911   6.410   1.244   3.593  0.4034 -0.5434  0.5333
 8906TIP3   OH250912   5.884   3.029   2.173  0.1861 -1.2952  0.1943
 8906TIP3    H150913   5.825   2.973   2.222  0.7874 -0.4971  1.8945
 8906TIP3    H250914   5.842   3.116   2.176  0.5038 -1.1237 -0.2367
 8907TIP3   OH250915   3.445   3.033   1.001 -0.3678 -0.1938  0.3525
 8907TIP3    H150916   3.498   2.978   1.059  0.6618 -1.2815 -1.5405
 8907TIP3    H250917   3.503   3.053   0.928 -2.1680 -0.4028 -1.1927
 8908TIP3   OH250918   2.103   4.459   2.693 -0.4829  0.0490 -0.7642
 8908TIP3    H150919   2.100   4.401   2.618 -2.5189  0.1289 -0.8006
 8908TIP3    H250920   2.099   4.547   2.656  0.2289  0.1492 -0.6165
 8909TIP3   OH250921   7.199   1.430   0.430  0.6278 -1.0063  0.1637
 8909TIP3    H150922   7.104   1.426   0.439  0.8676 -3.2668  3.5954
 8909TIP3    H250923   7.222   1.354   0.377  0.5776 -0.6126 -0.4349
 8910TIP3   OH250924   7.365   1.287   1.536  0.2148 -0.3712 -0.1095
 8910TIP3    H150925   7.293   1.252   1.484  1.0732 -0.5188 -1.2383
 8910TIP3    H250926   7.403   1.211   1.580 -0.9218 -0.1598  1.3061
 8911TIP3   OH250927   5.097   1.612   1.698 -0.6443 -0.6792 -0.1568
 8911TIP3    H150928   5.042   1.687   1.721  0.6506  0.4848 -0.7505
 8911TIP3    H250929   5.106   1.617   1.603  0.4401 -0.8637 -0.0767
 8912TIP3   OH250930   0.752   2.296   2.774 -0.4757 -0.1643  0.2014
 8912TIP3    H150931   0.668   2.253   2.791 -0.2851 -0.7544 -0.2734
 8912TIP3    H250932   0.788   2.247   2.699 -0.0483  0.5549 -0.0711
 8913TIP3   OH250933   5.362   5.283   2.667  0.0918 -0.2465  0.0032
 8913TIP3    H150934   5.341   5.307   2.577  1.0056  2.1685  0.3631
 8913TIP3    H250935   5.422   5.208   2.659 -0.2457 -0.3880 -1.3647
 8914TIP3   OH250936   6.561   1.410   2.080  0.1741 -0.2853  0.4202
 8914TIP3    H150937   6.653   1.406   2.107  0.3188  0.9511  0.1399
 8914TIP3    H250938   6.561   1.467   2.003 -0.7104 -1.0200 -0.1505
 8915TIP3   OH250939   0.116   7.083   2.645 -0.5874 -0.3068 -0.0734
 8915TIP3    H150940   0.194   7.130   2.671 -1.2363  0.1427  1.1126
 8915TIP3    H250941   0.123   6.998   2.688 -0.6327 -0.3531 -0.1574
 8916TIP3   OH250942   2.684   6.105   2.412  0.0227 -0.0029  0.6092
 8916TIP3    H150943   2.624   6.040   2.376  0.1758 -0.8746  1.8612
 8916TIP3    H250944   2.636   6.188   2.405 -1.9615 -0.8625  2.8318
 8917TIP3   OH250945   6.687   6.045   1.802 -0.0869 -0.2913 -0.6789
 8917TIP3    H150946   6.733   6.036   1.885 -0.4781 -0.4737 -0.4775
 8917TIP3    H250947   6.727   5.979   1.745  1.4846  1.1036 -1.2493
 8918TIP3   OH250948   3.140   5.235   2.559  0.4325  0.1671  0.1762
 8918TIP3    H150949   3.139   5.327   2.531 -0.3614  0.1313  0.0654
 8918TIP3    H250950   3.050   5.217   2.585  0.8169 -0.2738  1.2383
 8919TIP3   OH250951   3.939   0.544   1.767  0.3346  0.2997  0.2809
 8919TIP3    H150952   4.020   0.583   1.734 -0.0272 -0.7174 -1.9378
 8919TIP3    H250953   3.959   0.450   1.774 -0.5959  0.0694 -0.0924
 8920TIP3   OH250954   3.704   0.237   1.984  0.1125 -0.3660  0.3922
 8920TIP3    H150955   3.616   0.230   2.021  0.0466 -0.4928  0.2141
 8920TIP3    H250956   3.728   0.328   1.996  0.4938 -0.6228  1.6613
 8921TIP3   OH250957   5.935   3.926   1.756 -0.1832  0.2240  0.4589
 8921TIP3    H150958   5.913   3.881   1.675 -3.2926  0.7740  0.8995
 8921TIP3    H250959   6.031   3.931   1.755 -0.0674 -0.7280 -2.6195
 8922TIP3   OH250960   4.126   4.782   1.115 -0.0011 -0.0109 -0.7509
 8922TIP3    H150961   4.184   4.782   1.039  0.5621 -0.8407 -0.3321
 8922TIP3    H250962   4.041   4.754   1.081  0.0194  0.4876 -1.2299
 8923TIP3   OH250963   6.232   2.215   2.680 -0.2543  0.2512  0.0126
 8923TIP3    H150964   6.270   2.150   2.620  0.6247  0.1290  0.6902
 8923TIP3    H250965   6.253   2.299   2.640  0.2019  0.1679  0.0795
 8924TIP3   OH250966   7.296   3.785   1.495 -0.1833 -0.4902 -0.6239
 8924TIP3    H150967   7.250   3.702   1.496 -1.5563  0.2483 -0.4910
 8924TIP3    H250968   7.268   3.830   1.575  0.3936  0.1840 -0.7812
 8925TIP3   OH250969   1.991   1.219   1.543 -0.3052 -0.4231  0.2739
 8925TIP3    H150970   1.928   1.210   1.614 -0.5040 -1.6051 -0.0395
 8925TIP3    H250971   2.070   1.252   1.585 -0.6753 -0.3338  0.9089
 8926TIP3   OH250972   5.087   5.165   3.029 -0.7401  0.1133 -0.2405
 8926TIP3    H150973   5.020   5.105   3.063 -0.8262 -0.0838 -0.7516
 8926TIP3    H250974   5.052   5.252   3.050 -1.3352  0.0221 -0.8176
 8927TIP3   OH250975   5.224   3.811   2.095  0.4769  0.9195  0.5814
 8927TIP3    H150976   5.303   3.760   2.113 -0.9197 -0.9675  1.7311
 8927TIP3    H250977   5.255   3.886   2.044  3.1368  0.7598  1.7722
 8928TIP3   OH250978   2.610   7.416   1.289 -0.2843  0.3253 -0.3501
 8928TIP3    H150979   2.624   7.334   1.242 -0.5718  0.4074 -0.5857
 8928TIP3    H250980   2.621   7.393   1.381  1.3761  0.3905 -0.5038
 8929TIP3   OH250981   1.513   2.075   2.663 -0.1723 -0.5967 -0.3308
 8929TIP3    H150982   1.465   2.104   2.740 -0.5025  0.4642 -0.9107
 8929TIP3    H250983   1.581   2.016   2.697 -1.0618 -1.1043  0.6313
 8930TIP3   OH250984   3.266   4.458   3.361  0.5216  0.5775  0.7440
 8930TIP3    H150985   3.271   4.482   3.268  2.1622 -0.8079  0.4361
 8930TIP3    H250986   3.286   4.539   3.407  1.6429  0.8473 -0.1710
 8931TIP3   OH250987   2.010   4.260   1.608  0.0827 -0.2207  0.3876
 8931TIP3    H150988   2.066   4.337   1.620 -1.4929  1.0647 -0.2551
 8931TIP3    H250989   1.999   4.225   1.697  3.3667 -1.6832  0.3874
 8932TIP3   OH250990   0.153   5.570   2.266 -0.0404 -0.0489 -0.0349
 8932TIP3    H150991   0.212   5.496   2.279  1.1353  0.7715 -0.5979
 8932TIP3    H250992   0.068   5.529   2.247  0.7630 -1.2738 -1.1801
 8933TIP3   OH250993   0.021   1.629   1.906  0.1958  0.6315  0.2242
 8933TIP3    H150994   0.039   1.550   1.856  0.8812  0.6721  0.4033
 8933TIP3    H250995   0.059   1.613   1.992  1.2583  1.5502 -0.0566
 8934TIP3   OH250996   3.561   7.558   0.761  0.1655  0.1056 -0.1813
 8934TIP3    H150997   3.522   7.559   0.849 -0.3328 -0.6282 -0.3834
 8934TIP3    H250998   3.641   7.610   0.769 -2.0797  3.9058 -0.3415
 8935TIP3   OH250999   6.291   4.690   1.760 -0.1045 -0.3919 -0.5838
 8935TIP3    H151000   6.270   4.783   1.746 -0.2324  0.1457  2.4201
 8935TIP3    H251001   6.220   4.642   1.718 -1.2494  0.9821 -0.2936
 8936TIP3   OH251002   0.468   1.816   0.611 -0.1745  0.1964 -0.2836
 8936TIP3    H151003   0.392   1.841   0.558 -0.1563  0.6327 -0.1085
 8936TIP3    H251004   0.465   1.720   0.614 -0.7605  0.2140 -0.2140
 8937TIP3   OH251005   3.554   4.693   3.000  0.1087  0.2257 -0.2599
 8937TIP3    H151006   3.615   4.766   3.012  2.4982 -1.7804  0.6586
 8937TIP3    H251007   3.547   4.683   2.905  1.8731  0.0435 -0.4110
 8938TIP3   OH251008   6.178   6.392   0.607  0.1441  0.0364 -0.4016
 8938TIP3    H151009   6.260   6.357   0.641  1.8770  1.1171 -3.0791
 8938TIP3    H251010   6.158   6.466   0.664  1.3473  0.0686  0.0164
 8939TIP3   OH251011   1.174   5.527   1.802  0.4209 -0.4482  0.7814
 8939TIP3    H151012   1.197   5.620   1.802 -0.0030 -0.3382  0.4158
 8939TIP3    H251013   1.257   5.481   1.791  0.6895 -0.1313  1.4322
 8940TIP3   OH251014   1.950   2.293   2.949  0.0754  0.1250 -0.4299
 8940TIP3    H151015   1.866   2.306   2.905 -1.4821  1.0599  2.5572
 8940TIP3    H251016   1.928   2.284   3.041  3.2688  0.0462  0.4460
 8941TIP3   OH251017   5.105   2.603   1.494 -0.2359  0.3179  0.2851
 8941TIP3    H151018   5.180   2.620   1.551  0.3255 -0.0059 -0.3453
 8941TIP3    H251019   5.032   2.586   1.555  0.4421 -0.4313  0.9094
 8942TIP3   OH251020   6.805   3.649   0.585 -0.3959 -0.4978  0.3159
 8942TIP3    H151021   6.742   3.705   0.540 -0.9977 -0.1982  1.4930
 8942TIP3    H251022   6.798   3.565   0.541  2.4905  0.8876 -3.3788
 8943TIP3   OH251023   4.503   2.833   2.428 -0.3672 -0.5630 -0.3363
 8943TIP3    H151024   4.471   2.923   2.435 -1.5549 -0.8568 -1.5935
 8943TIP3    H251025   4.537   2.813   2.516 -0.2009  1.0505 -0.0041
 8944TIP3   OH251026   3.029   3.028   1.658 -0.6039  0.0659 -0.0450
 8944TIP3    H151027   2.934   3.034   1.648 -0.6292 -0.1735  0.0474
 8944TIP3    H251028   3.046   2.935   1.669 -0.2952  0.0344 -0.7198
 8945TIP3   OH251029   1.368   0.524   0.646 -0.9314 -0.4652  0.3825
 8945TIP3    H151030   1.408   0.606   0.617  0.3931 -1.2934 -0.2358
 8945TIP3    H251031   1.360   0.533   0.741  0.7480 -0.2369  0.5356
 8946TIP3   OH251032   4.661   7.519   2.963 -0.4465  0.2633 -0.5491
 8946TIP3    H151033   4.583   7.571   2.984 -0.3155  1.4026 -2.5915
 8946TIP3    H251034   4.696   7.493   3.048 -1.5920  1.9296  0.4993
 8947TIP3   OH251035   0.649   3.452   3.031  0.2275  0.9501 -0.6267
 8947TIP3    H151036   0.672   3.517   2.964 -3.4746  1.5334 -1.5561
 8947TIP3    H251037   0.581   3.495   3.083  1.1793 -0.4630  1.9781
 8948TIP3   OH251038   1.689   7.023   0.602 -0.2563 -0.2226 -0.3586
 8948TIP3    H151039   1.740   7.079   0.543  1.0242  0.6290  1.4499
 8948TIP3    H251040   1.653   7.083   0.668 -0.5342 -1.2705  0.4865
 8949TIP3   OH251041   7.302   2.770   1.552  0.6848  0.0511  0.5056
 8949TIP3    H151042   7.379   2.719   1.575  1.5602  1.1966  0.2006
 8949TIP3    H251043   7.309   2.850   1.604 -0.9471 -0.3358  1.3903
 8950TIP3   OH251044   1.739   2.736   2.549  0.0214  0.1795  0.0369
 8950TIP3    H151045   1.721   2.736   2.455  0.6405  0.6792 -0.0859
 8950TIP3    H251046   1.681   2.669   2.585 -1.2766  0.9727 -0.5018
 8951TIP3   OH251047   2.924   5.111   1.350  0.1858 -0.2060 -0.7865
 8951TIP3    H151048   2.926   5.082   1.259  0.7371  0.0045 -0.8473
 8951TIP3    H251049   2.977   5.046   1.397 -1.8610 -1.5475 -0.2294
 8952TIP3   OH251050   2.207   1.351   0.494 -0.1733  0.1160 -0.2513
 8952TIP3    H151051   2.197   1.367   0.588  1.1957 -2.5713  0.4687
 8952TIP3    H251052   2.295   1.383   0.474 -0.6779  1.2130 -0.7935
 8953TIP3   OH251053   2.848   1.608   1.089 -0.3627 -0.0877 -0.7034
 8953TIP3    H151054   2.902   1.660   1.149 -2.3893 -0.2247  1.3508
 8953TIP3    H251055   2.879   1.518   1.100  0.5965  0.1379 -1.4075
 8954TIP3   OH251056   4.216   4.735   2.666  0.2806 -0.8902  0.5228
 8954TIP3    H151057   4.306   4.757   2.642  0.1067  0.1425  0.7629
 8954TIP3    H251058   4.180   4.690   2.590 -0.0386  1.6811 -0.9651
 8955TIP3   OH251059   2.989   6.315   3.046 -0.1023 -0.3579 -0.0678
 8955TIP3    H151060   2.960   6.406   3.060  0.1169 -0.5683  2.0322
 8955TIP3    H251061   3.080   6.315   3.075  0.0428 -1.1626 -0.5129
 8956TIP3   OH251062   2.126   2.056   2.024  0.7456  0.1435  0.4736
 8956TIP3    H151063   2.035   2.075   2.046  0.8874 -0.9383  2.2138
 8956TIP3    H251064   2.169   2.142   2.022 -0.7185  0.9158 -2.7711
 8957TIP3   OH251065   3.948   5.124   1.192 -0.1841 -0.6834 -0.3999
 8957TIP3    H151066   3.952   5.204   1.141  2.6810 -0.4546  0.0416
 8957TIP3    H251067   3.928   5.055   1.128  3.6728 -0.4725 -2.0934
 8958TIP3   OH251068   3.357   5.637   2.129 -0.8205 -0.3263  0.1308
 8958TIP3    H151069   3.369   5.596   2.044 -2.3044 -0.7898  0.1106
 8958TIP3    H251070   3.365   5.565   2.192  2.4666  0.3319  0.6453
 8959TIP3   OH251071   5.175   0.895   1.598  0.5369  0.0775  0.0079
 8959TIP3    H151072   5.261   0.858   1.617  0.8463  1.4800  1.5326
 8959TIP3    H251073   5.190   0.990   1.594 -0.8709  0.3157 -0.0001
 8960TIP3   OH251074   0.766   2.728   2.975 -0.3304  0.5338  0.3018
 8960TIP3    H151075   0.752   2.655   2.914 -0.5602  0.6317  0.2345
 8960TIP3    H251076   0.784   2.686   3.059  1.6531  0.3722 -0.1576
 8961TIP3   OH251077   2.269   7.177   2.349  0.1161  0.1008 -0.4223
 8961TIP3    H151078   2.192   7.197   2.402  0.6925 -1.6895  1.2455
 8961TIP3    H251079   2.240   7.187   2.259 -2.5240 -1.8233  0.0913
 8962TIP3   OH251080   0.214   1.290   0.424 -0.5189 -0.0865 -0.0067
 8962TIP3    H151081   0.205   1.385   0.426 -1.6649 -0.1615 -0.4317
 8962TIP3    H251082   0.124   1.258   0.434  0.1320 -1.2104  3.0657
 8963TIP3   OH251083   1.380   3.694   3.165  0.5033  0.0777 -0.2126
 8963TIP3    H151084   1.294   3.722   3.194  0.3367 -1.3289  0.7608
 8963TIP3    H251085   1.386   3.602   3.191  2.0187 -0.0665 -0.9074
 8964TIP3   OH251086   1.597   0.674   1.184  0.0504  0.2123 -0.9938
 8964TIP3    H151087   1.664   0.662   1.116 -0.3507 -1.2503 -1.1699
 8964TIP3    H251088   1.563   0.586   1.199 -2.1565  0.9759 -1.2235
 8965TIP3   OH251089   2.934   5.800   3.014 -0.0734 -0.0631  0.2473
 8965TIP3    H151090   2.842   5.774   3.016 -0.2918  0.6008 -0.5663
 8965TIP3    H251091   2.934   5.890   3.047 -0.4528  1.8100 -4.1564
 8966TIP3   OH251092   3.527   2.271   2.187  0.0863 -0.3500  0.5637
 8966TIP3    H151093   3.617   2.288   2.215 -0.3593  0.8467  1.3287
 8966TIP3    H251094   3.536   2.235   2.099  1.2695  0.7907  0.1941
 8967TIP3   OH251095   0.194   2.567   1.521  0.1251 -0.8810 -0.0849
 8967TIP3    H151096   0.227   2.610   1.442  0.4108  1.7950  1.3670
 8967TIP3    H251097   0.269   2.562   1.579 -0.1081 -2.7193  0.1172
 8968TIP3   OH251098   6.494   5.891   2.276 -0.2815  0.1938 -0.4762
 8968TIP3    H151099   6.440   5.825   2.317  1.2173 -0.2759  0.8582
 8968TIP3    H251100   6.500   5.864   2.184 -0.4537 -1.0019 -0.1485
 8969TIP3   OH251101   3.838   6.632   2.644  0.2887  0.2664  0.0947
 8969TIP3    H151102   3.852   6.559   2.704  0.8546  0.6517  0.4404
 8969TIP3    H251103   3.907   6.622   2.578  0.4913  0.5985  0.2542
 8970TIP3   OH251104   2.303   6.399   3.336 -0.0347  0.4728  0.0528
 8970TIP3    H151105   2.296   6.438   3.249  1.6251  0.4546 -0.1230
 8970TIP3    H251106   2.213   6.387   3.365 -0.6200  3.1176 -0.4675
 8971TIP3   OH251107   1.458   4.028   0.720  0.6163  0.2211  0.2857
 8971TIP3    H151108   1.543   4.061   0.692  1.1440 -0.4928  0.9824
 8971TIP3    H251109   1.473   4.000   0.811 -0.1425 -0.6947  0.1320
 8972TIP3   OH251110   2.160   0.912   1.610 -0.2092 -0.1427  0.0721
 8972TIP3    H151111   2.071   0.879   1.625 -0.4214  1.1905  2.1079
 8972TIP3    H251112   2.169   0.915   1.515 -1.8333 -1.6132 -0.1646
 8973TIP3   OH251113   1.905   2.730   1.223 -0.3824  0.2390  0.6550
 8973TIP3    H151114   1.943   2.725   1.135 -2.0800  1.8691 -0.2566
 8973TIP3    H251115   1.969   2.778   1.274 -0.5115  1.6490 -0.4478
 8974TIP3   OH251116   3.841   0.561   0.654  0.8459  0.5136 -0.0697
 8974TIP3    H151117   3.794   0.592   0.576 -2.1100  0.5602  1.5790
 8974TIP3    H251118   3.777   0.507   0.700  3.1080 -1.0228  1.4539
 8975TIP3   OH251119   4.266   0.813   1.427  0.0182 -0.1867 -0.5974
 8975TIP3    H151120   4.326   0.883   1.401 -1.6883  1.3153 -0.6803
 8975TIP3    H251121   4.193   0.858   1.469 -0.0546 -2.1199  1.5485
 8976TIP3   OH251122   7.466   5.344   2.403 -0.2628  0.3594 -0.2228
 8976TIP3    H151123   7.460   5.377   2.313  0.9835  0.2543 -0.3599
 8976TIP3    H251124   7.375   5.336   2.432 -0.6558  1.2090 -1.1762
 8977TIP3   OH251125   1.037   0.893   1.879  0.5178  0.1866  0.2538
 8977TIP3    H151126   1.104   0.930   1.821 -1.2599  0.3999 -1.7813
 8977TIP3    H251127   1.074   0.809   1.907  1.2249 -0.2119 -1.6901
 8978TIP3   OH251128   2.812   3.597   2.005  0.4262  0.0212  0.0191
 8978TIP3    H151129   2.826   3.684   2.041  1.2031  0.3408 -0.9799
 8978TIP3    H251130   2.897   3.554   2.012  0.8536  0.3816 -2.0663
 8979TIP3   OH251131   0.204   6.966   1.655  0.2773 -0.1037  0.2003
 8979TIP3    H151132   0.148   6.892   1.679 -0.2810 -0.3736 -1.7891
 8979TIP3    H251133   0.246   6.992   1.737 -1.3545 -1.0801  1.4049
 8980TIP3   OH251134   5.643   2.550   2.311  0.0537  0.0349  0.0786
 8980TIP3    H151135   5.566   2.538   2.367  0.0546 -0.1667  0.0365
 8980TIP3    H251136   5.619   2.510   2.228 -0.1246  0.7497 -0.2257
 8981TIP3   OH251137   4.479   0.218   1.695  0.1162  0.4347  0.1047
 8981TIP3    H151138   4.437   0.302   1.718  1.6305  0.7933  1.8066
 8981TIP3    H251139   4.559   0.217   1.747  1.5395 -0.8540 -1.9834
 8982TIP3   OH251140   5.203   6.410   1.651  0.2379  0.5509 -0.1864
 8982TIP3    H151141   5.129   6.349   1.647  1.5877 -1.1137 -1.3339
 8982TIP3    H251142   5.193   6.453   1.736 -2.1372  0.5587 -0.3882
 8983TIP3   OH251143   5.672   4.591   1.569  0.4677  0.0656 -0.0938
 8983TIP3    H151144   5.729   4.581   1.646 -0.3683  1.9166  0.8197
 8983TIP3    H251145   5.719   4.651   1.512  0.6658 -0.5987 -0.6509
 8984TIP3   OH251146   4.511   1.413   1.711  0.3341  0.0087 -0.5134
 8984TIP3    H151147   4.577   1.481   1.720 -0.7226  1.0251 -0.2015
 8984TIP3    H251148   4.542   1.358   1.639  2.1553 -0.3129  0.4538
 8985TIP3   OH251149   4.423   4.145   1.262 -0.1911  0.6285  0.0930
 8985TIP3    H151150   4.331   4.168   1.248 -0.9833 -1.4931  1.3579
 8985TIP3    H251151   4.430   4.054   1.230  1.8492  1.2023 -1.3169
 8986TIP3   OH251152   2.717   2.259   0.811 -0.0586 -0.3583  0.5899
 8986TIP3    H151153   2.712   2.345   0.851  2.2191 -0.0354  0.3354
 8986TIP3    H251154   2.699   2.198   0.883  1.4220  0.2818  1.5548
 8987TIP3   OH251155   0.614   4.756   2.890 -0.4075 -0.2876  0.4089
 8987TIP3    H151156   0.679   4.806   2.842 -1.0300  0.7087  0.5718
 8987TIP3    H251157   0.650   4.747   2.978 -0.9958  1.3021  0.8360
 8988TIP3   OH251158   0.333   0.219   2.171 -0.3969 -0.2442 -0.3304
 8988TIP3    H151159   0.284   0.137   2.179 -0.3106 -0.3130 -0.5215
 8988TIP3    H251160   0.265   0.287   2.174 -0.7450 -0.4123 -2.8325
 8989TIP3   OH251161   7.410   0.896   3.109 -0.2948 -0.0745  0.1377
 8989TIP3    H151162   7.466   0.874   3.035 -1.3741 -0.2046 -0.6580
 8989TIP3    H251163   7.333   0.937   3.070 -1.0798 -0.5286  1.1511
 8990TIP3   OH251164   1.028   5.914   0.506 -0.3467  0.0460  0.2612
 8990TIP3    H151165   1.098   5.937   0.444  0.7733 -0.8452  1.1610
 8990TIP3    H251166   0.990   5.999   0.531  0.8970  0.6174  0.2984
 8991TIP3   OH251167   6.988   0.344   0.625  0.1175  0.3675 -0.3449
 8991TIP3    H151168   6.956   0.294   0.700 -0.6309 -2.3095 -2.3039
 8991TIP3    H251169   7.083   0.350   0.637  0.2537 -1.7539 -0.1090
 8992TIP3   OH251170   0.692   1.704   1.885  0.4632  1.1321 -0.3993
 8992TIP3    H151171   0.697   1.760   1.807 -0.8318  1.5527 -0.2101
 8992TIP3    H251172   0.617   1.738   1.934 -0.3975 -0.8164 -0.2974
 8993TIP3   OH251173   2.503   6.173   0.764  0.1529  0.2065 -0.7164
 8993TIP3    H151174   2.556   6.098   0.793 -0.1580 -0.2584 -1.3362
 8993TIP3    H251175   2.562   6.248   0.774 -0.4029  0.3445  2.5911
 8994TIP3   OH251176   4.837   4.682   0.809 -0.0374 -0.1957 -0.0230
 8994TIP3    H151177   4.850   4.589   0.792  0.4382 -0.2439  0.5551
 8994TIP3    H251178   4.752   4.687   0.853 -0.2457 -0.3102 -0.4118
 8995TIP3   OH251179   4.837   4.828   1.104 -0.0854 -0.2308  0.4003
 8995TIP3    H151180   4.883   4.888   1.162  1.1144 -0.3900 -0.3596
 8995TIP3    H251181   4.857   4.859   1.016 -2.1773  0.2304  0.0297
 8996TIP3   OH251182   1.258   0.092   1.543 -0.4353  0.5228  0.0405
 8996TIP3    H151183   1.180   0.138   1.510 -0.7848  2.0908  2.7825
 8996TIP3    H251184   1.244   0.086   1.637 -0.2726 -5.1311  0.0172
 8997TIP3   OH251185   5.357   1.363   2.386  0.3345  0.2253 -0.1167
 8997TIP3    H151186   5.400   1.279   2.403 -1.5359 -0.4659  1.7099
 8997TIP3    H251187   5.273   1.340   2.345 -0.0216  1.2129  0.0189
 8998TIP3   OH251188   1.396   3.464   3.310  0.1652 -0.0281 -0.5015
 8998TIP3    H151189   1.484   3.426   3.311  0.5436  0.8315 -0.7742
 8998TIP3    H251190   1.337   3.388   3.318  0.9560 -0.4663  2.0250
 8999TIP3   OH251191   3.446   2.080   0.847  0.0417  0.1529 -0.0566
 8999TIP3    H151192   3.395   2.005   0.818 -1.1460  0.4276  1.2028
 8999TIP3    H251193   3.381   2.149   0.863  0.6237  0.2412  2.4479
 9000TIP3   OH251194   0.794   2.316   1.067  0.5297 -0.5590 -0.1135
 9000TIP3    H151195   0.814   2.352   1.154 -0.0188 -1.2500  0.3060
 9000TIP3    H251196   0.709   2.355   1.045  1.1183  0.3942 -0.7909
 9001TIP3   OH251197   5.044   1.243   2.265 -0.4125  0.2655  0.4075
 9001TIP3    H151198   4.969   1.193   2.234  1.1701 -2.9828  1.4480
 9001TIP3    H251199   5.012   1.290   2.342 -2.1549  1.7343 -1.1060
 9002TIP3   OH251200   0.636   3.292   1.414 -0.5276  0.5141  0.3496
 9002TIP3    H151201   0.595   3.361   1.465  0.9335  0.7643  1.2607
 9002TIP3    H251202   0.692   3.246   1.477  1.0196  0.5748 -0.9224
 9003TIP3   OH251203   0.231   0.459   2.480  0.0919 -0.0715  0.8804
 9003TIP3    H151204   0.181   0.495   2.407 -2.1034 -1.5616  1.5575
 9003TIP3    H251205   0.296   0.527   2.500 -0.1300  0.9571 -1.5288
 9004TIP3   OH251206   6.203   7.508   0.790 -0.2217  0.4072 -0.0176
 9004TIP3    H151207   6.143   7.575   0.824 -2.4685 -1.0122 -0.9640
 9004TIP3    H251208   6.231   7.460   0.868  1.3602  2.2963  0.6641
 9005TIP3   OH251209   3.398   5.314   0.876  0.4075 -0.0604 -0.3722
 9005TIP3    H151210   3.396   5.344   0.967  1.7243 -1.2554  0.0896
 9005TIP3    H251211   3.488   5.328   0.847 -0.0622  0.5764 -1.6200
 9006TIP3   OH251212   3.557   7.066   2.685  0.0223  0.5314 -0.1289
 9006TIP3    H151213   3.556   6.974   2.711 -0.3322  0.0571 -1.6923
 9006TIP3    H251214   3.576   7.114   2.765  1.9164 -1.0006  0.3948
 9007TIP3   OH251215   1.085   3.889   2.269 -0.3839 -0.2248 -0.3246
 9007TIP3    H151216   1.174   3.896   2.306 -0.9859  0.4251  1.0722
 9007TIP3    H251217   1.094   3.825   2.199  1.1572 -0.3348 -0.0719
 9008TIP3   OH251218   1.483   4.242   3.244  0.0269 -0.4654  0.0571
 9008TIP3    H151219   1.438   4.269   3.324  0.0237 -0.4325  0.0444
 9008TIP3    H251220   1.576   4.256   3.263 -0.0721  1.5316 -0.6588
 9009TIP3   OH251221   1.087   1.613   0.770  0.0264  0.7283  0.6899
 9009TIP3    H151222   1.028   1.686   0.790 -0.3652  0.4530  0.5514
 9009TIP3    H251223   1.060   1.583   0.683  1.2705  1.4749  0.0126
 9010TIP3   OH251224   6.892   0.945   1.667 -0.4858  0.1466  0.2215
 9010TIP3    H151225   6.881   0.988   1.752  0.8305 -0.3825  0.6835
 9010TIP3    H251226   6.987   0.938   1.656 -0.5882 -3.2302  0.4878
 9011TIP3   OH251227   2.572   7.071   2.005  0.5414 -0.0909 -0.3776
 9011TIP3    H151228   2.534   7.159   2.011  1.3771  0.1937  1.9667
 9011TIP3    H251229   2.519   7.026   1.940 -0.8105  1.7137 -0.6116
 9012TIP3   OH251230   2.993   3.501   3.252  0.0630  0.1106  0.0888
 9012TIP3    H151231   3.065   3.565   3.252  0.1826  0.0870  2.5675
 9012TIP3    H251232   2.979   3.481   3.160  1.6928  1.8429 -0.6186
 9013TIP3   OH251233   3.342   3.878   1.326  0.3085 -0.4567 -0.3663
 9013TIP3    H151234   3.285   3.952   1.307  2.2570  0.5134 -2.9447
 9013TIP3    H251235   3.385   3.902   1.408 -0.7575  0.1572  0.0351
 9014TIP3   OH251236   7.042   1.709   2.033 -0.5826 -0.6694 -0.4814
 9014TIP3    H151237   7.130   1.742   2.049 -0.9744 -0.1769  0.7962
 9014TIP3    H251238   7.053   1.645   1.963  0.8561 -0.9512 -0.0332
 9015TIP3   OH251239   7.254   1.800   0.787 -0.2502 -0.1744 -0.0395
 9015TIP3    H151240   7.236   1.848   0.867 -1.9115 -0.3052 -0.2871
 9015TIP3    H251241   7.243   1.864   0.717  0.6447 -0.1869 -0.1938
 9016TIP3   OH251242   3.711   4.287   2.911  0.0743 -0.1150 -0.2805
 9016TIP3    H151243   3.752   4.202   2.928  0.6241  0.0528 -0.7185
 9016TIP3    H251244   3.670   4.277   2.825 -0.5389 -0.1820  0.0173
 9017TIP3   OH251245   7.446   7.141   1.362 -0.1236  0.9279  0.4062
 9017TIP3    H151246   7.483   7.059   1.331 -1.7292 -0.2473  1.4385
 9017TIP3    H251247   7.416   7.186   1.283  1.2267  0.7895 -0.2097
 9018TIP3   OH251248   4.989   3.633   0.651 -0.0832 -0.3038 -0.0551
 9018TIP3    H151249   5.004   3.543   0.622  1.0007 -0.1108 -0.1149
 9018TIP3    H251250   4.904   3.657   0.612 -0.4822 -1.3570  0.1336
 9019TIP3   OH251251   2.535   6.907   2.251 -0.4464 -0.6339  0.7685
 9019TIP3    H151252   2.506   6.967   2.319  1.5070  0.3126  0.8648
 9019TIP3    H251253   2.532   6.959   2.171  0.3514 -0.6823  0.6951
 9020TIP3   OH251254   1.523   0.292   0.499  0.4397  0.3431 -0.0984
 9020TIP3    H151255   1.603   0.344   0.503  0.7401 -0.0644 -0.6808
 9020TIP3    H251256   1.460   0.341   0.551  0.3473  1.9792 -1.6311
 9021TIP3   OH251257   7.350   5.325   0.415 -0.1709  0.3715 -0.8407
 9021TIP3    H151258   7.315   5.388   0.352 -0.1211  0.7436 -0.4986
 9021TIP3    H251259   7.348   5.372   0.499  1.4210  0.5023 -0.8592
 9022TIP3   OH251260   4.938   3.565   1.287 -0.3556 -0.0747 -0.7993
 9022TIP3    H151261   4.875   3.609   1.343  1.1886 -0.1096  1.0494
 9022TIP3    H251262   5.021   3.610   1.302  0.6709 -1.7942 -0.9960
 9023TIP3   OH251263   2.914   3.310   2.536  0.5207 -0.0447  0.0408
 9023TIP3    H151264   2.912   3.284   2.629  1.1766 -0.8373 -0.1536
 9023TIP3    H251265   2.823   3.333   2.516  0.6185  1.6096  1.2735
 9024TIP3   OH251266   1.206   6.975   0.977  0.4113  0.2698  0.3746
 9024TIP3    H151267   1.143   6.948   0.910 -1.5514  4.0545  0.4069
 9024TIP3    H251268   1.154   6.980   1.057  1.2452  1.3743  0.8690
 9025TIP3   OH251269   1.584   0.195   0.924 -0.1318 -0.1284 -0.1953
 9025TIP3    H151270   1.606   0.289   0.922  2.3852 -0.6528 -0.2439
 9025TIP3    H251271   1.496   0.191   0.887 -0.5583  2.2681  0.3382
 9026TIP3   OH251272   5.362   1.920   1.355  0.3989  0.4251  0.2397
 9026TIP3    H151273   5.333   1.953   1.270  1.0628 -0.8675 -0.5055
 9026TIP3    H251274   5.333   1.829   1.358  1.2374  0.1611  0.9740
 9027TIP3   OH251275   6.623   1.992   1.671  0.2071  0.2096 -0.2253
 9027TIP3    H151276   6.636   1.944   1.753  1.3276 -2.2434 -1.6985
 9027TIP3    H251277   6.701   1.970   1.619 -1.1569  0.4290 -2.4902
 9028TIP3   OH251278   4.867   4.994   0.472 -0.0028 -0.2837  0.1389
 9028TIP3    H151279   4.774   4.988   0.451 -0.5226 -0.4886  2.2930
 9028TIP3    H251280   4.904   4.911   0.442 -0.7838 -0.7822  0.5436
 9029TIP3   OH251281   3.717   3.385   0.433 -0.2399 -0.1799 -0.0963
 9029TIP3    H151282   3.714   3.476   0.463 -0.4489 -0.3504  0.4189
 9029TIP3    H251283   3.801   3.377   0.388 -1.0637  0.7946 -1.8932
 9030TIP3   OH251284   5.472   5.759   1.360  0.0229 -0.4045  0.0913
 9030TIP3    H151285   5.429   5.683   1.398 -0.6647 -1.2237 -2.1622
 9030TIP3    H251286   5.406   5.798   1.303  1.0663  0.5612 -0.5100
 9031TIP3   OH251287   5.025   0.930   0.659  0.1757  0.4992  0.0169
 9031TIP3    H151288   5.095   0.981   0.700  0.7338 -1.3577  1.4968
 9031TIP3    H251289   5.071   0.869   0.601 -0.3229  0.3139 -0.1835
 9032TIP3   OH251290   3.684   6.217   0.725  0.4520 -0.1230 -0.1879
 9032TIP3    H151291   3.684   6.158   0.650  1.7195 -1.3621  0.7339
 9032TIP3    H251292   3.636   6.170   0.793  1.6484 -0.2147  0.6188
 9033TIP3   OH251293   4.012   7.259   1.747 -0.0326 -0.2347 -0.3970
 9033TIP3    H151294   3.967   7.223   1.823  0.1342  2.1268  0.9204
 9033TIP3    H251295   4.058   7.336   1.781  0.9052  0.2960 -2.7007
 9034TIP3   OH251296   4.089   7.436   0.625 -0.0377  0.1209  0.4309
 9034TIP3    H151297   4.002   7.468   0.651 -0.7468 -2.2159  1.2846
 9034TIP3    H251298   4.084   7.427   0.530 -1.0309 -0.6711  0.5369
 9035TIP3   OH251299   2.535   3.165   2.684  0.7190  0.6674  0.3056
 9035TIP3    H151300   2.478   3.093   2.657  0.3072  1.0593  0.1101
 9035TIP3    H251301   2.504   3.188   2.772  2.2237 -0.7761  1.2689
 9036TIP3   OH251302   4.086   5.029   1.396 -0.3172 -0.5819  0.2607
 9036TIP3    H151303   4.044   5.066   1.319  0.3314 -1.1280 -0.3662
 9036TIP3    H251304   4.156   4.973   1.362  0.8516  0.2016  1.2665
 9037TIP3   OH251305   7.136   4.575   1.381 -0.0297  0.4612 -0.5825
 9037TIP3    H151306   7.136   4.544   1.291  0.7607 -0.7738 -0.1763
 9037TIP3    H251307   7.207   4.639   1.385  0.7476 -0.4029 -0.5375
 9038TIP3   OH251308   2.884   1.969   2.738 -0.1219  0.2641 -0.0606
 9038TIP3    H151309   2.843   1.890   2.773  1.2805 -0.3187  0.3551
 9038TIP3    H251310   2.978   1.955   2.751  0.2390  1.4635 -1.1087
 9039TIP3   OH251311   6.341   3.222   3.189  0.6521 -0.2615  0.1220
 9039TIP3    H151312   6.376   3.311   3.187  0.3674 -0.0993  1.2977
 9039TIP3    H251313   6.407   3.172   3.238 -0.4153 -0.0829  1.8253
 9040TIP3   OH251314   1.923   6.418   1.593  0.1469  0.0336 -0.5444
 9040TIP3    H151315   1.845   6.388   1.638 -0.4005  1.3405 -0.5644
 9040TIP3    H251316   1.995   6.373   1.636 -0.4736  0.2157  0.7084
 9041TIP3   OH251317   7.267   3.033   1.312 -0.0183  0.1358 -0.4544
 9041TIP3    H151318   7.228   3.071   1.391 -0.2409  0.8460 -0.8857
 9041TIP3    H251319   7.264   2.939   1.326 -2.4355  0.1135 -0.6780
 9042TIP3   OH251320   5.940   6.243   1.399 -0.0029  0.2110 -0.6194
 9042TIP3    H151321   5.963   6.199   1.317  0.0510  1.1963 -1.1482
 9042TIP3    H251322   6.023   6.248   1.447  0.2796  0.9685 -1.1668
 9043TIP3   OH251323   3.692   4.105   2.602 -0.5847  0.1856  0.1856
 9043TIP3    H151324   3.632   4.179   2.601  0.2392  0.8655 -0.8184
 9043TIP3    H251325   3.663   4.048   2.531 -0.4985  0.1450  0.1823
 9044TIP3   OH251326   4.330   5.725   2.273 -0.4527  0.4049 -0.0588
 9044TIP3    H151327   4.415   5.682   2.266 -0.0375  1.0073  1.0056
 9044TIP3    H251328   4.331   5.764   2.361 -2.2877 -0.5638  0.4348
 9045TIP3   OH251329   7.527   2.962   1.689  0.0293  0.2880  0.5159
 9045TIP3    H151330   7.472   3.014   1.747  1.6047  1.7290  0.8032
 9045TIP3    H251331   7.574   3.027   1.635 -0.7018 -0.9590 -1.7754
 9046TIP3   OH251332   2.420   0.757   2.750  0.1068  0.3831  0.1397
 9046TIP3    H151333   2.475   0.791   2.820 -1.2223  1.9731  0.4758
 9046TIP3    H251334   2.462   0.788   2.669 -0.4753  1.9058  0.4046
 9047TIP3   OH251335   1.514   2.062   1.663 -0.0376 -0.3758  0.1583
 9047TIP3    H151336   1.520   1.967   1.667 -1.5937 -0.4513  1.1463
 9047TIP3    H251337   1.543   2.092   1.749  0.6197  0.0742 -0.2089
 9048TIP3   OH251338   7.305   7.055   2.919  0.2389 -0.2082  0.1544
 9048TIP3    H151339   7.307   6.963   2.946  0.9524 -0.1838  0.2047
 9048TIP3    H251340   7.294   7.103   3.000  0.0799 -0.2422  0.1522
 9049TIP3   OH251341   7.232   4.791   0.539 -0.3256  0.2269 -0.0964
 9049TIP3    H151342   7.282   4.733   0.596 -0.5548 -0.0140 -0.1384
 9049TIP3    H251343   7.143   4.756   0.541 -0.6743  1.1290  0.6252
 9050TIP3   OH251344   4.794   4.418   0.343 -0.2396 -0.4601  0.2669
 9050TIP3    H151345   4.884   4.385   0.336 -0.1197 -0.1478  0.2950
 9050TIP3    H251346   4.739   4.340   0.337  0.0851 -0.8628  1.8850
 9051TIP3   OH251347   3.344   1.111   0.434  0.0746  0.0423  0.0532
 9051TIP3    H151348   3.332   1.111   0.528  1.0177 -0.7440  0.1959
 9051TIP3    H251349   3.438   1.093   0.422 -0.1174 -0.3149 -1.0317
 9052TIP3   OH251350   4.724   0.167   1.889 -0.7578 -0.2989 -0.2795
 9052TIP3    H151351   4.767   0.091   1.850 -0.8469 -0.7745  0.5509
 9052TIP3    H251352   4.768   0.181   1.972  0.3482  1.5511 -1.1107
 9053TIP3   OH251353   1.492   0.483   1.922  0.1162 -0.7817 -0.3319
 9053TIP3    H151354   1.409   0.529   1.938 -0.6855 -1.7777 -1.4922
 9053TIP3    H251355   1.553   0.523   1.984 -1.0038  0.5725 -0.0416
 9054TIP3   OH251356   5.932   5.192   0.699 -0.3204 -0.1123  0.0274
 9054TIP3    H151357   5.989   5.253   0.654 -1.0784  0.1500 -0.6001
 9054TIP3    H251358   5.991   5.124   0.733  0.8719  2.0396  2.7099
 9055TIP3   OH251359   3.103   6.564   1.084 -0.1010 -0.5478  0.3297
 9055TIP3    H151360   3.076   6.588   1.172 -0.3778 -0.2772  0.1759
 9055TIP3    H251361   3.163   6.633   1.057 -0.0316 -0.6190  0.3000
 9056TIP3   OH251362   0.960   5.732   2.778  0.3348  0.3436 -0.2818
 9056TIP3    H151363   1.036   5.754   2.831 -0.9575  1.1920  1.3020
 9056TIP3    H251364   0.978   5.771   2.693  1.8951  0.0473 -0.1200
 9057TIP3   OH251365   4.674   6.559   2.216  0.1575 -0.1456 -0.1500
 9057TIP3    H151366   4.736   6.486   2.219  0.3733  0.0327 -0.1733
 9057TIP3    H251367   4.715   6.626   2.271 -0.2079 -0.1717  0.1529
 9058TIP3   OH251368   4.086   1.754   1.144  0.2281 -0.6074 -0.3798
 9058TIP3    H151369   4.180   1.771   1.132  0.4727 -2.2738 -1.1464
 9058TIP3    H251370   4.071   1.769   1.237  0.9704  0.8465 -0.4543
 9059TIP3   OH251371   5.039   3.331   1.180  0.2307  0.0467 -0.2333
 9059TIP3    H151372   5.000   3.355   1.096  0.2129  0.3414 -0.1436
 9059TIP3    H251373   5.012   3.401   1.239  0.1716 -0.2024  0.0393
 9060TIP3   OH251374   2.213   7.203   2.082  0.2980  0.4464  0.1277
 9060TIP3    H151375   2.156   7.172   2.011  0.5548  0.8955 -0.2766
 9060TIP3    H251376   2.245   7.288   2.052  1.8234 -0.1479 -0.0083
 9061TIP3   OH251377   6.993   6.661   0.720  0.1622  0.8017  0.4856
 9061TIP3    H151378   6.898   6.650   0.714  0.2195  1.0609 -1.6227
 9061TIP3    H251379   7.027   6.571   0.725 -0.0507  0.3909 -3.0242
 9062TIP3   OH251380   6.808   5.534   2.239  0.4809 -0.9952  0.0748
 9062TIP3    H151381   6.783   5.469   2.173 -1.3102 -1.4821  1.1541
 9062TIP3    H251382   6.851   5.603   2.189 -0.6594 -1.4174 -1.6003
 9063TIP3   OH251383   7.384   0.934   2.217  0.1172 -0.0183 -0.3136
 9063TIP3    H151384   7.339   0.896   2.141 -0.0525 -0.7173  0.1249
 9063TIP3    H251385   7.316   0.983   2.263 -0.2423 -1.0956  0.3625
 9064TIP3   OH251386   3.044   2.872   2.706 -0.0375  0.0833  0.6070
 9064TIP3    H151387   3.114   2.817   2.740 -0.2647  0.0873  1.0840
 9064TIP3    H251388   3.022   2.834   2.621  0.1153 -0.2844  0.7328
 9065TIP3   OH251389   4.770   6.300   1.436  0.2606 -0.2693 -0.0554
 9065TIP3    H151390   4.796   6.274   1.348  1.4486 -0.2806  0.2682
 9065TIP3    H251391   4.780   6.221   1.489  1.3042  0.1481  0.4173
 9066TIP3   OH251392   0.588   0.067   0.839 -0.5804  0.0932  0.0955
 9066TIP3    H151393   0.618   0.013   0.765  0.7135  3.0931 -1.7626
 9066TIP3    H251394   0.501   0.098   0.812 -2.5581 -2.9141  2.3357
 9067TIP3   OH251395   5.181   1.262   1.295  0.0346  0.2046 -0.0029
 9067TIP3    H151396   5.248   1.311   1.343  1.1654 -0.6429 -0.6669
 9067TIP3    H251397   5.206   1.271   1.203 -0.8305 -0.0306 -0.2656
 9068TIP3   OH251398   1.121   7.114   2.711  0.1670  0.5148 -0.1787
 9068TIP3    H151399   1.053   7.113   2.778  1.2578  0.7368  0.9847
 9068TIP3    H251400   1.145   7.206   2.702  0.8332  0.3716  0.0087
 9069TIP3   OH251401   3.351   3.163   0.556  0.1907 -0.0476 -0.2383
 9069TIP3    H151402   3.435   3.173   0.511 -0.0001 -0.0645 -0.6020
 9069TIP3    H251403   3.313   3.251   0.557  0.2158 -0.0387 -0.0704
 9070TIP3   OH251404   5.060   3.543   0.966  0.0658 -0.6605  0.1794
 9070TIP3    H151405   4.989   3.572   1.024 -0.6492 -0.6377 -0.6834
 9070TIP3    H251406   5.030   3.566   0.878  0.4800 -1.9742 -0.3291
 9071TIP3   OH251407   6.413   5.910   2.007 -0.5007  0.0926  0.5042
 9071TIP3    H151408   6.446   5.841   1.949 -0.1901  0.7755 -0.1506
 9071TIP3    H251409   6.318   5.902   2.002 -0.4660 -0.5135  0.7126
 9072TIP3   OH251410   0.617   7.470   2.016 -0.0389 -0.7512  0.5101
 9072TIP3    H151411   0.526   7.443   2.008  0.2505 -1.2031 -2.5177
 9072TIP3    H251412   0.616   7.539   2.083 -3.1606  1.3746 -1.4635
 9073TIP3   OH251413   0.388   4.899   0.973  0.0573  0.5452  0.1535
 9073TIP3    H151414   0.294   4.880   0.973  0.2369 -1.3595  4.0502
 9073TIP3    H251415   0.394   4.994   0.969 -2.2895  0.9121  2.8228
 9074TIP3   OH251416   4.610   2.590   0.772  0.2753  0.1001  0.0762
 9074TIP3    H151417   4.678   2.605   0.707 -0.3668  0.0001 -0.6318
 9074TIP3    H251418   4.535   2.559   0.722 -0.7951  1.6362  0.6364
 9075TIP3   OH251419   6.846   1.124   1.891 -0.0231 -0.0253  0.2522
 9075TIP3    H151420   6.782   1.114   1.961 -0.1896  1.8338  0.4058
 9075TIP3    H251421   6.925   1.154   1.935 -0.3610  1.9517 -0.3751
 9076TIP3   OH251422   5.018   4.167   2.033  0.0739  0.4139 -0.2201
 9076TIP3    H151423   4.941   4.140   2.083 -1.0107 -0.9497 -2.4439
 9076TIP3    H251424   5.041   4.253   2.068 -1.0618 -0.1287  2.0324
 9077TIP3   OH251425   1.980   4.594   3.046 -0.5579 -0.1512 -0.3960
 9077TIP3    H151426   1.957   4.616   3.136 -1.6268 -0.8455 -0.4856
 9077TIP3    H251427   2.045   4.660   3.021  0.0462 -0.1857  1.0005
 9078TIP3   OH251428   2.850   3.272   2.159 -0.1595  0.0210  0.1214
 9078TIP3    H151429   2.926   3.215   2.147 -0.6127 -0.5243 -0.1997
 9078TIP3    H251430   2.797   3.228   2.226 -1.0895 -0.5536 -0.9715
 9079TIP3   OH251431   0.708   4.221   2.579 -0.2294 -0.2473  0.0050
 9079TIP3    H151432   0.762   4.217   2.500 -0.9301  1.4283 -0.5866
 9079TIP3    H251433   0.757   4.168   2.643  1.7659  0.6248 -0.6999
 9080TIP3   OH251434   1.497   1.301   2.703  0.8108  0.0247  0.7373
 9080TIP3    H151435   1.461   1.364   2.766  2.2291  0.6348  0.9979
 9080TIP3    H251436   1.425   1.243   2.683 -1.0826  2.6680 -0.7602
 9081TIP3   OH251437   3.060   5.074   1.116 -0.2127 -0.3770 -0.8243
 9081TIP3    H151438   3.068   5.166   1.138 -0.4908 -0.1106 -1.7796
 9081TIP3    H251439   3.135   5.057   1.058 -0.0511 -0.8046 -0.4962
 9082TIP3   OH251440   6.945   2.014   1.051 -0.4573  0.0550 -0.3591
 9082TIP3    H151441   7.016   2.001   0.988 -0.6750 -1.9025 -0.2738
 9082TIP3    H251442   6.892   1.934   1.043 -0.5437 -0.2260  2.2328
 9083TIP3   OH251443   6.003   4.148   2.071 -0.0331  0.0337 -1.0392
 9083TIP3    H151444   6.024   4.151   2.165  1.4865 -1.3499 -1.3007
 9083TIP3    H251445   5.914   4.113   2.068  0.9761 -2.8919 -0.1562
 9084TIP3   OH251446   0.490   4.176   2.418  0.0893  0.0836 -0.5510
 9084TIP3    H151447   0.558   4.177   2.486 -1.9437  0.3162  1.6042
 9084TIP3    H251448   0.469   4.269   2.404 -0.5362 -0.0284 -0.3822
 9085TIP3   OH251449   0.557   7.158   2.225 -0.0292 -0.8626  0.1872
 9085TIP3    H151450   0.641   7.197   2.199 -0.8092 -0.8276 -2.7053
 9085TIP3    H251451   0.577   7.105   2.302  2.5127 -0.3655 -0.0488
 9086TIP3   OH251452   3.332   0.978   2.289  0.0477  0.3887  0.1933
 9086TIP3    H151453   3.242   1.005   2.273  0.7295  2.6334 -0.2188
 9086TIP3    H251454   3.378   1.001   2.208  1.0382 -0.5532  0.4672
 9087TIP3   OH251455   0.937   6.168   0.490  0.0276  0.5115  0.3141
 9087TIP3    H151456   1.002   6.170   0.419 -1.7161  1.1049 -1.3651
 9087TIP3    H251457   0.939   6.256   0.527 -1.8460  1.5522 -1.7952
 9088TIP3   OH251458   7.436   4.776   2.178  0.3470  0.0325  0.0285
 9088TIP3    H151459   7.508   4.725   2.141  0.6782  0.9481 -0.6112
 9088TIP3    H251460   7.416   4.732   2.261 -0.5386 -2.1887 -1.2742
 9089TIP3   OH251461   6.830   1.905   2.469  0.5655 -0.0404  0.6784
 9089TIP3    H151462   6.872   1.831   2.512  1.3339  0.5191  0.9184
 9089TIP3    H251463   6.903   1.955   2.431 -0.0330 -0.0816 -0.5725
 9090TIP3   OH251464   3.744   2.050   2.379  0.1246 -0.2306  0.4164
 9090TIP3    H151465   3.793   2.119   2.333  0.0429  0.6808  1.6516
 9090TIP3    H251466   3.668   2.095   2.416 -2.3190 -1.7584 -2.2785
 9091TIP3   OH251467   7.043   6.047   1.317  0.0006  0.0665  0.5486
 9091TIP3    H151468   6.990   6.125   1.297  1.0495  0.6330 -0.1181
 9091TIP3    H251469   6.987   5.973   1.295  0.1215  0.6481 -1.9826
 9092TIP3   OH251470   2.150   5.680   1.287  0.0226 -0.1802 -0.6678
 9092TIP3    H151471   2.239   5.673   1.252  0.2116 -1.6356  0.0458
 9092TIP3    H251472   2.143   5.772   1.315  1.7633 -0.3289  0.4205
 9093TIP3   OH251473   6.511   6.848   1.528 -0.2312  0.8573  1.0390
 9093TIP3    H151474   6.507   6.933   1.484 -1.7126 -0.0658 -0.7384
 9093TIP3    H251475   6.436   6.848   1.586 -1.1364  0.2192 -0.0923
 9094TIP3   OH251476   4.228   1.142   2.715 -0.7441 -0.3226 -0.1828
 9094TIP3    H151477   4.224   1.188   2.798 -1.4752  0.6268 -0.7195
 9094TIP3    H251478   4.291   1.071   2.729 -0.6167  0.0200  1.0659
 9095TIP3   OH251479   2.603   6.847   1.686  0.4660  0.2783 -0.3764
 9095TIP3    H151480   2.635   6.933   1.712  0.5510  0.5708 -1.4096
 9095TIP3    H251481   2.555   6.862   1.605 -1.2660 -0.3516  0.4794
 9096TIP3   OH251482   5.424   1.017   3.260 -0.2234  0.0979  0.7000
 9096TIP3    H151483   5.446   0.926   3.238 -1.4857 -0.3093  1.0450
 9096TIP3    H251484   5.496   1.046   3.316  0.9973 -0.1528 -0.6582
 9097TIP3   OH251485   2.969   6.088   1.624  0.1498  0.5798 -0.3666
 9097TIP3    H151486   2.976   5.994   1.640  1.8592  0.7094 -0.1952
 9097TIP3    H251487   2.880   6.099   1.589  0.1821 -1.1979 -1.1491
 9098TIP3   OH251488   7.115   3.273   0.968 -0.2449  0.2731  0.2494
 9098TIP3    H151489   7.022   3.249   0.975 -0.9721  2.2856 -1.3073
 9098TIP3    H251490   7.116   3.368   0.981  1.2021  0.6986 -2.1730
 9099TIP3   OH251491   5.849   5.703   2.285 -0.2871 -0.4860 -0.3712
 9099TIP3    H151492   5.855   5.629   2.345 -0.3449  0.5750  1.0103
 9099TIP3    H251493   5.876   5.668   2.200  0.8411 -1.8075  0.4844
 9100TIP3   OH251494   0.717   5.546   3.032  0.0463  0.3425 -0.4704
 9100TIP3    H151495   0.766   5.504   3.103 -1.1594  0.6300  0.5732
 9100TIP3    H251496   0.763   5.628   3.016 -1.3257  1.7282  2.1202
 9101TIP3   OH251497   6.893   2.232   1.463  0.0582  0.2618  0.5550
 9101TIP3    H151498   6.940   2.307   1.428  0.4960  0.1147  0.8158
 9101TIP3    H251499   6.942   2.207   1.541  1.5162 -1.9186 -0.9209
 9102TIP3   OH251500   3.933   3.377   2.134 -0.1849  0.0056  0.0259
 9102TIP3    H151501   3.912   3.394   2.226 -0.2629 -1.5150  0.3132
 9102TIP3    H251502   3.901   3.454   2.088 -1.7793  0.0019  1.0551
 9103TIP3   OH251503   5.952   3.109   0.898  0.2269  0.0758  0.1786
 9103TIP3    H151504   6.000   3.123   0.979 -1.0006 -2.7357  1.5003
 9103TIP3    H251505   6.017   3.073   0.837  1.0131  1.6576  0.0330
 9104TIP3   OH251506   0.780   0.869   1.797  0.5899 -0.4001 -0.0224
 9104TIP3    H151507   0.841   0.888   1.868  0.2450 -0.3211  0.2577
 9104TIP3    H251508   0.725   0.798   1.831  0.1781 -0.1048 -0.0594
 9105TIP3   OH251509   2.772   3.632   2.899  0.1456 -0.2849 -0.2021
 9105TIP3    H151510   2.709   3.647   2.969 -1.4703 -1.2968 -1.3572
 9105TIP3    H251511   2.841   3.579   2.939 -0.5384 -0.5166  0.6927
 9106TIP3   OH251512   1.594   3.745   1.395  0.5070  0.3392  0.4149
 9106TIP3    H151513   1.627   3.665   1.355 -1.6805  2.0050 -5.8062
 9106TIP3    H251514   1.661   3.811   1.376  0.2426  0.9073  1.3681
 9107TIP3   OH251515   6.677   1.800   1.331 -1.0061 -0.6823  0.4648
 9107TIP3    H151516   6.667   1.895   1.338  1.3600 -0.4372  1.2563
 9107TIP3    H251517   6.677   1.769   1.421 -0.8354 -1.3305  0.2496
 9108TIP3   OH251518   3.624   4.680   1.178  0.0525 -0.0188 -0.1008
 9108TIP3    H151519   3.622   4.751   1.241  0.0843 -0.1158  0.0110
 9108TIP3    H251520   3.539   4.637   1.187  0.0768 -0.0642 -0.0879
 9109TIP3   OH251521   5.423   7.325   2.406 -0.1587  0.0567 -0.0998
 9109TIP3    H151522   5.339   7.320   2.452  0.2471  2.1187  0.9808
 9109TIP3    H251523   5.489   7.325   2.476  0.7721 -1.4458 -0.9247
 9110TIP3   OH251524   3.303   5.744   1.256 -0.0263  0.0822 -0.7644
 9110TIP3    H151525   3.246   5.691   1.312  0.3353 -1.8645 -2.1116
 9110TIP3    H251526   3.386   5.749   1.303 -0.4676  0.5704 -0.0316
 9111TIP3   OH251527   6.993   7.119   1.776  0.3569  0.2560 -0.2258
 9111TIP3    H151528   6.999   7.150   1.686  1.8481  1.3500  0.2213
 9111TIP3    H251529   7.023   7.192   1.830  0.4994 -0.7293  1.1021
 9112TIP3   OH251530   5.263   6.581   1.327 -0.3271  0.4855 -0.1894
 9112TIP3    H151531   5.351   6.618   1.334 -0.4816  0.7098  0.6116
 9112TIP3    H251532   5.205   6.657   1.328 -0.5604  0.3094 -0.1872
 9113TIP3   OH251533   1.102   6.245   1.343  0.4836 -0.1829  0.2012
 9113TIP3    H151534   1.049   6.179   1.297  0.2013 -0.5935  1.0877
 9113TIP3    H251535   1.132   6.200   1.422  0.3533  0.7268  0.7772
 9114TIP3   OH251536   1.800   1.212   2.287  0.1907  0.5288 -0.1896
 9114TIP3    H151537   1.869   1.147   2.275 -1.7560 -1.6800 -0.2131
 9114TIP3    H251538   1.738   1.170   2.347 -3.0548  0.6322 -3.1197
 9115TIP3   OH251539   1.661   5.634   2.222  0.5058  0.0911  0.8055
 9115TIP3    H151540   1.699   5.554   2.260 -0.0186 -0.1123  0.9127
 9115TIP3    H251541   1.570   5.610   2.203  0.4882  0.5089  0.3625
 9116TIP3   OH251542   4.478   3.160   2.109  0.7179  0.0876 -0.1133
 9116TIP3    H151543   4.570   3.184   2.104  0.7140 -0.1181 -1.5467
 9116TIP3    H251544   4.431   3.237   2.076  0.1837  1.0853  2.6822
 9117TIP3   OH251545   2.089   0.619   0.775 -0.0158  0.1040  0.5008
 9117TIP3    H151546   2.171   0.669   0.768 -0.1346  0.3135  0.5840
 9117TIP3    H251547   2.097   0.573   0.859  0.9938 -1.6603 -0.5184
 9118TIP3   OH251548   6.171   1.525   1.980 -0.2035  0.5199  0.1304
 9118TIP3    H151549   6.158   1.575   1.899 -1.8159  0.0676  0.0707
 9118TIP3    H251550   6.082   1.502   2.007  0.4373 -1.2164  0.8461
 9119TIP3   OH251551   7.322   6.686   0.377 -0.8517  1.5029 -0.4884
 9119TIP3    H151552   7.289   6.632   0.306 -2.0364  2.4716 -0.7114
 9119TIP3    H251553   7.321   6.628   0.454 -0.5371  0.7530 -1.0443
 9120TIP3   OH251554   1.684   2.881   1.539 -0.4519 -0.0172  0.0096
 9120TIP3    H151555   1.683   2.792   1.576  0.6619 -0.5351 -1.1156
 9120TIP3    H251556   1.747   2.928   1.592 -0.9699  0.0878  0.5458
 9121TIP3   OH251557   3.437   0.236   1.175  0.1402  0.5411 -0.0216
 9121TIP3    H151558   3.436   0.295   1.100 -1.3521  1.2245  0.4889
 9121TIP3    H251559   3.393   0.157   1.143  0.5857  0.3598 -0.2000
 9122TIP3   OH251560   5.157   5.050   1.948  0.1840 -0.4348 -0.0070
 9122TIP3    H151561   5.221   5.044   1.877 -0.4239 -0.8809 -0.5330
 9122TIP3    H251562   5.157   5.142   1.973  1.5511 -0.5561  0.4920
 9123TIP3   OH251563   5.634   3.316   1.389 -0.4520  0.2713  0.3634
 9123TIP3    H151564   5.620   3.349   1.300 -2.0433  0.6131  0.7000
 9123TIP3    H251565   5.561   3.256   1.403 -1.2835  1.5734  2.0412
 9124TIP3   OH251566   1.147   7.483   2.035 -0.2771  0.0020 -0.0291
 9124TIP3    H151567   1.163   7.388   2.034 -1.3538 -0.2672  2.3215
 9124TIP3    H251568   1.053   7.491   2.022 -0.3843  0.6767  1.1151
 9125TIP3   OH251569   5.884   6.709   1.054 -0.0283 -0.5544 -0.0308
 9125TIP3    H151570   5.800   6.676   1.085 -0.4527  1.1614  0.7751
 9125TIP3    H251571   5.946   6.684   1.122  0.0563 -1.5089 -0.4516
 9126TIP3   OH251572   6.506   5.695   1.852 -0.0007 -0.5320 -0.0483
 9126TIP3    H151573   6.596   5.706   1.884 -0.9925 -0.5735  3.0975
 9126TIP3    H251574   6.489   5.601   1.859  0.0090 -0.6700 -1.6315
 9127TIP3   OH251575   3.261   0.586   1.925  0.1439  0.3965  0.2879
 9127TIP3    H151576   3.282   0.501   1.962  3.5350  1.1091  0.3565
 9127TIP3    H251577   3.247   0.643   2.001  1.3438  0.6013  0.3774
 9128TIP3   OH251578   5.525   2.690   0.583  0.4536 -0.3193 -0.3416
 9128TIP3    H151579   5.524   2.702   0.677 -1.1963 -1.1277 -0.2138
 9128TIP3    H251580   5.495   2.774   0.547 -1.2067 -0.7127  0.0132
 9129TIP3   OH251581   2.441   6.650   2.333  0.1057  0.0247 -0.0853
 9129TIP3    H151582   2.479   6.600   2.261 -0.6684 -1.6913  0.6548
 9129TIP3    H251583   2.447   6.741   2.304 -0.2047 -0.6047 -2.3388
 9130TIP3   OH251584   3.270   4.015   3.126 -0.0375  0.6475  0.3697
 9130TIP3    H151585   3.225   3.957   3.186 -0.4726 -1.0020 -1.4549
 9130TIP3    H251586   3.209   4.088   3.113 -0.6527  0.1886  0.6475
 9131TIP3   OH251587   5.963   0.876   1.166 -0.4946  0.0386 -0.4286
 9131TIP3    H151588   5.999   0.962   1.188 -1.3708  0.1721  0.5483
 9131TIP3    H251589   5.872   0.879   1.196 -0.3633 -1.4452  0.2295
 9132TIP3   OH251590   1.517   6.372   0.826 -0.3468  0.7161 -0.1782
 9132TIP3    H151591   1.484   6.430   0.895 -0.0307  0.0382  0.5582
 9132TIP3    H251592   1.501   6.284   0.859  0.2809  0.3811 -0.7393
 9133TIP3   OH251593   2.180   4.684   1.634 -0.0847 -0.2636 -0.2446
 9133TIP3    H151594   2.170   4.770   1.593  0.3314  0.7067  1.6093
 9133TIP3    H251595   2.149   4.622   1.567  0.6922  1.2091 -2.0627
 9134TIP3   OH251596   2.735   4.689   1.876  0.7901 -0.0869  0.2885
 9134TIP3    H151597   2.782   4.725   1.801  0.0803  1.3698  0.5130
 9134TIP3    H251598   2.800   4.687   1.946  1.5642 -1.8127 -0.4168
 9135TIP3   OH251599   3.785   1.872   0.885 -0.2577 -0.2767  0.6146
 9135TIP3    H151600   3.735   1.863   0.804  1.1824 -0.4298 -0.2974
 9135TIP3    H251601   3.719   1.891   0.952 -1.3688  1.0318 -0.7767
 9136TIP3   OH251602   0.036   3.653   3.386 -0.4458 -0.3595  0.9634
 9136TIP3    H151603   0.004   3.648   3.296 -1.7082  0.2329  1.3582
 9136TIP3    H251604  -0.043   3.659   3.440  0.2440  3.3360  1.8534
 9137TIP3   OH251605   2.754   3.320   0.451 -0.0968 -0.2012 -0.4125
 9137TIP3    H151606   2.677   3.368   0.481 -0.0139 -1.2226  1.5652
 9137TIP3    H251607   2.719   3.241   0.411 -0.1026 -1.5294  2.0669
 9138TIP3   OH251608   7.051   5.228   0.602 -0.3188 -0.3301 -0.1174
 9138TIP3    H151609   7.125   5.236   0.662  0.4918  0.2681 -1.1531
 9138TIP3    H251610   7.082   5.167   0.535 -0.5380  0.3718 -0.8726
 9139TIP3   OH251611   5.171   6.780   3.296  0.0535 -0.0320 -0.1254
 9139TIP3    H151612   5.258   6.787   3.334 -0.2087 -0.7278  0.6306
 9139TIP3    H251613   5.118   6.740   3.365 -0.5233 -0.9736 -1.0766
 9140TIP3   OH251614   6.371   0.290   3.131  0.0138 -0.4387 -0.0085
 9140TIP3    H151615   6.408   0.223   3.189  0.3084 -1.5753 -1.4384
 9140TIP3    H251616   6.440   0.304   3.065 -1.3880 -1.3570 -1.7550
 9141TIP3   OH251617   4.286   4.765   0.900  0.4478 -0.2724  0.1152
 9141TIP3    H151618   4.375   4.794   0.883  0.1345  0.9043  0.4323
 9141TIP3    H251619   4.286   4.672   0.875  1.4134  0.0369 -1.1237
 9142TIP3   OH251620   4.500   3.540   1.068  0.1975  0.3348 -0.6165
 9142TIP3    H151621   4.415   3.528   1.109  1.2566 -0.6185  1.4392
 9142TIP3    H251622   4.482   3.590   0.988 -2.2121  0.4739 -0.0368
 9143TIP3   OH251623   4.378   2.041   1.276  0.4019  0.6170  0.1623
 9143TIP3    H151624   4.434   2.114   1.251  1.1951  0.1941  0.6568
 9143TIP3    H251625   4.400   2.025   1.368  2.8611 -2.4788 -0.7560
 9144TIP3   OH251626   7.115   7.029   1.107  0.2982 -0.2894  0.3737
 9144TIP3    H151627   7.092   6.985   1.025 -1.7488 -0.7373  1.1446
 9144TIP3    H251628   7.034   7.068   1.138  1.5293  1.9414  1.0176
 9145TIP3   OH251629   4.405   1.356   1.973  0.4447 -0.1916 -0.2045
 9145TIP3    H151630   4.433   1.377   1.884 -0.6884  1.4956 -0.2096
 9145TIP3    H251631   4.373   1.266   1.968 -0.8773  0.3149 -1.8501
 9146TIP3   OH251632   2.339   2.545   1.895 -0.0062  0.4834 -0.4808
 9146TIP3    H151633   2.393   2.621   1.918 -0.8376  0.4382  1.8390
 9146TIP3    H251634   2.251   2.580   1.886 -0.1925 -0.0236 -0.6315
 9147TIP3   OH251635   2.014   4.830   3.240 -0.5625 -0.1402 -0.2192
 9147TIP3    H151636   1.921   4.851   3.234 -0.1245  2.0240 -0.2687
 9147TIP3    H251637   2.037   4.849   3.330 -0.4285 -2.1021  0.2120
 9148TIP3   OH251638   2.184   6.592   2.334 -0.5004 -0.4200 -0.4850
 9148TIP3    H151639   2.185   6.680   2.296 -0.4857 -0.4766 -0.6154
 9148TIP3    H251640   2.275   6.573   2.355 -0.5279 -0.3233 -0.2673
 9149TIP3   OH251641   1.398   3.186   2.532  0.3853  0.2160  0.1371
 9149TIP3    H151642   1.309   3.218   2.520  1.0076  1.9108 -0.1817
 9149TIP3    H251643   1.403   3.162   2.625 -0.3571  0.1907  0.1756
 9150TIP3   OH251644   7.234   2.373   2.416  0.4574  0.5377  0.2538
 9150TIP3    H151645   7.270   2.454   2.383 -2.0532  1.9543  0.7351
 9150TIP3    H251646   7.213   2.321   2.338  2.0249  0.3163 -0.0513
 9151TIP3   OH251647   1.546   7.253   2.857  0.2287 -0.3289  0.2659
 9151TIP3    H151648   1.520   7.315   2.789 -1.9924  0.4155  1.6653
 9151TIP3    H251649   1.464   7.232   2.902  1.7991  0.6804  3.9112
 9152TIP3   OH251650   6.177   3.436   1.961 -0.2989 -0.2643 -0.7509
 9152TIP3    H151651   6.206   3.457   2.050  1.6054  0.8767 -1.5734
 9152TIP3    H251652   6.097   3.488   1.949 -1.7653 -1.9760  0.9091
 9153TIP3   OH251653   0.821   3.777   1.229 -0.2801 -0.1575  0.2158
 9153TIP3    H151654   0.726   3.770   1.226 -0.3336  0.4540  0.4013
 9153TIP3    H251655   0.850   3.745   1.143 -0.7452  0.9849 -0.3876
 9154TIP3   OH251656   1.617   0.646   2.102 -0.1379  0.0461 -0.4358
 9154TIP3    H151657   1.648   0.712   2.040  1.2518  1.1433  1.3158
 9154TIP3    H251658   1.611   0.692   2.186 -2.0371 -1.3532  0.2724
 9155TIP3   OH251659   6.087   5.442   2.710  0.1291  0.1276  0.3496
 9155TIP3    H151660   6.180   5.456   2.694  0.3459 -1.2155  0.2748
 9155TIP3    H251661   6.078   5.444   2.805  0.0223  1.3877  0.3266
 9156TIP3   OH251662   2.546   5.798   2.496 -0.3396  0.2894  0.5216
 9156TIP3    H151663   2.468   5.759   2.456  0.3779 -0.9981  0.3285
 9156TIP3    H251664   2.601   5.824   2.422 -0.0916  0.1653  0.6607
 9157TIP3   OH251665   5.859   5.167   1.585 -0.0867  0.4683  0.1441
 9157TIP3    H151666   5.922   5.239   1.596  0.4684  0.0509 -0.2326
 9157TIP3    H251667   5.854   5.154   1.490  0.4187 -0.4974  0.2344
 9158TIP3   OH251668   3.836   1.557   1.834  0.1493 -0.5872 -0.5586
 9158TIP3    H151669   3.794   1.519   1.911  3.2452 -0.9739  1.0870
 9158TIP3    H251670   3.813   1.650   1.839 -1.3037 -0.9275 -0.3370
 9159TIP3   OH251671   3.777   5.290   3.146 -0.1451 -0.1082  1.0818
 9159TIP3    H151672   3.815   5.203   3.133 -0.8045 -0.0836 -1.4539
 9159TIP3    H251673   3.850   5.350   3.130 -0.5723 -0.1340 -1.2707
 9160TIP3   OH251674   1.227   5.249   2.402 -0.4792  0.2365 -0.4214
 9160TIP3    H151675   1.180   5.172   2.368 -0.8693  1.1179 -2.0226
 9160TIP3    H251676   1.190   5.322   2.353  1.1494  1.2220 -0.2547
 9161TIP3   OH251677   5.036   0.437   1.911  0.0279 -0.2676  0.0407
 9161TIP3    H151678   4.993   0.497   1.972  1.9838 -0.3379  1.5859
 9161TIP3    H251679   5.046   0.356   1.961  1.2908 -0.4612 -0.4872
 9162TIP3   OH251680   2.628   5.385   2.276 -0.6237  0.2496  0.8870
 9162TIP3    H151681   2.642   5.451   2.208 -0.8269  1.1950  1.7450
 9162TIP3    H251682   2.550   5.414   2.322 -0.3748 -0.2759  1.6593
 9163TIP3   OH251683   2.499   7.391   2.972 -0.7875 -0.2106 -0.1671
 9163TIP3    H151684   2.475   7.362   3.060 -0.1661 -3.1502 -0.8715
 9163TIP3    H251685   2.426   7.364   2.917  0.5548 -2.0694 -1.1188
 9164TIP3   OH251686   4.361   5.438   2.340  0.0100 -0.0035  0.1262
 9164TIP3    H151687   4.286   5.415   2.286 -0.3908  0.1725  0.6031
 9164TIP3    H251688   4.391   5.354   2.377 -0.0802 -0.0459  0.1019
 9165TIP3   OH251689   0.158   1.863   0.969  0.0007  0.0919 -0.0021
 9165TIP3    H151690   0.122   1.790   0.918  0.0323  0.9283 -1.2543
 9165TIP3    H251691   0.252   1.860   0.953  0.0625  0.0923  0.3592
 9166TIP3   OH251692   4.515   5.192   2.434  0.1482 -0.3005 -0.5048
 9166TIP3    H151693   4.584   5.166   2.496  0.7473  1.3425 -0.4169
 9166TIP3    H251694   4.452   5.120   2.437  0.7080 -0.7881  1.1886
 9167TIP3   OH251695   4.077   1.377   2.557 -0.3163  0.2014  0.4242
 9167TIP3    H151696   3.989   1.390   2.594 -0.4100  0.7742  0.0203
 9167TIP3    H251697   4.092   1.455   2.503  0.1801 -0.2002 -0.0303
 9168TIP3   OH251698   4.421   1.838   0.474  0.1079  0.2744 -0.4184
 9168TIP3    H151699   4.357   1.784   0.521  2.0002 -0.5506  1.3718
 9168TIP3    H251700   4.390   1.928   0.487 -0.4981 -0.0777  0.7421
 9169TIP3   OH251701   3.799   1.040   1.095 -0.2463 -0.1455 -0.3238
 9169TIP3    H151702   3.861   0.992   1.151  1.4093  1.7818 -0.4004
 9169TIP3    H251703   3.784   0.981   1.021 -2.4716 -2.7794  1.9491
 9170TIP3   OH251704   3.101   7.531   2.667 -0.0792 -0.3793  0.5317
 9170TIP3    H151705   3.094   7.626   2.681  0.3687 -0.2569 -0.0675
 9170TIP3    H251706   3.061   7.516   2.582 -1.3451 -0.9208  1.1862
 9171TIP3   OH251707   3.961   6.468   1.908  0.4986  0.2624 -0.3176
 9171TIP3    H151708   3.994   6.489   1.820  0.3963 -2.8363 -1.2144
 9171TIP3    H251709   4.040   6.451   1.960  0.5180 -0.7067 -0.6422
 9172TIP3   OH251710   4.306   4.422   2.655  0.1985  0.1140  0.3476
 9172TIP3    H151711   4.271   4.401   2.742  0.2534 -1.6072 -0.0236
 9172TIP3    H251712   4.236   4.398   2.595  0.2015  1.2097 -0.1227
 9173TIP3   OH251713   5.001   0.009   1.105  0.1526  0.3835  0.1122
 9173TIP3    H151714   4.979   0.095   1.142 -0.9739 -0.2258  0.9138
 9173TIP3    H251715   5.086  -0.013   1.143  1.5853  2.1115 -1.8495
 9174TIP3   OH251716   5.444   6.102   2.493 -0.0265  0.6078  0.2125
 9174TIP3    H151717   5.526   6.055   2.505 -0.6115 -0.7489 -0.8709
 9174TIP3    H251718   5.419   6.130   2.581  0.2089 -1.3684  0.9501
 9175TIP3   OH251719   6.495   5.246   2.670 -0.0599  0.3519 -1.1153
 9175TIP3    H151720   6.521   5.330   2.707  0.1248  0.1436 -0.7737
 9175TIP3    H251721   6.570   5.189   2.683  0.2238  0.4138 -2.2915
 9176TIP3   OH251722   4.509   4.512   2.483  0.4654  0.7971  0.4707
 9176TIP3    H151723   4.462   4.466   2.553  2.2358 -1.3523  0.3292
 9176TIP3    H251724   4.450   4.509   2.408 -0.0607  0.1036  0.9089
 9177TIP3   OH251725   1.890   3.099   0.906  0.0179 -0.0907  0.8481
 9177TIP3    H151726   1.878   3.189   0.878  0.1095  0.6294  2.9150
 9177TIP3    H251727   1.984   3.093   0.926  0.2604 -1.0384 -0.4330
 9178TIP3   OH251728   4.641   6.038   2.320 -0.6512  0.1767  0.3563
 9178TIP3    H151729   4.649   5.949   2.354 -1.2732  0.4542  1.2738
 9178TIP3    H251730   4.588   6.084   2.386  1.8339  1.9357  1.2858
 9179TIP3   OH251731   5.026   5.074   1.509  0.1665 -0.0906  0.2824
 9179TIP3    H151732   5.046   4.980   1.506 -0.3689 -0.2183  0.4616
 9179TIP3    H251733   4.948   5.079   1.565 -1.1423  0.2228 -1.4810
 9180TIP3   OH251734   4.874   3.948   0.892 -0.0091  0.3459  0.2635
 9180TIP3    H151735   4.793   3.898   0.896 -0.4085  1.0148  0.9734
 9180TIP3    H251736   4.921   3.923   0.972 -0.4553  1.4615  0.9042
 9181TIP3   OH251737   5.796   0.766   0.420 -0.6129 -0.0791  0.3234
 9181TIP3    H151738   5.785   0.673   0.440  1.1372  0.0429  2.1984
 9181TIP3    H251739   5.754   0.811   0.493  0.5728  0.5240  0.6618
 9182TIP3   OH251740   0.995   3.454   1.078  0.1050  0.0765 -0.0009
 9182TIP3    H151741   0.923   3.395   1.097  1.0234 -1.0135  0.2244
 9182TIP3    H251742   1.048   3.454   1.158  0.3630  0.8446 -0.1642
 9183TIP3   OH251743   6.331   2.715   1.928 -0.7097 -0.6765 -0.2148
 9183TIP3    H151744   6.420   2.750   1.922 -1.1883  0.4162 -1.4341
 9183TIP3    H251745   6.310   2.688   1.838 -1.2027 -1.9989  0.2781
 9184TIP3   OH251746   0.484   0.692   0.723  0.4515  0.7015  0.8659
 9184TIP3    H151747   0.458   0.699   0.631  0.5846  0.0940  0.7776
 9184TIP3    H251748   0.560   0.749   0.731 -0.1778  1.5585  0.8432
 9185TIP3   OH251749   5.284   2.390   1.336  0.0138 -0.2337 -0.6867
 9185TIP3    H151750   5.298   2.306   1.379 -1.8946 -0.9066 -1.2592
 9185TIP3    H251751   5.218   2.371   1.268  1.6922  1.1115 -2.8123
 9186TIP3   OH251752   5.069   0.336   1.665 -0.0816  0.0116 -0.3007
 9186TIP3    H151753   5.121   0.390   1.605  2.0607 -1.6263 -0.0469
 9186TIP3    H251754   5.059   0.389   1.744 -0.2340  0.9763 -0.9531
 9187TIP3   OH251755   4.091   4.099   1.681  0.2046  0.7584 -0.5205
 9187TIP3    H151756   4.157   4.033   1.705  1.3542  1.6719 -1.0713
 9187TIP3    H251757   4.032   4.053   1.622  0.4790 -0.0158 -0.2181
 9188TIP3   OH251758   1.446   4.415   2.960  0.5722  0.1831 -0.0691
 9188TIP3    H151759   1.356   4.403   2.989  0.6802 -0.3638  0.0485
 9188TIP3    H251760   1.495   4.346   3.004  1.1177  0.7149  0.1683
 9189TIP3   OH251761   2.743   6.407   1.686  0.3459 -0.1767  0.6302
 9189TIP3    H151762   2.836   6.402   1.663  0.2712  0.6960  0.0667
 9189TIP3    H251763   2.739   6.376   1.776  1.6745  2.5854  1.7790
 9190TIP3   OH251764   1.525   3.576   0.801 -0.4420 -1.1778  0.1932
 9190TIP3    H151765   1.469   3.650   0.776 -0.2384 -1.7320 -2.1208
 9190TIP3    H251766   1.605   3.617   0.834 -0.8635 -0.3650  0.2353
 9191TIP3   OH251767   4.514   4.171   0.906 -0.0921 -0.5565  0.0169
 9191TIP3    H151768   4.518   4.164   1.002 -0.7174 -1.2029  0.0093
 9191TIP3    H251769   4.424   4.198   0.888  0.5740  1.5897 -0.3053
 9192TIP3   OH251770   2.331   3.218   2.340  0.8052 -0.0468 -0.1499
 9192TIP3    H151771   2.251   3.225   2.287  2.1478 -1.7850 -2.5823
 9192TIP3    H251772   2.301   3.230   2.430 -2.0255  0.4058 -1.0600
 9193TIP3   OH251773   3.421   2.574   1.444 -0.0241  0.0077 -0.2522
 9193TIP3    H151774   3.341   2.533   1.475  0.3615  0.1453  0.9796
 9193TIP3    H251775   3.409   2.584   1.349 -0.4214 -2.2681 -0.4835
 9194TIP3   OH251776   1.378   6.174   0.939 -0.0887  0.1968 -0.2385
 9194TIP3    H151777   1.360   6.108   1.006  1.0317  0.8882  0.7663
 9194TIP3    H251778   1.300   6.229   0.939 -0.7509 -0.7101 -0.6180
 9195TIP3   OH251779   2.126   1.787   1.947  0.6743  0.0116  0.0948
 9195TIP3    H151780   2.115   1.801   1.853 -0.1873  0.0645  0.1947
 9195TIP3    H251781   2.130   1.875   1.985  1.9535  0.0049  0.0232
 9196TIP3   OH251782   1.971   3.922   1.071 -0.0022 -0.5008 -0.0085
 9196TIP3    H151783   1.920   3.955   0.997 -1.9151  0.8714  1.7983
 9196TIP3    H251784   2.060   3.914   1.037 -0.6271  0.8709 -2.2134
 9197TIP3   OH251785   4.564   1.180   1.522  0.2309  0.6461  0.4673
 9197TIP3    H151786   4.614   1.137   1.453  2.9127  2.4201  1.1790
 9197TIP3    H251787   4.580   1.128   1.600  0.1493  0.6558  0.4908
 9198TIP3   OH251788   7.068   1.504   2.365 -0.6855 -0.1680  0.2574
 9198TIP3    H151789   7.050   1.467   2.279 -1.6216  0.5338  0.1322
 9198TIP3    H251790   7.105   1.432   2.415  1.7069 -0.1373 -1.2874
 9199TIP3   OH251791   5.711   4.460   1.072  0.5319  0.5134 -0.2872
 9199TIP3    H151792   5.748   4.543   1.041  0.8684  0.8631  0.9684
 9199TIP3    H251793   5.764   4.439   1.150 -0.1895 -0.3751 -0.0274
 9200TIP3   OH251794   6.657   0.177   2.192 -0.9332 -0.4178  0.4125
 9200TIP3    H151795   6.724   0.216   2.136 -0.3417 -0.7540  0.8626
 9200TIP3    H251796   6.591   0.245   2.201 -1.2717 -0.5203 -1.0572
 9201TIP3   OH251797   4.927   7.366   2.921  0.1637  0.0349  0.4217
 9201TIP3    H151798   4.992   7.420   2.877  0.0055 -1.0241 -1.2314
 9201TIP3    H251799   4.846   7.418   2.917  0.6698  0.9738  1.6953
 9202TIP3   OH251800   7.378   0.406   2.410 -0.2228  0.2046 -0.3314
 9202TIP3    H151801   7.342   0.404   2.498 -0.0162  1.8948 -0.1839
 9202TIP3    H251802   7.301   0.398   2.353 -0.2587 -2.2081 -0.0628
 9203TIP3   OH251803   3.816   5.133   1.998 -0.3875  0.0824  0.0104
 9203TIP3    H151804   3.777   5.050   1.972 -1.8257  0.6016  0.4490
 9203TIP3    H251805   3.857   5.115   2.083 -1.9090  0.1448  0.7773
 9204TIP3   OH251806   0.556   0.435   0.740 -0.0994 -0.1345 -0.4402
 9204TIP3    H151807   0.535   0.527   0.724 -2.3093 -0.5175 -0.0734
 9204TIP3    H251808   0.578   0.431   0.833 -2.7109 -0.3495  0.2334
 9205TIP3   OH251809   0.291   2.136   0.692 -0.2225 -0.1343  0.0389
 9205TIP3    H151810   0.382   2.157   0.668  0.3478 -0.5823  1.6946
 9205TIP3    H251811   0.295   2.046   0.723 -0.9071  0.3942  1.7243
 9206TIP3   OH251812   5.519   2.513   1.677 -0.1655 -0.0225  0.6033
 9206TIP3    H151813   5.533   2.488   1.586 -2.6555  2.1498 -0.5008
 9206TIP3    H251814   5.604   2.546   1.706  0.1187  1.5763 -1.7834
 9207TIP3   OH251815   4.977   5.885   2.164 -0.4237 -0.0355  0.3835
 9207TIP3    H151816   4.905   5.920   2.112 -0.5876 -0.7638  0.1099
 9207TIP3    H251817   4.947   5.797   2.191 -0.2958  0.2716  1.5969
 9208TIP3   OH251818   3.242   2.577   1.951  0.0988  0.6880 -0.1132
 9208TIP3    H151819   3.223   2.670   1.949 -0.3790  0.7772  3.0449
 9208TIP3    H251820   3.336   2.572   1.968  0.0848  0.6131 -0.0529
 9209TIP3   OH251821   1.256   3.364   2.814 -0.0436  0.2691  0.1688
 9209TIP3    H151822   1.285   3.452   2.839 -0.5377  0.3636  0.4099
 9209TIP3    H251823   1.283   3.309   2.887  0.1709  0.2358  0.0657
 9210TIP3   OH251824   4.067   1.590   0.476 -0.6856  0.6388 -0.1246
 9210TIP3    H151825   4.123   1.535   0.422 -0.7944  0.7026 -0.3040
 9210TIP3    H251826   4.120   1.611   0.553 -0.9230 -0.3717  0.3275
 9211TIP3   OH251827   1.868   6.249   0.339  0.2568 -0.2555  0.2422
 9211TIP3    H151828   1.900   6.326   0.387  0.0488 -0.1011  0.1347
 9211TIP3    H251829   1.941   6.187   0.343  1.0930  0.5844 -1.1027
 9212TIP3   OH251830   3.214   1.352   3.108  0.4770  1.0188  0.4493
 9212TIP3    H151831   3.294   1.404   3.102  0.8271  0.4375 -0.1455
 9212TIP3    H251832   3.161   1.396   3.173  0.4439  2.5434 -0.5666
 9213TIP3   OH251833   7.041   4.567   2.462 -0.4173  0.9979  0.6372
 9213TIP3    H151834   7.070   4.481   2.432 -0.8662  0.2260  2.3040
 9213TIP3    H251835   7.053   4.624   2.386  0.1579 -0.4634 -0.4176
 9214TIP3   OH251836   5.562   2.794   1.851 -0.1900 -0.7419  0.0444
 9214TIP3    H151837   5.594   2.880   1.877  0.7065 -1.2005  0.4894
 9214TIP3    H251838   5.477   2.787   1.894 -0.8779  0.4361 -1.0445
 9215TIP3   OH251839   3.214   6.927   2.470 -0.0517  0.5121 -0.4723
 9215TIP3    H151840   3.142   6.939   2.531  0.6806 -0.0375  0.5179
 9215TIP3    H251841   3.249   6.840   2.490  1.0807  0.8906 -0.7131
 9216TIP3   OH251842   1.008   5.216   1.303  0.0633  0.1977  0.4961
 9216TIP3    H151843   1.007   5.311   1.316  1.6048  0.6003 -1.6115
 9216TIP3    H251844   1.098   5.198   1.276 -0.8269 -1.4522 -1.5878
 9217TIP3   OH251845   7.171   0.703   2.300 -0.1461  0.1819  0.0390
 9217TIP3    H151846   7.141   0.616   2.273 -1.1287  0.2410  0.8952
 9217TIP3    H251847   7.157   0.758   2.223 -0.3706 -0.2182 -0.2074
 9218TIP3   OH251848   5.622   2.025   1.113  0.2856 -0.3949 -0.2640
 9218TIP3    H151849   5.641   2.105   1.063  2.4411  0.3015  1.5240
 9218TIP3    H251850   5.526   2.024   1.120  0.1530  1.5873 -1.0431
 9219TIP3   OH251851   5.373   0.215   2.692 -0.1959  0.3267 -0.0041
 9219TIP3    H151852   5.318   0.193   2.768  0.7272 -2.6189 -0.0326
 9219TIP3    H251853   5.347   0.151   2.626  0.9874  1.0234 -1.1780
 9220TIP3   OH251854   6.113   7.526   1.338 -0.2692  0.4479  0.1934
 9220TIP3    H151855   6.129   7.508   1.246  0.5470 -2.1422  0.7666
 9220TIP3    H251856   6.116   7.622   1.345  2.1507  0.6299 -2.0183
 9221TIP3   OH251857   2.941   5.848   2.203 -0.0494  0.2423  1.4711
 9221TIP3    H151858   3.008   5.802   2.253  0.2514  0.0552  0.9026
 9221TIP3    H251859   2.961   5.827   2.112 -1.7288 -1.0205  1.3419
 9222TIP3   OH251860   7.120   2.189   1.620  0.2619  0.2866 -0.6441
 9222TIP3    H151861   7.124   2.103   1.579 -1.7702  0.3018 -0.9940
 9222TIP3    H251862   7.183   2.185   1.692 -0.5954 -1.9212  0.0780
 9223TIP3   OH251863   1.350   3.939   1.924  0.1276 -0.3282 -0.3608
 9223TIP3    H151864   1.299   4.021   1.919 -1.2624 -1.1362 -0.0895
 9223TIP3    H251865   1.426   3.961   1.978 -0.9374  0.4575  0.8888
 9224TIP3   OH251866   5.775   5.912   1.871  0.7108  0.3278  0.1057
 9224TIP3    H151867   5.715   5.957   1.930 -1.2248 -0.7808 -0.9209
 9224TIP3    H251868   5.762   5.955   1.786  0.3091 -0.8432 -0.4367
 9225TIP3   OH251869   5.392   4.706   0.331  0.1556 -0.0543 -0.1322
 9225TIP3    H151870   5.379   4.660   0.414  3.3651 -1.8191 -0.4595
 9225TIP3    H251871   5.476   4.751   0.341 -1.7539  4.1090 -0.6802
 9226TIP3   OH251872   6.779   0.840   2.179  0.6371  0.0421 -0.2929
 9226TIP3    H151873   6.806   0.824   2.089  1.9784  1.6573 -0.2326
 9226TIP3    H251874   6.732   0.923   2.176 -0.4896 -0.5493  0.3157
 9227TIP3   OH251875   3.118   0.464   0.349 -0.1821 -0.4652 -0.1142
 9227TIP3    H151876   3.113   0.386   0.404 -0.2499  0.1884  0.8300
 9227TIP3    H251877   3.079   0.534   0.402  0.7888  0.4278 -0.5369
 9228TIP3   OH251878   3.278   1.963   1.911 -0.0301  0.0367  0.0866
 9228TIP3    H151879   3.332   1.885   1.924  0.0930 -0.1089 -1.2007
 9228TIP3    H251880   3.238   1.951   1.825 -0.5847  1.0616  0.1832
 9229TIP3   OH251881   1.714   1.521   1.164  0.2248  0.4445 -0.8544
 9229TIP3    H151882   1.659   1.490   1.091  1.2079 -1.6061 -0.8054
 9229TIP3    H251883   1.701   1.455   1.233  1.8447  0.5553 -0.4123
 9230TIP3   OH251884   1.672   2.480   2.176  0.4653  0.3615 -0.3014
 9230TIP3    H151885   1.697   2.398   2.133 -1.0641 -0.3314  0.0668
 9230TIP3    H251886   1.619   2.526   2.111  1.0588  0.9335 -0.3929
 9231TIP3   OH251887   6.777   6.025   2.291  0.4410  0.4162 -0.3646
 9231TIP3    H151888   6.801   6.049   2.202  1.2010 -2.0212 -0.8751
 9231TIP3    H251889   6.736   5.939   2.283  0.3133  0.2427  1.6050
 9232TIP3   OH251890   4.220   3.187   2.987  0.2357  0.0944  0.1397
 9232TIP3    H151891   4.246   3.203   2.896 -0.6452  1.4709  0.1108
 9232TIP3    H251892   4.136   3.141   2.979  0.4372 -0.3044  0.2695
 9233TIP3   OH251893   6.961   4.902   2.370 -0.0811  0.6339 -0.1754
 9233TIP3    H151894   6.916   4.848   2.435  0.0043  1.6049  0.7316
 9233TIP3    H251895   7.007   4.840   2.314 -3.0314 -0.4495 -1.5638
 9234TIP3   OH251896   7.514   4.136   2.221 -0.4040 -0.5190  0.4041
 9234TIP3    H151897   7.503   4.095   2.135 -0.4312  0.4647 -0.0872
 9234TIP3    H251898   7.530   4.229   2.200 -2.1390  0.0678  1.5199
 9235TIP3   OH251899   1.544   5.612   1.548 -0.4718 -0.4528  0.1220
 9235TIP3    H151900   1.557   5.564   1.466  1.2417 -1.1157  0.7258
 9235TIP3    H251901   1.464   5.663   1.535 -1.3895 -2.1390 -1.2008
 9236TIP3   OH251902   6.712   0.607   2.671  0.6817  0.8738  0.2089
 9236TIP3    H151903   6.657   0.684   2.683  0.3433  0.6253  0.2453
 9236TIP3    H251904   6.759   0.624   2.589  0.5402  1.0740  0.1686
 9237TIP3   OH251905   7.448   2.351   3.085  0.3579 -0.0423  0.5430
 9237TIP3    H151906   7.522   2.402   3.053 -0.3095  0.3009 -0.4885
 9237TIP3    H251907   7.382   2.357   3.016 -0.2255 -1.2519  0.9607
 9238TIP3   OH251908   2.870   1.100   1.967 -0.2393  0.2832 -0.0733
 9238TIP3    H151909   2.894   1.027   2.024 -1.2418 -0.1129 -0.1413
 9238TIP3    H251910   2.840   1.168   2.027  0.9896  0.7745  0.0111
 9239TIP3   OH251911   3.932   5.786   2.445 -0.2956  0.3458  0.2716
 9239TIP3    H151912   3.984   5.860   2.413 -3.2202  2.0905 -0.9078
 9239TIP3    H251913   3.964   5.711   2.395 -0.1576  1.7112 -1.8259
 9240TIP3   OH251914   6.396   5.496   2.104 -0.0021  0.4612  1.0078
 9240TIP3    H151915   6.465   5.435   2.127 -0.6188 -0.7354 -0.1402
 9240TIP3    H251916   6.332   5.442   2.057 -0.6767  1.9456  0.1596
 9241TIP3   OH251917   4.165   5.997   1.658 -0.4386  0.3427 -0.0773
 9241TIP3    H151918   4.256   6.021   1.639 -0.1165 -1.4622 -1.0661
 9241TIP3    H251919   4.146   5.927   1.595 -1.4757 -1.4866  2.1472
 9242TIP3   OH251920   5.760   2.688   1.230  0.0580 -0.0678 -0.4037
 9242TIP3    H151921   5.750   2.631   1.153 -0.2251  0.8775 -1.0904
 9242TIP3    H251922   5.736   2.775   1.198 -1.9103  0.0626  1.1954
 9243TIP3   OH251923   2.564   4.869   1.751 -0.1845 -0.5810  0.0597
 9243TIP3    H151924   2.549   4.803   1.684 -0.3389  0.4007 -0.9170
 9243TIP3    H251925   2.622   4.827   1.814 -0.3897 -1.6774 -0.4613
 9244TIP3   OH251926   5.469   1.124   1.558 -0.6357  0.4712 -0.3413
 9244TIP3    H151927   5.465   1.218   1.579  0.0063  0.1053  1.5990
 9244TIP3    H251928   5.463   1.080   1.643  0.0913 -1.2254 -1.1241
 9245TIP3   OH251929   4.194   5.134   2.480  0.1468 -0.3249  0.0801
 9245TIP3    H151930   4.219   5.193   2.552 -1.4695  0.4294  0.0490
 9245TIP3    H251931   4.114   5.092   2.511  0.7800 -1.8675 -0.2812
 9246TIP3   OH251932   0.106   0.359   2.245 -0.7646  0.1756 -0.1394
 9246TIP3    H151933   0.030   0.388   2.194 -0.8881  0.2766  0.1007
 9246TIP3    H251934   0.069   0.306   2.315 -0.7462  1.4035  0.8366
 9247TIP3   OH251935   2.805   2.935   2.028  0.0005  0.5050  0.1329
 9247TIP3    H151936   2.891   2.949   2.066 -0.1362  0.4534  0.4686
 9247TIP3    H251937   2.811   2.849   1.986 -0.0641  0.2302  0.6757
 9248TIP3   OH251938   0.792   1.885   2.080 -0.7696  0.2018 -0.2154
 9248TIP3    H151939   0.785   1.801   2.034  2.3384 -0.0693 -0.3921
 9248TIP3    H251940   0.729   1.879   2.152 -0.9266 -2.0953 -0.4826
 9249TIP3   OH251941   3.664   5.586   2.617  0.3877  0.1301 -0.1062
 9249TIP3    H151942   3.673   5.618   2.528  2.1658  0.0769  0.0236
 9249TIP3    H251943   3.578   5.544   2.619  0.3779  0.0106 -1.8262
 9250TIP3   OH251944   5.115   6.991   3.143 -0.2100  0.2180  0.6645
 9250TIP3    H151945   5.195   7.042   3.156  0.8362 -1.5669  1.6583
 9250TIP3    H251946   5.132   6.909   3.189 -2.0237 -0.8264 -0.4389
 9251TIP3   OH251947   4.772   2.310   1.515  0.2281  0.3155 -0.3586
 9251TIP3    H151948   4.848   2.333   1.462 -0.1456 -1.8009 -1.9319
 9251TIP3    H251949   4.772   2.214   1.517 -1.8874  0.2773  0.3421
 9252TIP3   OH251950   4.136   3.661   0.677 -0.1434 -0.0179 -0.0060
 9252TIP3    H151951   4.222   3.649   0.718  1.0878  1.2477 -2.0684
 9252TIP3    H251952   4.125   3.756   0.673 -0.8130 -0.1330 -1.3774
 9253TIP3   OH251953   0.009   3.820   0.899  0.2019  0.1226 -0.4823
 9253TIP3    H151954   0.016   3.797   0.807 -2.5493 -0.3188 -0.6582
 9253TIP3    H251955  -0.085   3.831   0.915  0.5947  0.4430  2.2190
 9254TIP3   OH251956   4.130   3.308   1.104  0.6439  0.0872 -0.0124
 9254TIP3    H151957   4.155   3.237   1.045  1.6000 -0.8870  1.5067
 9254TIP3    H251958   4.036   3.298   1.115  0.6215 -0.3484 -0.5494
 9255TIP3   OH251959   3.414   5.932   2.466  0.1010  0.6380  0.7116
 9255TIP3    H151960   3.432   5.854   2.519 -0.6323  0.4147  0.6395
 9255TIP3    H251961   3.494   5.985   2.474  0.3599  0.1789  1.2782
 9256TIP3   OH251962   5.470   3.733   1.883  0.1523  0.2618  0.3106
 9256TIP3    H151963   5.536   3.693   1.826  0.1425 -1.4306  1.4328
 9256TIP3    H251964   5.520   3.792   1.940  0.7832 -1.2735  1.3893
 9257TIP3   OH251965   6.463   2.037   2.110 -0.0304  0.1919 -0.2437
 9257TIP3    H151966   6.396   1.969   2.111  1.3346 -1.1853 -0.0044
 9257TIP3    H251967   6.445   2.086   2.030  0.1551 -1.6828 -1.4867
 9258TIP3   OH251968   4.036   1.119   1.813 -0.4363  0.2962  0.5509
 9258TIP3    H151969   4.069   1.202   1.848  1.0115  0.0859 -0.2331
 9258TIP3    H251970   4.031   1.134   1.719 -0.7534 -0.3258  0.4652
 9259TIP3   OH251971   2.177   4.764   2.583 -0.0835  0.1548  0.2773
 9259TIP3    H151972   2.259   4.737   2.623  0.4973 -1.0086 -1.5550
 9259TIP3    H251973   2.180   4.726   2.495 -2.5729  0.0937  0.1483
 9260TIP3   OH251974   2.630   5.623   2.085 -0.2697  0.5555 -0.0217
 9260TIP3    H151975   2.575   5.684   2.036 -0.6904  0.1377 -0.0790
 9260TIP3    H251976   2.681   5.577   2.019 -0.8068  0.0219 -0.0860
 9261TIP3   OH251977   0.878   3.219   1.753 -0.2785 -0.5046  0.2383
 9261TIP3    H151978   0.916   3.239   1.667  0.4047 -0.4494  0.5394
 9261TIP3    H251979   0.808   3.283   1.765  0.4023  0.2576  0.2224
 9262TIP3   OH251980   7.061   1.172   2.819 -0.0355 -0.3247 -0.3616
 9262TIP3    H151981   6.990   1.185   2.881 -1.2581 -1.8698 -1.3769
 9262TIP3    H251982   7.093   1.260   2.801  1.1087  0.1782  3.2042
 9263TIP3   OH251983   1.721   4.389   1.577 -0.2493  0.3414 -0.2496
 9263TIP3    H151984   1.708   4.389   1.672  1.8009 -1.5230  0.1178
 9263TIP3    H251985   1.774   4.467   1.560 -0.2716  0.4555  0.1963
 9264TIP3   OH251986   3.003   5.081   2.847 -0.2256  0.6346  0.2916
 9264TIP3    H151987   2.975   4.990   2.863 -0.3217  0.7577  0.8369
 9264TIP3    H251988   2.955   5.107   2.768 -1.2329  0.6561  0.9039
 9265TIP3   OH251989   0.916   7.462   1.671 -0.2002 -0.4008  0.1007
 9265TIP3    H151990   0.958   7.547   1.684 -2.9675  1.7999 -3.4025
 9265TIP3    H251991   0.824   7.478   1.691 -0.9234 -2.3816 -1.2686
 9266TIP3   OH251992   4.763   5.992   2.045 -0.7756 -0.2288 -0.9090
 9266TIP3    H151993   4.740   6.047   2.119  1.1812 -0.9200  0.3121
 9266TIP3    H251994   4.683   5.942   2.026 -0.6857 -2.0624  2.6213
 9267TIP3   OH251995   4.011   6.933   1.961 -0.4396 -0.4401  0.1465
 9267TIP3    H151996   4.002   6.929   1.866 -0.0266  0.9925  0.0257
 9267TIP3    H251997   3.961   7.010   1.987  0.9163  0.2262  0.8780
 9268TIP3   OH251998   5.065   1.825   1.158  0.3699  0.0086 -0.5983
 9268TIP3    H151999   5.043   1.886   1.229 -1.9086 -0.3249 -0.9444
 9268TIP3    H252000   5.087   1.882   1.084  1.1641  0.3633 -0.1096
 9269TIP3   OH252001   4.069   1.922   1.849 -0.6487  0.2703  0.0126
 9269TIP3    H152002   4.128   1.876   1.908 -1.7226 -0.2235  0.7369
 9269TIP3    H252003   4.124   1.985   1.803  0.4163 -0.1516  0.6955
 9270TIP3   OH252004   6.428   7.537   1.825  0.9289 -0.0657  0.3494
 9270TIP3    H152005   6.494   7.512   1.889  0.9613  0.7733  0.6588
 9270TIP3    H252006   6.445   7.630   1.809  2.0981 -0.6115 -2.2453
 9271TIP3   OH252007   5.285   4.916   1.746  0.2146  0.1274 -0.5114
 9271TIP3    H152008   5.256   4.889   1.659  0.9481 -0.7263 -0.5026
 9271TIP3    H252009   5.327   4.838   1.782  0.4725  0.6637  0.3611
 9272TIP3   OH252010   0.533   6.560   1.941  0.4045  0.2010  0.0200
 9272TIP3    H152011   0.524   6.652   1.916  0.4959  0.7601  1.8972
 9272TIP3    H252012   0.622   6.553   1.976  0.3480 -0.5730  0.0341
 9273TIP3   OH252013   2.743   2.206   2.244 -0.2580 -0.7125  0.4224
 9273TIP3    H152014   2.712   2.171   2.161 -0.3823  0.1948  0.0722
 9273TIP3    H252015   2.707   2.147   2.310 -2.6412  0.2027  0.0317
 9274TIP3   OH252016   1.402   3.420   1.542 -0.4674 -0.1527 -0.0828
 9274TIP3    H152017   1.369   3.375   1.621 -0.8989  0.9418  0.3817
 9274TIP3    H252018   1.325   3.464   1.507 -0.1599 -0.2200 -0.8439
 9275TIP3   OH252019   7.244   5.306   2.140 -0.2815 -0.0070 -0.3956
 9275TIP3    H152020   7.167   5.283   2.192  0.3055  2.4388  1.7796
 9275TIP3    H252021   7.217   5.382   2.090  0.4340  0.2796 -0.3561
 9276TIP3   OH252022   2.958   3.275   3.652  0.4345 -0.4769 -0.2900
 9276TIP3    H152023   2.883   3.301   3.599 -0.7320  0.6013  1.7589
 9276TIP3    H252024   3.032   3.319   3.611 -0.3989  0.2058 -1.1080
 9277TIP3   OH252025   1.206   0.957   0.882  0.0265 -0.1477  0.2359
 9277TIP3    H152026   1.223   0.947   0.788 -1.4430 -2.1178  0.1104
 9277TIP3    H252027   1.118   0.994   0.886 -0.0757 -0.4541  0.8512
 9278TIP3   OH252028   0.421   6.104   0.794  0.1816  0.3064  0.2706
 9278TIP3    H152029   0.355   6.174   0.798 -0.5503 -0.3423 -0.3825
 9278TIP3    H252030   0.499   6.148   0.762 -0.1577  0.9196  0.2594
 9279TIP3   OH252031   0.027   7.329   2.192 -0.0319 -0.8722 -0.1944
 9279TIP3    H152032  -0.044   7.298   2.248  0.0741  0.7578  0.9057
 9279TIP3    H252033  -0.014   7.396   2.137  0.5864 -0.0685  0.3026
 9280TIP3   OH252034   5.793   4.080   1.908 -0.5051 -0.5282  0.2417
 9280TIP3    H152035   5.781   4.163   1.861 -0.8017  1.3729  3.3883
 9280TIP3    H252036   5.845   4.026   1.849 -1.1246  1.4943 -2.3500
 9281TIP3   OH252037   6.855   1.190   3.004 -0.0701 -0.1087 -0.1913
 9281TIP3    H152038   6.770   1.192   2.961 -0.0240 -2.2931 -0.4819
 9281TIP3    H252039   6.841   1.139   3.084  0.5382  1.2825  0.8551
 9282TIP3   OH252040   1.276   3.101   2.039 -0.5502 -0.2303  0.2346
 9282TIP3    H152041   1.224   3.168   1.993  0.1719  1.6035  1.9734
 9282TIP3    H252042   1.307   3.044   1.969 -4.0737 -0.9018 -1.0146
 9283TIP3   OH252043   4.871   6.738   2.352 -0.1082  0.0467  0.8891
 9283TIP3    H152044   4.930   6.672   2.389 -0.1648 -0.3070  0.3609
 9283TIP3    H252045   4.927   6.791   2.296 -0.7479 -2.1756 -2.1182
 9284TIP3   OH252046   2.488   3.815   2.862  0.5109 -0.0809  0.6514
 9284TIP3    H152047   2.501   3.842   2.772 -0.3276 -0.1234  0.5091
 9284TIP3    H252048   2.406   3.858   2.888 -0.5170 -1.9425  0.6219
 9285TIP3   OH252049   4.901   4.763   1.688 -0.4294  0.0577 -0.4135
 9285TIP3    H152050   4.882   4.856   1.673  0.2416  0.1798 -0.5557
 9285TIP3    H252051   4.993   4.761   1.714 -0.5415 -0.5364 -0.0462
 9286TIP3   OH252052   4.048   0.367   2.612  0.3142  0.3873  0.2558
 9286TIP3    H152053   4.063   0.346   2.704 -0.7048 -1.1195  0.1157
 9286TIP3    H252054   4.057   0.283   2.566 -0.8615  0.7991 -0.7885
 9287TIP3   OH252055   1.518   0.481   0.919 -0.2057 -0.0464  0.3168
 9287TIP3    H152056   1.604   0.518   0.899 -0.3234  0.4363  0.6971
 9287TIP3    H252057   1.457   0.554   0.908 -0.3800  0.0174  1.5544
 9288TIP3   OH252058   5.483   3.657   0.626 -0.1430  0.0599 -0.5977
 9288TIP3    H152059   5.545   3.594   0.662  0.2233  0.3786 -0.6681
 9288TIP3    H252060   5.397   3.620   0.647  0.0627 -0.5464 -0.7845
 9289TIP3   OH252061   4.596   3.288   1.283  0.4510 -0.0805  0.3260
 9289TIP3    H152062   4.667   3.244   1.236  0.3217 -0.0344  0.0888
 9289TIP3    H252063   4.519   3.233   1.267  0.3760  0.0147  0.3602
 9290TIP3   OH252064   6.082   7.102   1.151 -0.5282  0.0376  0.6666
 9290TIP3    H152065   6.134   7.054   1.086 -1.2082 -0.2182  0.3029
 9290TIP3    H252066   5.994   7.105   1.114 -1.1177 -0.7861  1.9331
 9291TIP3   OH252067   5.474   5.319   1.282  0.3690 -0.2155 -0.2877
 9291TIP3    H152068   5.540   5.376   1.242  1.1595 -0.8167  0.1340
 9291TIP3    H252069   5.516   5.233   1.286 -0.4022 -0.5869  0.0959
 9292TIP3   OH252070   1.999   7.176   0.724 -0.0256 -0.0982  0.7138
 9292TIP3    H152071   2.030   7.266   0.722  0.3998 -0.2512 -0.0652
 9292TIP3    H252072   1.944   7.167   0.646 -2.1961  0.1936  2.1093
 9293TIP3   OH252073   3.689   4.896   1.658  0.1962 -0.2933 -0.1077
 9293TIP3    H152074   3.784   4.902   1.650  0.2865 -0.2208  0.9071
 9293TIP3    H252075   3.672   4.908   1.751 -1.0446  3.1769 -0.6253
 9294TIP3   OH252076   4.062   2.514   1.125 -0.3137 -0.3843 -0.3440
 9294TIP3    H152077   4.091   2.471   1.206 -1.4620 -1.0215 -0.2457
 9294TIP3    H252078   4.025   2.443   1.073 -0.8812  0.2614 -0.8335
 9295TIP3   OH252079   4.159   7.238   2.333  0.3053  0.3164  0.2192
 9295TIP3    H152080   4.227   7.244   2.400 -0.5686  1.3030  1.0505
 9295TIP3    H252081   4.203   7.262   2.252  1.2027 -0.1269  0.5693
 9296TIP3   OH252082   0.190   4.150   2.010 -0.3389  0.2289 -0.5889
 9296TIP3    H152083   0.144   4.072   1.978 -0.8800 -0.3960  1.5305
 9296TIP3    H252084   0.278   4.119   2.031  1.3649  1.4637 -4.8176
 9297TIP3   OH252085   4.381   3.627   0.798 -0.2137 -0.0408 -0.5020
 9297TIP3    H152086   4.454   3.569   0.776 -1.6234 -1.7723 -0.9453
 9297TIP3    H252087   4.421   3.712   0.815  1.9876 -1.1770  0.3503
 9298TIP3   OH252088   2.466   1.392   0.573  0.0198 -0.2698  0.5742
 9298TIP3    H152089   2.537   1.371   0.512 -0.2097 -0.2196  0.2938
 9298TIP3    H252090   2.464   1.318   0.633  0.2789 -0.2951  0.5531
 9299TIP3   OH252091   0.368   6.706   0.529 -0.7452 -0.1731 -0.3954
 9299TIP3    H152092   0.346   6.796   0.506 -0.3474 -0.1362 -0.6468
 9299TIP3    H252093   0.336   6.695   0.618  2.9218  1.5714  1.3050
 9300TIP3   OH252094   5.342   5.551   1.472  0.0740 -0.0607  0.5664
 9300TIP3    H152095   5.249   5.541   1.452  0.2111 -1.5875  0.5403
 9300TIP3    H252096   5.358   5.489   1.544  1.0249  0.3639  0.7506
 9301TIP3   OH252097   5.441   6.702   1.878  0.2643  0.3032 -0.0454
 9301TIP3    H152098   5.485   6.708   1.962 -1.6664  1.3781  0.9615
 9301TIP3    H252099   5.504   6.737   1.815  1.8548 -0.8084  0.8572
 9302TIP3   OH252100   1.948   7.213   2.245  0.8067  0.7308  0.2920
 9302TIP3    H152101   1.995   7.140   2.286  0.1309 -0.7540 -1.4449
 9302TIP3    H252102   1.906   7.175   2.168 -0.1018  2.8408 -0.3433
 9303TIP3   OH252103   1.174   6.409   1.827 -0.1229 -0.1598 -0.2088
 9303TIP3    H152104   1.135   6.347   1.765 -0.5031  2.5547 -2.9016
 9303TIP3    H252105   1.253   6.440   1.784 -0.0913  1.4156  0.9082
 9304TIP3   OH252106   4.229   7.186   3.405 -0.3240  0.0600  0.2879
 9304TIP3    H152107   4.251   7.264   3.354 -0.2634  0.5572  1.0465
 9304TIP3    H252108   4.296   7.122   3.381  0.6124  0.7944  0.8667
 9305TIP3   OH252109   1.821   6.333   0.882 -0.3905 -0.2548 -0.3225
 9305TIP3    H152110   1.750   6.314   0.943 -0.7360 -0.8187 -0.8861
 9305TIP3    H252111   1.793   6.413   0.836  0.0913  0.4468  0.5757
 9306TIP3   OH252112   7.127   2.932   3.502  0.1825 -0.2132  0.2837
 9306TIP3    H152113   7.083   2.932   3.417 -0.9363  0.3911  0.8467
 9306TIP3    H252114   7.167   2.845   3.508 -2.4840 -1.5106  0.5223
 9307TIP3   OH252115   2.956   1.973   2.247 -0.2561 -0.3182  0.3364
 9307TIP3    H152116   2.934   2.050   2.299 -0.3260  0.8304 -1.2915
 9307TIP3    H252117   2.885   1.911   2.265 -1.3140  0.7894  0.1720
 9308TIP3   OH252118   0.703   1.928   0.506  0.0353 -0.4085  0.0565
 9308TIP3    H152119   0.626   1.872   0.512 -0.2595  0.1100  1.8593
 9308TIP3    H252120   0.670   2.016   0.525  0.9365 -0.0397 -0.0217
 9309TIP3   OH252121   6.900   6.580   1.168 -0.1468 -0.1997  0.5786
 9309TIP3    H152122   6.987   6.618   1.170  0.1125 -0.5757 -1.4623
 9309TIP3    H252123   6.876   6.569   1.260  2.1605 -0.5806  1.1931
 9310TIP3   OH252124   5.022   5.903   3.097 -0.1710 -0.6572 -0.2343
 9310TIP3    H152125   5.022   5.999   3.089  0.7807 -0.6900 -0.7530
 9310TIP3    H252126   5.097   5.883   3.153 -0.3128 -1.1112 -0.2003
 9311TIP3   OH252127   0.485   6.022   1.442  0.2911 -0.8502  0.5485
 9311TIP3    H152128   0.424   5.950   1.425 -0.8631 -0.1171  1.4540
 9311TIP3    H252129   0.491   6.026   1.538  2.0518 -1.1173  0.4931
 9312TIP3   OH252130   2.795   7.141   2.678 -0.2947 -0.5155 -0.0472
 9312TIP3    H152131   2.825   7.065   2.728  1.4710  0.7610  0.9412
 9312TIP3    H252132   2.736   7.187   2.737 -0.2141 -0.3417 -0.1023
 9313TIP3   OH252133   3.408   5.456   1.929 -0.0718 -0.5883  0.1642
 9313TIP3    H152134   3.367   5.402   1.861  1.8220  0.7321 -2.1876
 9313TIP3    H252135   3.450   5.393   1.988  1.1660 -1.8145 -1.8939
 9314TIP3   OH252136   6.071   2.568   0.313 -0.2110 -0.0078  0.2479
 9314TIP3    H152137   6.146   2.518   0.282  1.2034  1.1395  1.6697
 9314TIP3    H252138   6.001   2.503   0.323  0.3351 -0.9753 -1.7694
 9315TIP3   OH252139   3.667   4.033   0.827 -0.1293 -0.1084  0.6747
 9315TIP3    H152140   3.710   4.104   0.780  0.2538 -0.8069 -0.0638
 9315TIP3    H252141   3.641   4.071   0.911 -3.2842  1.9861 -1.0702
 9316TIP3   OH252142   1.453   5.661   2.477 -0.5876  0.0399  0.1677
 9316TIP3    H152143   1.538   5.638   2.515  0.5332  2.6498 -0.5593
 9316TIP3    H252144   1.394   5.663   2.552  0.4635  0.2471  1.0176
 9317TIP3   OH252145   5.289   0.576   1.931 -0.0826 -0.4692  0.4526
 9317TIP3    H152146   5.198   0.550   1.914 -0.4103  0.9156 -0.0651
 9317TIP3    H252147   5.295   0.582   2.026 -0.3981 -0.9921  0.5091
 9318TIP3   OH252148   0.795   4.575   1.078 -0.1584 -0.2871  0.6481
 9318TIP3    H152149   0.792   4.607   1.168  0.0529 -0.4982  0.7306
 9318TIP3    H252150   0.706   4.589   1.045 -0.2277 -0.1774  0.8775
 9319TIP3   OH252151   6.358   1.963   1.105  0.1335  0.3079  0.2279
 9319TIP3    H152152   6.338   1.890   1.047  0.8197  1.1523 -1.1273
 9319TIP3    H252153   6.449   1.950   1.131 -0.7020 -1.1189  2.7766
 9320TIP3   OH252154   0.624   0.674   1.941 -0.1110  0.2445  0.2907
 9320TIP3    H152155   0.649   0.672   2.033 -0.6682 -1.0169  0.4361
 9320TIP3    H252156   0.528   0.669   1.942 -0.2306  1.8452 -0.3296
 9321TIP3   OH252157   7.441   6.789   2.602  0.3624  0.1894 -0.4619
 9321TIP3    H152158   7.536   6.776   2.599  0.4950  0.6043  0.9806
 9321TIP3    H252159   7.416   6.760   2.690 -0.3677  2.8203  0.3073
 9322TIP3   OH252160   3.966   0.550   3.327  0.4528  0.5241  0.0496
 9322TIP3    H152161   3.913   0.599   3.391  1.9307  1.9472  0.2341
 9322TIP3    H252162   3.939   0.459   3.339 -2.1493  1.1909 -0.0699
 9323TIP3   OH252163   7.516   3.497   2.061  0.3271  0.0871 -0.2764
 9323TIP3    H152164   7.531   3.483   2.154 -0.6976 -0.9808 -0.2440
 9323TIP3    H252165   7.543   3.416   2.019 -0.4451  0.0628 -0.7532
 9324TIP3   OH252166   4.270   7.448   3.326  0.5011  0.1828 -0.3831
 9324TIP3    H152167   4.331   7.492   3.384 -1.0904  0.1076  1.4396
 9324TIP3    H252168   4.186   7.450   3.372 -0.9999  0.5710 -2.8988
 9325TIP3   OH252169   2.773   1.276   2.187  0.3071  0.0177 -0.1830
 9325TIP3    H152170   2.684   1.241   2.196  0.1153  0.2422 -1.0990
 9325TIP3    H252171   2.779   1.343   2.255 -0.9397  1.3905 -1.3563
 9326TIP3   OH252172   6.839   7.558   2.258  0.1683  0.7894 -0.4640
 9326TIP3    H152173   6.763   7.615   2.248  0.5190  1.1180 -1.2489
 9326TIP3    H252174   6.802   7.473   2.282 -0.3872  1.1876  0.1145
 9327TIP3   OH252175   6.387   6.354   3.124  0.0831  0.0812  0.1367
 9327TIP3    H152176   6.445   6.313   3.060  1.5195  1.8907  0.1969
 9327TIP3    H252177   6.305   6.305   3.117  0.8018 -0.9591 -1.7362
 9328TIP3   OH252178   6.092   6.296   2.154 -0.0557  0.8860  0.5140
 9328TIP3    H152179   5.998   6.295   2.134  0.0843 -0.6926 -0.2093
 9328TIP3    H252180   6.115   6.203   2.166  1.0361  1.3549  2.6052
 9329TIP3   OH252181   6.360   2.167   1.872 -0.1339  0.3620 -0.3534
 9329TIP3    H152182   6.444   2.194   1.834 -0.0223 -1.4189 -1.4686
 9329TIP3    H252183   6.295   2.210   1.816  0.0262  0.9425 -0.1012
 9330TIP3   OH252184   5.581   1.110   0.700 -0.2953  0.1868 -0.0970
 9330TIP3    H152185   5.493   1.139   0.723 -0.9792 -1.1696 -0.8457
 9330TIP3    H252186   5.637   1.143   0.770 -1.5354  0.3689  0.8368
 9331TIP3   OH252187   0.765   3.245   2.900  0.2195  0.2967  0.4486
 9331TIP3    H152188   0.759   3.170   2.960 -2.0591  1.2956  1.5968
 9331TIP3    H252189   0.713   3.313   2.942 -1.7536  0.9843 -2.7505
 9332TIP3   OH252190   1.425   2.429   1.842  0.7950 -0.6436 -0.4935
 9332TIP3    H152191   1.413   2.440   1.936 -0.5550  1.2411 -0.8393
 9332TIP3    H252192   1.351   2.376   1.814 -0.3307  1.0400 -0.8477
 9333TIP3   OH252193   1.980   7.331   2.840  0.5517 -0.1162  0.1726
 9333TIP3    H152194   1.913   7.267   2.816 -0.7429  1.2874 -0.1263
 9333TIP3    H252195   1.936   7.390   2.902  2.0602 -0.1829  1.3560
 9334TIP3   OH252196   4.171   4.469   1.715 -0.0355 -0.5855 -0.2227
 9334TIP3    H152197   4.090   4.468   1.664 -0.2520 -1.2931  0.1267
 9334TIP3    H252198   4.169   4.553   1.761  0.1558  0.0557 -1.3462
 9335TIP3   OH252199   7.212   4.003   2.871 -0.1552 -0.2470 -0.2378
 9335TIP3    H152200   7.177   3.948   2.941 -0.7648  0.2907 -0.1144
 9335TIP3    H252201   7.297   3.964   2.850  0.4382  0.1198  1.4001
 9336TIP3   OH252202   5.111   5.079   2.767  0.5610  0.5140 -0.2747
 9336TIP3    H152203   5.030   5.029   2.772  0.6754  0.4098  0.7660
 9336TIP3    H252204   5.133   5.099   2.859  1.7803  0.4097 -0.5213
 9337TIP3   OH252205   0.983   1.116   2.311  0.2527 -0.1509 -0.2948
 9337TIP3    H152206   1.043   1.084   2.378  0.1030  0.9868  0.4266
 9337TIP3    H252207   1.038   1.132   2.235  0.6631 -0.2567 -0.0237
 9338TIP3   OH252208   1.846   4.810   1.299 -0.3447  0.1442  0.3076
 9338TIP3    H152209   1.805   4.833   1.216  1.0904  1.1272 -0.1519
 9338TIP3    H252210   1.927   4.861   1.302  0.1069 -0.5859  1.8817
 9339TIP3   OH252211   4.752   5.125   2.741 -0.4045  0.0093  0.1301
 9339TIP3    H152212   4.792   5.107   2.826 -0.5610  0.9821  0.4196
 9339TIP3    H252213   4.659   5.137   2.760 -0.5892 -0.6546 -0.3118
 9340TIP3   OH252214   1.168   1.637   1.890  0.7216 -0.0344  0.7346
 9340TIP3    H152215   1.124   1.714   1.855  1.5736  0.4730  0.7535
 9340TIP3    H252216   1.211   1.597   1.813 -1.1246 -1.4974  0.3833
 9341TIP3   OH252217   4.229   6.945   2.443  0.5219 -0.3595 -0.5647
 9341TIP3    H152218   4.248   6.948   2.349 -0.1930  0.4438 -0.7017
 9341TIP3    H252219   4.200   6.855   2.459 -0.2197 -0.2686 -1.3063
 9342TIP3   OH252220   4.028   2.718   0.429  0.0793 -0.2774 -0.0511
 9342TIP3    H152221   4.019   2.812   0.448 -1.0590 -0.1866 -0.8796
 9342TIP3    H252222   4.088   2.715   0.354  0.1490 -0.2099  0.0021
 9343TIP3   OH252223   6.599   0.386   0.720  0.4033  0.0409 -0.0837
 9343TIP3    H152224   6.538   0.380   0.794  1.4573 -0.0917  0.8139
 9343TIP3    H252225   6.572   0.316   0.661 -1.0057  0.7035 -0.2724
 9344TIP3   OH252226   4.240   3.570   3.478 -0.4048 -0.2243 -0.2566
 9344TIP3    H152227   4.177   3.525   3.422 -0.3692 -0.3583 -0.1910
 9344TIP3    H252228   4.189   3.603   3.551 -0.3509 -0.6078 -0.0420
 9345TIP3   OH252229   2.103   1.272   2.658 -0.0006  0.2007  0.6354
 9345TIP3    H152230   2.049   1.321   2.720 -0.9427  0.5728 -0.4535
 9345TIP3    H252231   2.146   1.340   2.606  0.9808 -0.1087  1.0182
 9346TIP3   OH252232   4.950   4.694   0.514  0.0693 -0.3320  0.1305
 9346TIP3    H152233   4.888   4.657   0.450 -1.4006  1.0639  0.6623
 9346TIP3    H252234   4.901   4.695   0.596  1.1011  0.0609  0.7494
 9347TIP3   OH252235   5.249   6.956   1.555  0.4435 -0.0872  1.0502
 9347TIP3    H152236   5.271   6.867   1.581 -0.8088 -0.1694  1.9487
 9347TIP3    H252237   5.322   7.009   1.587  0.8750 -0.6972  1.1027
 9348TIP3   OH252238   1.248   5.497   0.985 -0.7801  0.3144  0.4490
 9348TIP3    H152239   1.323   5.452   0.946 -2.4203 -0.3503 -2.1988
 9348TIP3    H252240   1.279   5.587   0.998  0.5013  0.0618 -0.5946
 9349TIP3   OH252241   7.302   4.376   2.024  0.5076  0.1548  0.2197
 9349TIP3    H152242   7.365   4.421   2.080  1.2296 -0.3964 -0.1334
 9349TIP3    H252243   7.259   4.313   2.082  1.8178 -0.9794  0.0299
 9350TIP3   OH252244   5.717   5.554   0.398  0.0368  0.7433  0.1713
 9350TIP3    H152245   5.623   5.553   0.380 -0.5473 -1.4755  2.7703
 9350TIP3    H252246   5.726   5.603   0.480  0.7272 -1.3622  1.4279
 9351TIP3   OH252247   0.332   3.437   1.876  0.0622 -0.2195 -0.5761
 9351TIP3    H152248   0.405   3.498   1.866  1.0125 -1.1613  0.3294
 9351TIP3    H252249   0.309   3.444   1.969 -0.6308 -0.3532 -0.7374
 9352TIP3   OH252250   2.459   3.283   1.987 -0.2985 -0.1577 -0.2431
 9352TIP3    H152251   2.440   3.366   1.944 -1.3180 -0.1535  0.1969
 9352TIP3    H252252   2.499   3.309   2.071 -0.4625 -0.1139 -0.1781
 9353TIP3   OH252253   0.724   3.410   2.377 -0.6817  0.8760 -0.0738
 9353TIP3    H152254   0.675   3.487   2.348  0.5059  1.2071 -1.3361
 9353TIP3    H252255   0.786   3.443   2.441  0.7673  1.2711 -1.6195
 9354TIP3   OH252256   5.704   6.336   1.280  0.3535 -0.5191  0.3867
 9354TIP3    H152257   5.768   6.303   1.343 -1.5037 -2.5798  1.3326
 9354TIP3    H252258   5.620   6.329   1.326 -0.6281  1.7900 -0.9015
 9355TIP3   OH252259   4.197   2.414   1.426  0.3988  0.7904  0.1658
 9355TIP3    H152260   4.212   2.364   1.345  1.9148  1.8716 -0.2595
 9355TIP3    H252261   4.281   2.456   1.444 -0.3466  1.7723  1.4893
 9356TIP3   OH252262   4.688   5.774   2.378 -0.3155  0.2920  0.1881
 9356TIP3    H152263   4.680   5.740   2.289 -1.2267 -0.0074  0.3810
 9356TIP3    H252264   4.683   5.697   2.435 -1.8471  0.6640  0.5940
 9357TIP3   OH252265   6.860   0.816   1.924 -0.1175 -0.2042 -0.4701
 9357TIP3    H152266   6.872   0.759   1.848  0.9016  1.8951 -2.0168
 9357TIP3    H252267   6.949   0.828   1.959 -0.3542  0.2003  0.0090
 9358TIP3   OH252268   0.644   7.481   1.740 -0.1860 -0.1115  0.1252
 9358TIP3    H152269   0.557   7.445   1.721  0.6843 -2.4431  0.1983
 9358TIP3    H252270   0.660   7.458   1.831  0.0198  1.4645  0.5182
 9359TIP3   OH252271   0.817   0.528   1.018  0.2582  0.0946  0.4961
 9359TIP3    H152272   0.880   0.480   0.965 -1.3368 -0.6604 -0.7914
 9359TIP3    H252273   0.825   0.489   1.105  1.3441 -0.1748  0.2919
 9360TIP3   OH252274   7.019   4.316   1.331 -0.0993 -0.2105 -0.3182
 9360TIP3    H152275   7.070   4.338   1.408 -1.7799 -1.5230  1.2485
 9360TIP3    H252276   7.065   4.240   1.293 -0.1220 -0.5311  0.2863
 9361TIP3   OH252277   4.243   0.813   2.189  0.2959 -0.2208  0.2320
 9361TIP3    H152278   4.204   0.727   2.203  0.2844 -0.3284 -0.4019
 9361TIP3    H252279   4.283   0.837   2.273  1.9806 -1.6944 -0.0942
 9362TIP3   OH252280   7.210   6.153   3.242  0.5874 -0.4500 -0.0367
 9362TIP3    H152281   7.130   6.184   3.285  0.4734 -1.1916  0.2931
 9362TIP3    H252282   7.280   6.204   3.283  0.2582  0.5105 -0.6267
 9363TIP3   OH252283   3.828   0.515   1.207  0.1119  0.0077 -0.0244
 9363TIP3    H152284   3.762   0.446   1.206 -0.3220  0.4104 -0.7308
 9363TIP3    H252285   3.876   0.503   1.125  0.4946  0.1147  0.1811
 9364TIP3   OH252286   3.621   2.888   1.661  0.1549  0.2116 -0.1128
 9364TIP3    H152287   3.661   2.816   1.614 -0.6031 -1.6048  1.8585
 9364TIP3    H252288   3.659   2.884   1.749 -1.4941  0.8347  0.6730
 9365TIP3   OH252289   0.205   0.802   1.186 -0.2788  0.1631  0.0710
 9365TIP3    H152290   0.235   0.873   1.242 -2.9078  0.6966  0.9828
 9365TIP3    H252291   0.270   0.796   1.116  0.6419  2.6664  0.6214
 9366TIP3   OH252292   1.738   6.973   1.266 -0.2922  0.4678  0.1700
 9366TIP3    H152293   1.810   7.032   1.241 -0.0571 -0.3487 -1.2472
 9366TIP3    H252294   1.782   6.899   1.309 -0.4768  0.8004  0.9423
 9367TIP3   OH252295   1.072   4.397   2.557 -0.5428 -0.1634 -0.5348
 9367TIP3    H152296   1.150   4.341   2.551 -1.1260 -0.8943 -1.4668
 9367TIP3    H252297   1.036   4.378   2.644  0.8601  0.9476  0.3509
 9368TIP3   OH252298   5.445   1.710   2.958  0.1278  0.2464 -0.9067
 9368TIP3    H152299   5.367   1.708   2.901 -0.5549 -0.9328  0.0245
 9368TIP3    H252300   5.413   1.679   3.043  1.8118 -1.2018 -0.7567
 9369TIP3   OH252301   1.535   5.414   1.369  0.3239 -0.3825 -0.1240
 9369TIP3    H152302   1.562   5.365   1.292 -0.2024 -0.4112 -0.2959
 9369TIP3    H252303   1.463   5.363   1.406  1.0429 -0.7490  0.8012
 9370TIP3   OH252304   1.837   6.064   0.578 -0.3925 -0.1512 -0.0005
 9370TIP3    H152305   1.926   6.090   0.552  0.1103 -2.9193 -1.4452
 9370TIP3    H252306   1.780   6.120   0.525  0.4743  1.1348  0.3708
 9371TIP3   OH252307   5.144   7.431   0.561 -0.1989  0.0768  0.1462
 9371TIP3    H152308   5.153   7.513   0.513 -0.3398  1.3636  2.1758
 9371TIP3    H252309   5.106   7.457   0.645 -2.8618 -2.4083 -0.1151
 9372TIP3   OH252310   2.206   2.600   1.523 -0.3530 -0.6081  0.2655
 9372TIP3    H152311   2.122   2.629   1.559 -1.2824 -1.8750 -0.8131
 9372TIP3    H252312   2.184   2.530   1.463  1.6057 -1.9554  1.0099
 9373TIP3   OH252313   7.434   2.289   1.338 -0.3227  0.1550 -0.3927
 9373TIP3    H152314   7.489   2.352   1.292  0.7352 -1.9510 -2.1878
 9373TIP3    H252315   7.493   2.243   1.397 -0.6785 -0.3559 -0.4233
 9374TIP3   OH252316   5.373   6.201   2.229  0.2954 -0.1162  0.5748
 9374TIP3    H152317   5.294   6.150   2.212  0.7728 -0.4024 -0.8833
 9374TIP3    H252318   5.423   6.146   2.290 -0.4258 -0.1178  1.1827
 9375TIP3   OH252319   7.078   3.722   1.934  0.1850  0.7487 -0.3417
 9375TIP3    H152320   7.168   3.691   1.935  0.6590  2.0013 -1.4944
 9375TIP3    H252321   7.028   3.649   1.898  0.6851 -0.0622  0.5836
 9376TIP3   OH252322   1.201   3.177   0.852  0.2246 -0.5696 -0.3237
 9376TIP3    H152323   1.195   3.154   0.945 -0.0960 -2.2988 -0.7271
 9376TIP3    H252324   1.173   3.268   0.847  0.4087 -0.4049  1.2909
 9377TIP3   OH252325   4.454   3.613   2.077 -0.1597  0.8131 -0.5031
 9377TIP3    H152326   4.533   3.561   2.093 -0.0058  1.2193  0.0826
 9377TIP3    H252327   4.477   3.671   2.005  0.0172  0.8055 -0.4533
 9378TIP3   OH252328   1.892   5.609   2.755  0.0955  0.2482  0.2667
 9378TIP3    H152329   1.835   5.632   2.682 -2.3095  1.3989  2.3673
 9378TIP3    H252330   1.864   5.522   2.781  0.4600  0.1302  0.2714
 9379TIP3   OH252331   0.319   1.376   2.394  0.1598 -0.3975  1.0888
 9379TIP3    H152332   0.381   1.336   2.456 -0.0024 -0.0493  1.4803
 9379TIP3    H252333   0.327   1.323   2.315  0.5302 -0.7168  1.3350
 9380TIP3   OH252334   3.412   6.808   1.280 -0.1634 -0.2888  0.2320
 9380TIP3    H152335   3.505   6.790   1.268 -0.3172 -0.0755 -1.7467
 9380TIP3    H252336   3.385   6.752   1.353  1.5767 -0.0549  1.1013
 9381TIP3   OH252337   4.103   6.449   2.396 -0.0667 -0.0063 -0.3210
 9381TIP3    H152338   4.173   6.384   2.403 -0.1081  0.0397  0.6798
 9381TIP3    H252339   4.030   6.401   2.358  0.0629 -0.4170 -0.0550
 9382TIP3   OH252340   4.858   5.497   0.547  0.0256  0.4184  0.1224
 9382TIP3    H152341   4.942   5.534   0.573  0.5341  0.0906 -1.0031
 9382TIP3    H252342   4.875   5.404   0.537 -0.9262  0.0562  1.6390
 9383TIP3   OH252343   5.326   4.769   2.971 -0.6998  0.1295 -0.3945
 9383TIP3    H152344   5.328   4.674   2.957  0.4549 -0.1238  1.1812
 9383TIP3    H252345   5.368   4.805   2.892 -0.9485 -0.6813 -0.9089
 9384TIP3   OH252346   2.572   0.512   2.619 -0.3546  0.2604  0.1276
 9384TIP3    H152347   2.500   0.524   2.557 -0.4139  1.9090  0.4663
 9384TIP3    H252348   2.530   0.508   2.704 -0.2157 -1.2862  0.1398
 9385TIP3   OH252349   6.231   4.007   1.944  0.6064 -0.2781  0.0268
 9385TIP3    H152350   6.145   4.040   1.969  0.4017 -0.3986 -0.5161
 9385TIP3    H252351   6.287   4.084   1.943  0.6630 -0.2894  1.0138
 9386TIP3   OH252352   2.888   6.872   1.877 -0.2298  0.6705 -0.4809
 9386TIP3    H152353   2.926   6.785   1.862  1.6565  0.9287  2.0229
 9386TIP3    H252354   2.825   6.858   1.948  0.9065  1.4796  0.7214
 9387TIP3   OH252355   6.653   2.238   1.089  0.7563  0.0378 -0.1633
 9387TIP3    H152356   6.588   2.220   1.021 -0.1189  0.4916  0.5304
 9387TIP3    H252357   6.719   2.291   1.044  0.6871 -0.4750 -0.8977
 9388TIP3   OH252358   0.005   1.196   1.231  0.4114  0.9528 -1.0782
 9388TIP3    H152359  -0.091   1.192   1.227  0.3488  0.8008  0.2090
 9388TIP3    H252360   0.023   1.276   1.281  0.9373  0.6064 -0.7121
 9389TIP3   OH252361   1.757   0.867   2.473 -0.0376  0.1805  0.3262
 9389TIP3    H152362   1.689   0.800   2.476 -0.5531  0.7011  0.2740
 9389TIP3    H252363   1.826   0.833   2.530 -0.9434  0.3162  1.5371
 9390TIP3   OH252364   4.931   4.075   0.497  0.2709 -0.1971 -0.0727
 9390TIP3    H152365   4.984   4.050   0.573 -1.1120 -0.1436  0.9491
 9390TIP3    H252366   4.986   4.137   0.449  1.0598  0.0088  1.0488
 9391TIP3   OH252367   3.481   0.395   3.350 -0.6044 -0.3333 -0.2499
 9391TIP3    H152368   3.385   0.389   3.346 -0.5499 -0.6833 -1.3129
 9391TIP3    H252369   3.504   0.462   3.286 -0.0750 -1.0414 -0.8178
 9392TIP3   OH252370   6.638   3.902   2.659 -0.1687  0.6816  0.0500
 9392TIP3    H152371   6.679   3.871   2.740  1.7611  1.4805 -0.5566
 9392TIP3    H252372   6.547   3.920   2.683  0.1113 -0.0429  1.7856
 9393TIP3   OH252373   3.696   0.494   0.873  0.1724  0.5138 -0.3980
 9393TIP3    H152374   3.760   0.475   0.941  1.4172  3.0808 -0.7294
 9393TIP3    H252375   3.613   0.505   0.920  0.7895  1.1499  0.5779
 9394TIP3   OH252376   4.713   3.383   1.507 -0.2556 -0.4088  0.7952
 9394TIP3    H152377   4.668   3.362   1.426 -2.4549 -0.0431  1.8648
 9394TIP3    H252378   4.720   3.478   1.508  0.4534 -0.4554  0.6926
 9395TIP3   OH252379   3.527   4.416   0.838 -0.0320  0.3824 -0.2041
 9395TIP3    H152380   3.575   4.375   0.910  1.9993  2.0388 -0.5083
 9395TIP3    H252381   3.448   4.364   0.829  1.2253 -1.9089  1.0284
 9396TIP3   OH252382   7.535   4.726   1.172 -0.0600 -0.2708  0.4050
 9396TIP3    H152383   7.502   4.641   1.202 -3.2880  1.6009  2.7848
 9396TIP3    H252384   7.606   4.747   1.232 -0.6221 -0.4342  1.1461
 9397TIP3   OH252385   4.789   5.648   2.634  0.1416  0.5736  0.5700
 9397TIP3    H152386   4.754   5.711   2.697 -1.7333  1.4960 -1.2501
 9397TIP3    H252387   4.711   5.611   2.592  1.2987 -0.0833 -1.1220
 9398TIP3   OH252388   2.828   6.370   1.402 -0.2530  0.4593  0.4798
 9398TIP3    H152389   2.773   6.311   1.453 -0.5214  1.1701  1.0190
 9398TIP3    H252390   2.767   6.414   1.343  0.1731 -1.0828 -1.2173
 9399TIP3   OH252391   2.036   1.809   1.046  0.4164 -0.2920 -0.3890
 9399TIP3    H152392   2.073   1.896   1.034  1.5138 -0.7789 -0.6340
 9399TIP3    H252393   1.948   1.815   1.009 -0.0873  1.1005  0.9152
 9400TIP3   OH252394   6.767   6.745   1.966 -0.0633 -0.1638  0.3438
 9400TIP3    H152395   6.830   6.736   1.895 -1.4430  0.3767 -1.0116
 9400TIP3    H252396   6.727   6.831   1.951 -0.6297 -0.1975  1.5696
 9401TIP3   OH252397   6.829   6.814   0.531  0.5372  0.2609 -0.3899
 9401TIP3    H152398   6.851   6.904   0.554  0.6345  0.4562 -1.2230
 9401TIP3    H252399   6.885   6.760   0.587 -1.9627  0.6031  2.7321
 9402TIP3   OH252400   1.363   2.275   2.247  0.1935  0.1984 -0.2041
 9402TIP3    H152401   1.438   2.229   2.286  0.2748 -0.4404 -1.1012
 9402TIP3    H252402   1.301   2.285   2.320  0.8510  0.1100  0.3800
 9403TIP3   OH252403   5.336   0.844   2.695  0.1364 -0.5240 -0.1391
 9403TIP3    H152404   5.339   0.859   2.790  0.2190 -1.4809  0.0167
 9403TIP3    H252405   5.272   0.908   2.663 -1.2663 -1.3863  0.8198
 9404TIP3   OH252406   0.949   2.929   3.359  0.0552 -0.6377 -0.1633
 9404TIP3    H152407   1.026   2.881   3.391 -0.6588 -2.3844 -0.9909
 9404TIP3    H252408   0.899   2.865   3.309 -0.6963  1.0956 -1.7537
 9405TIP3   OH252409   6.028   4.236   2.925 -0.3880 -0.2271 -0.1449
 9405TIP3    H152410   6.114   4.269   2.950 -0.1255 -1.2919  0.4237
 9405TIP3    H252411   6.023   4.149   2.966 -1.3464 -0.5773 -0.9685
 9406TIP3   OH252412   1.420   6.668   0.856 -0.4200  0.3791 -0.7685
 9406TIP3    H152413   1.441   6.626   0.939 -2.6659  0.4944 -0.0972
 9406TIP3    H252414   1.433   6.762   0.872  0.5643  0.3024 -1.0257
 9407TIP3   OH252415   2.140   3.800   0.792 -0.2900  0.0020 -0.4035
 9407TIP3    H152416   2.079   3.869   0.765 -0.6757  0.1022  0.6614
 9407TIP3    H252417   2.084   3.733   0.833 -0.0107 -1.3142 -2.0727
 9408TIP3   OH252418   3.774   6.973   3.302  0.0069  0.5610  0.1271
 9408TIP3    H152419   3.739   6.895   3.259  1.6237 -0.5597  0.7763
 9408TIP3    H252420   3.699   7.011   3.348 -1.3216  0.6786 -1.9557
 9409TIP3   OH252421   1.467   5.894   0.912 -0.1789  0.3225 -0.0583
 9409TIP3    H152422   1.532   5.946   0.866  0.8089 -0.1530  0.7680
 9409TIP3    H252423   1.502   5.805   0.912 -0.9317  0.0119  0.2160
 9410TIP3   OH252424   6.915   3.879   1.792 -0.9226 -0.7932 -0.1516
 9410TIP3    H152425   6.980   3.824   1.836  1.6174  1.7072 -0.4683
 9410TIP3    H252426   6.909   3.842   1.704  1.4125 -0.1811 -0.6443
 9411TIP3   OH252427   5.626   4.218   1.453 -0.1473 -0.1588  0.3952
 9411TIP3    H152428   5.556   4.264   1.406 -2.4828 -2.5715  1.2748
 9411TIP3    H252429   5.630   4.261   1.538 -0.4125  0.1031  0.2780
 9412TIP3   OH252430   5.571   6.038   2.007 -0.2919 -0.6192 -0.3773
 9412TIP3    H152431   5.551   6.114   1.952  1.4663 -0.2546 -0.5829
 9412TIP3    H252432   5.497   6.031   2.067 -0.9990  0.5964 -1.0735
 9413TIP3   OH252433   2.364   0.252   1.129  0.0640 -0.3272 -0.3270
 9413TIP3    H152434   2.372   0.163   1.165 -0.3616 -0.1834  0.1303
 9413TIP3    H252435   2.311   0.241   1.051 -0.5181 -0.3904  0.0715
 9414TIP3   OH252436   6.683   4.309   0.652  0.0975 -0.3354 -0.8239
 9414TIP3    H152437   6.642   4.223   0.660 -2.7450  1.0722  1.2853
 9414TIP3    H252438   6.721   4.325   0.738  2.5858 -0.2760 -1.8374
 9415TIP3   OH252439   0.143   4.672   2.139 -0.4662 -0.0315  0.0472
 9415TIP3    H152440   0.221   4.639   2.095  0.5530  2.7663 -0.4461
 9415TIP3    H252441   0.165   4.670   2.232 -0.5544 -1.0104  0.0507
 9416TIP3   OH252442   0.149   7.532   0.479 -0.0789  0.1150  0.1317
 9416TIP3    H152443   0.140   7.495   0.391  0.5537  2.1996 -0.8806
 9416TIP3    H252444   0.127   7.460   0.538 -0.8076 -1.2667 -1.7294
 9417TIP3   OH252445   4.659   4.173   0.396  0.0899 -0.5911 -0.0141
 9417TIP3    H152446   4.595   4.102   0.403 -0.0881 -0.3163  1.4099
 9417TIP3    H252447   4.743   4.132   0.415  0.1412 -0.6515 -0.3692
 9418TIP3   OH252448   0.719   3.415   0.469  0.2217 -0.2304  0.2781
 9418TIP3    H152449   0.795   3.441   0.520  0.3246 -1.6791  0.9055
 9418TIP3    H252450   0.744   3.332   0.428 -0.8542 -0.4985  0.1212
 9419TIP3   OH252451   7.289   7.238   1.144  0.7036  0.1572  0.0667
 9419TIP3    H152452   7.249   7.154   1.119  1.8370 -1.0256  1.9799
 9419TIP3    H252453   7.217   7.301   1.137  0.2709 -0.4862 -3.3386
 9420TIP3   OH252454   0.908   2.281   1.812 -0.4152 -0.0478 -0.2565
 9420TIP3    H152455   0.815   2.275   1.789 -0.9215  1.1116  1.2905
 9420TIP3    H252456   0.916   2.363   1.860  1.2389 -0.5384  0.4003
 9421TIP3   OH252457   6.151   4.791   0.463  0.3838  0.3736  0.5338
 9421TIP3    H152458   6.235   4.759   0.428  0.2674  0.7145 -0.0696
 9421TIP3    H252459   6.164   4.885   0.473  1.2522  0.0522  3.7500
 9422TIP3   OH252460   4.278   4.245   0.799 -0.3454 -0.2582 -0.3347
 9422TIP3    H152461   4.198   4.196   0.779 -0.2868 -0.3996 -0.2245
 9422TIP3    H252462   4.332   4.237   0.720  0.7679 -2.5447  0.5517
 9423TIP3   OH252463   2.440   1.116   2.706 -0.2221 -0.8087 -0.6983
 9423TIP3    H152464   2.431   1.211   2.717  1.7758 -0.5774 -0.6323
 9423TIP3    H252465   2.380   1.079   2.771  0.9130  0.4705  1.2144
 9424TIP3   OH252466   3.338   4.649   1.204 -0.0538  0.0516 -0.4415
 9424TIP3    H152467   3.316   4.738   1.229 -1.5381 -0.1275 -1.0092
 9424TIP3    H252468   3.254   4.603   1.201  0.4085 -0.7802 -2.3547
 9425TIP3   OH252469   4.434   0.603   1.582  0.1982 -0.5207 -0.3078
 9425TIP3    H152470   4.355   0.643   1.547  0.2036 -0.7077 -0.5393
 9425TIP3    H252471   4.403   0.549   1.656  0.2999  0.5843  0.5671
 9426TIP3   OH252472   2.642   5.101   2.388  0.0794  0.1604 -0.5518
 9426TIP3    H152473   2.615   5.101   2.480  0.3038  1.6143 -0.4533
 9426TIP3    H252474   2.645   5.194   2.364 -0.1754 -0.1965 -2.0931
 9427TIP3   OH252475   3.379   7.218   1.608  0.3422  0.2737 -0.4642
 9427TIP3    H152476   3.359   7.300   1.564 -0.2283  1.3356  1.6707
 9427TIP3    H252477   3.461   7.188   1.568  0.1847  1.4924 -1.7587
 9428TIP3   OH252478   0.550   4.587   0.691  0.2084 -0.2695  0.0752
 9428TIP3    H152479   0.579   4.678   0.689 -1.3954  0.2800  0.0701
 9428TIP3    H252480   0.544   4.566   0.784  0.9972 -0.5291  0.0750
 9429TIP3   OH252481   6.174   2.010   0.532 -0.0623 -0.1960 -0.3740
 9429TIP3    H152482   6.140   1.996   0.620  0.7903  3.2184  0.6640
 9429TIP3    H252483   6.266   1.983   0.538  0.0745  0.3107 -0.0907
 9430TIP3   OH252484   4.933   0.998   1.701  0.0576  0.3596 -0.1090
 9430TIP3    H152485   4.997   0.986   1.631 -0.0445 -1.1840  0.0168
 9430TIP3    H252486   4.982   1.036   1.773  0.5717  0.2729 -0.4074
 9431TIP3   OH252487   0.600   1.738   2.282 -0.2221  0.1784  0.0584
 9431TIP3    H152488   0.654   1.659   2.285 -0.4159 -0.0680 -1.7323
 9431TIP3    H252489   0.524   1.717   2.337  0.1480 -0.5389  0.3050
 9432TIP3   OH252490   6.234   3.549   2.210 -0.3317  0.9867  0.1543
 9432TIP3    H152491   6.317   3.580   2.247 -0.8246  0.9844  1.3012
 9432TIP3    H252492   6.197   3.625   2.165  0.4220  0.9030 -0.6412
 9433TIP3   OH252493   5.235   5.455   2.376 -0.3329 -0.4731 -0.0827
 9433TIP3    H152494   5.179   5.406   2.437  0.4412 -0.0887  0.9788
 9433TIP3    H252495   5.289   5.387   2.334  0.3556 -0.6078  0.9818
 9434TIP3   OH252496   5.580   0.575   3.412 -0.1351 -0.0897  0.4051
 9434TIP3    H152497   5.634   0.636   3.462  0.0185 -0.4345  0.6646
 9434TIP3    H252498   5.528   0.529   3.478 -1.4993  0.9407  0.0961
 9435TIP3   OH252499   3.455   2.167   1.909  0.1646  0.2470 -0.7081
 9435TIP3    H152500   3.423   2.228   1.842  0.6691  0.6437 -0.5894
 9435TIP3    H252501   3.376   2.121   1.939 -0.0239 -0.2416 -1.8660
 9436TIP3   OH252502   5.981   4.895   1.179 -0.4292  0.1865 -0.0608
 9436TIP3    H152503   6.033   4.943   1.115  0.2178  0.7097  0.8247
 9436TIP3    H252504   6.012   4.805   1.173 -1.7389 -0.1820 -1.8255
 9437TIP3   OH252505   1.352   4.612   3.389 -0.1731 -0.5157 -0.0966
 9437TIP3    H152506   1.392   4.560   3.458  2.6890  1.2097 -0.3027
 9437TIP3    H252507   1.306   4.682   3.436  0.4216 -0.2472  0.0899
 9438TIP3   OH252508   4.969   1.295   0.894 -0.9352 -0.0865  0.1908
 9438TIP3    H152509   4.907   1.256   0.955 -1.2453  0.9766  0.5924
 9438TIP3    H252510   4.921   1.368   0.855 -1.0053 -1.2055 -1.9349
 9439TIP3   OH252511   5.232   7.276   2.883  1.0907 -0.1059  0.4457
 9439TIP3    H152512   5.302   7.240   2.937 -1.4806 -4.2035  1.4919
 9439TIP3    H252513   5.156   7.283   2.941 -0.0063  2.3409 -1.0643
 9440TIP3   OH252514   6.887   5.890   0.600 -0.1670  0.3470  0.0888
 9440TIP3    H152515   6.831   5.838   0.658  0.5136  0.7020  1.0984
 9440TIP3    H252516   6.833   5.906   0.522 -0.9566 -0.4958  0.4370
 9441TIP3   OH252517   3.733   6.941   0.693 -0.2146  0.5492 -0.0660
 9441TIP3    H152518   3.795   6.996   0.741 -0.4977  1.6239 -0.9011
 9441TIP3    H252519   3.780   6.858   0.682  0.3310  0.6981  0.9640
 9442TIP3   OH252520   5.860   7.384   1.991 -0.5581  0.4514 -0.3778
 9442TIP3    H152521   5.954   7.373   2.007 -0.3131 -0.3727 -2.1917
 9442TIP3    H252522   5.819   7.363   2.075  0.8828  1.3296  0.6023
 9443TIP3   OH252523   4.542   4.900   0.752  0.5592  0.5501  0.5698
 9443TIP3    H152524   4.589   4.872   0.831  0.7519  0.9296  0.5908
 9443TIP3    H252525   4.565   4.835   0.686  1.5703  1.0481  0.4228
 9444TIP3   OH252526   7.143   5.027   0.423  0.4923  0.2514  0.0911
 9444TIP3    H152527   7.221   5.075   0.396  1.0448 -0.3298  0.6264
 9444TIP3    H252528   7.176   4.943   0.454 -0.5506 -0.9309 -1.8751
 9445TIP3   OH252529   1.205   2.703   1.511  0.1505  0.2948  0.0909
 9445TIP3    H152530   1.269   2.692   1.581 -0.2747 -0.1340  0.4197
 9445TIP3    H252531   1.223   2.790   1.476 -0.2740  0.9407  1.3985
 9446TIP3   OH252532   0.750   3.133   2.417 -0.3683 -0.6124 -0.8195
 9446TIP3    H152533   0.746   3.134   2.513  0.6319 -0.6288 -0.7620
 9446TIP3    H252534   0.717   3.219   2.391 -0.8347 -0.6813 -0.4732
 9447TIP3   OH252535   4.729   7.464   3.254  0.0130 -0.3443 -0.1012
 9447TIP3    H152536   4.752   7.377   3.287 -0.9827 -0.1857  1.0796
 9447TIP3    H252537   4.759   7.525   3.321 -2.9214 -0.0763  1.1184
 9448TIP3   OH252538   2.299   2.345   1.011 -0.1435 -0.4618  0.0348
 9448TIP3    H152539   2.210   2.374   1.031 -1.9931 -3.2452 -3.0936
 9448TIP3    H252540   2.343   2.424   0.979 -2.1316  0.6562 -0.1532
 9449TIP3   OH252541   3.607   0.427   0.417  0.0529  0.3421  0.2429
 9449TIP3    H152542   3.624   0.517   0.446  0.5589 -0.0671  1.2445
 9449TIP3    H252543   3.516   0.429   0.387 -0.6023  0.7285  2.1429
 9450TIP3   OH252544   1.871   2.050   2.161  0.1012  0.1780 -0.2542
 9450TIP3    H152545   1.943   2.057   2.223  0.2583  0.9681 -0.5134
 9450TIP3    H252546   1.802   2.003   2.209 -0.7180  2.8465  1.4163
 9451TIP3   OH252547   6.411   7.112   1.492 -0.2101  0.1840  0.4581
 9451TIP3    H152548   6.332   7.072   1.526 -0.3906  0.6277  0.5716
 9451TIP3    H252549   6.381   7.164   1.417  0.2458 -1.1772 -0.7163
 9452TIP3   OH252550   2.454   4.909   2.401  0.4007 -0.1618  0.4593
 9452TIP3    H152551   2.388   4.965   2.441  0.4843 -0.0573  0.4506
 9452TIP3    H252552   2.531   4.965   2.392  0.3516 -0.1570  0.0589
 9453TIP3   OH252553   3.596   2.035   1.728  0.1442 -0.0294  0.1431
 9453TIP3    H152554   3.573   2.086   1.806  0.8621 -0.8501  0.9208
 9453TIP3    H252555   3.516   1.986   1.707 -0.2289  0.6276  0.0089
 9454TIP3   OH252556   3.428   1.052   0.911  0.0260 -0.0341 -0.2000
 9454TIP3    H152557   3.449   1.088   0.997 -1.7044  1.6422 -0.3980
 9454TIP3    H252558   3.459   0.961   0.914  2.7729  0.8562  1.0554
 9455TIP3   OH252559   1.461   2.861   1.264 -0.3856 -0.1905  0.4633
 9455TIP3    H152560   1.384   2.850   1.209  0.0795  0.3397 -0.3124
 9455TIP3    H252561   1.514   2.927   1.219  1.2010 -1.5533  0.2114
 9456TIP3   OH252562   0.620   3.985   0.665  0.2884  0.2759  0.6608
 9456TIP3    H152563   0.576   4.008   0.583 -1.2152  0.7414  1.5758
 9456TIP3    H252564   0.670   3.906   0.643 -1.2309 -0.4488 -0.3435
 9457TIP3   OH252565   6.939   2.273   1.152 -0.8731 -0.1668  0.6780
 9457TIP3    H152566   6.944   2.185   1.114 -0.7120 -0.7094  1.9206
 9457TIP3    H252567   7.029   2.305   1.151 -0.9240 -0.0271  0.2728
 9458TIP3   OH252568   0.570   0.181   3.096  0.3449  0.1903  0.1133
 9458TIP3    H152569   0.634   0.161   3.027  0.1313 -0.3973  0.0861
 9458TIP3    H252570   0.550   0.097   3.135  0.8164  0.5672  1.2149
 9459TIP3   OH252571   2.548   3.403   0.880 -0.2456 -0.7319 -0.0842
 9459TIP3    H152572   2.487   3.355   0.937 -0.7745  0.2454  0.1914
 9459TIP3    H252573   2.540   3.494   0.908  2.1748 -0.6826  0.7285
 9460TIP3   OH252574   1.424   3.279   3.048  0.0595  0.3509 -0.1621
 9460TIP3    H152575   1.347   3.283   3.105 -0.0218 -2.8893  0.1273
 9460TIP3    H252576   1.496   3.311   3.103 -0.2220 -1.6173  1.4759
 9461TIP3   OH252577   4.199   1.534   1.382 -0.6109  0.0769 -0.1791
 9461TIP3    H152578   4.265   1.582   1.332 -0.3315  1.2046  1.2085
 9461TIP3    H252579   4.191   1.450   1.337 -0.8409  1.2526 -2.4699
 9462TIP3   OH252580   5.811   5.762   3.079 -0.0251  0.3313 -0.0225
 9462TIP3    H152581   5.808   5.667   3.079  0.8804  0.2865  0.9219
 9462TIP3    H252582   5.762   5.788   3.157  0.8102  0.5727  0.4400
 9463TIP3   OH252583   1.381   2.505   2.094  0.1725  0.3686  0.0723
 9463TIP3    H152584   1.293   2.542   2.098  0.4111  0.9331  0.2420
 9463TIP3    H252585   1.377   2.428   2.150  0.0713  1.0032  0.9561
 9464TIP3   OH252586   0.950   4.542   0.867 -0.2477 -0.1669  0.5955
 9464TIP3    H152587   0.880   4.563   0.929 -1.0474 -1.6284  0.2600
 9464TIP3    H252588   0.976   4.626   0.829 -0.8808  0.5551  1.7199
 9465TIP3   OH252589   4.866   5.973   2.500 -0.0872  0.1717 -0.0686
 9465TIP3    H152590   4.811   6.047   2.473  0.5806  0.8593  0.3968
 9465TIP3    H252591   4.828   5.897   2.456 -1.3917  0.6260  0.2381
 9466TIP3   OH252592   3.312   0.144   3.112  0.3005  0.2800  0.1242
 9466TIP3    H152593   3.392   0.196   3.108  0.6419 -0.2515 -0.1355
 9466TIP3    H252594   3.265   0.167   3.032  0.6576 -0.1238 -0.2101
 9467TIP3   OH252595   5.350   2.026   1.118  0.2564 -0.2281 -0.1292
 9467TIP3    H152596   5.291   1.988   1.054 -2.7773 -1.7509  3.2338
 9467TIP3    H252597   5.329   2.119   1.119 -2.3978 -0.7422  1.0588
 9468TIP3   OH252598   5.785   5.890   0.823  0.3908  0.0979 -0.3764
 9468TIP3    H152599   5.796   5.878   0.917  0.2214  2.2971 -0.0453
 9468TIP3    H252600   5.848   5.957   0.799 -0.3131  0.3423 -1.6418
 9469TIP3   OH252601   3.629   6.365   2.702 -0.1321 -0.0891  0.1206
 9469TIP3    H152602   3.679   6.306   2.758  0.7035  0.8183  0.3518
 9469TIP3    H252603   3.673   6.361   2.617 -0.3167 -0.1035  0.0250
 9470TIP3   OH252604   2.105   7.016   1.043 -0.3134  0.2090 -0.4940
 9470TIP3    H152605   2.060   6.952   1.097  1.1679 -0.1784  0.3410
 9470TIP3    H252606   2.130   6.967   0.964  0.4665 -0.1549 -0.0328
 9471TIP3   OH252607   5.556   4.605   2.487 -0.5102  0.2495  0.0923
 9471TIP3    H152608   5.642   4.637   2.513  0.1720 -0.3965 -1.2538
 9471TIP3    H252609   5.541   4.528   2.542 -0.5421  0.7687  0.8124
 9472TIP3   OH252610   3.996   7.074   1.546 -1.2216  0.7244  0.1692
 9472TIP3    H152611   3.938   7.005   1.577 -0.9843  0.7106  0.5813
 9472TIP3    H252612   3.996   7.140   1.615 -0.5003  0.5791  0.3219
 9473TIP3   OH252613   0.440   1.885   0.895 -0.2758  0.5470 -0.3416
 9473TIP3    H152614   0.504   1.821   0.925 -2.3265 -0.7814  1.5673
 9473TIP3    H252615   0.428   1.866   0.802  1.5231  0.3630 -0.5572
 9474TIP3   OH252616   1.825   5.343   2.821  0.4281 -0.3477 -0.3525
 9474TIP3    H152617   1.787   5.259   2.850  0.0806  0.3951  1.5278
 9474TIP3    H252618   1.838   5.333   2.727  0.0115 -2.3634 -0.2376
 9475TIP3   OH252619   2.029   1.221   2.054 -0.2559  0.0035  0.2184
 9475TIP3    H152620   1.944   1.266   2.049  0.3741  1.1853 -0.2361
 9475TIP3    H252621   2.007   1.128   2.054 -1.7364  0.2345  3.2241
 9476TIP3   OH252622   0.385   7.209   0.664 -0.0490 -0.1767 -0.1218
 9476TIP3    H152623   0.459   7.268   0.674  0.6149 -1.0979  0.6726
 9476TIP3    H252624   0.313   7.264   0.634  0.8112  0.8318 -0.3679
 9477TIP3   OH252625   6.428   7.560   2.207  0.2083  0.0877 -0.0595
 9477TIP3    H152626   6.518   7.585   2.230  0.4892 -0.2484 -0.7775
 9477TIP3    H252627   6.378   7.640   2.217  0.7251  0.4525 -0.3610
 9478TIP3   OH252628   6.500   2.986   2.713 -0.2574  0.3597 -0.3862
 9478TIP3    H152629   6.475   3.014   2.801 -1.8777  0.8317 -0.9538
 9478TIP3    H252630   6.443   2.911   2.696 -0.3079  0.5843 -1.2117
 9479TIP3   OH252631   1.696   0.807   0.451  0.0500  0.2287 -0.3149
 9479TIP3    H152632   1.791   0.803   0.456  0.2373  2.5083 -1.0294
 9479TIP3    H252633   1.674   0.752   0.376  0.7856 -0.3356 -0.1288
 9480TIP3   OH252634   1.653   0.145   1.186 -0.4602 -0.2394 -0.2746
 9480TIP3    H152635   1.653   0.105   1.099 -1.1816 -0.7460 -0.0526
 9480TIP3    H252636   1.629   0.237   1.170 -0.4024 -0.2838 -0.6267
 9481TIP3   OH252637   0.260   5.154   2.327 -0.2534  0.4066 -0.1594
 9481TIP3    H152638   0.219   5.067   2.325 -0.3602  0.4354  0.4587
 9481TIP3    H252639   0.200   5.207   2.380 -0.1485  0.8391 -0.4699
 9482TIP3   OH252640   4.511   5.920   2.956 -0.0525 -0.0984  0.5520
 9482TIP3    H152641   4.541   5.944   3.044  1.1646 -0.7130  0.3398
 9482TIP3    H252642   4.492   5.827   2.962 -0.4829 -0.0271  0.2954
 9483TIP3   OH252643   1.137   0.379   1.732  0.6651  0.5182 -0.5379
 9483TIP3    H152644   1.174   0.465   1.750 -0.1755  0.8613 -0.4329
 9483TIP3    H252645   1.213   0.320   1.731  1.1936  1.1834 -0.1698
 9484TIP3   OH252646   2.584   4.904   2.077  0.2952  0.3273  0.2839
 9484TIP3    H152647   2.533   4.980   2.049 -1.0472 -1.0488 -1.2939
 9484TIP3    H252648   2.525   4.856   2.135  0.7620 -0.0075  0.4881
 9485TIP3   OH252649   3.063   3.535   1.934 -0.5409  0.5698 -0.5300
 9485TIP3    H152650   3.081   3.565   1.845  1.7290  0.1339 -0.2750
 9485TIP3    H252651   3.038   3.443   1.923  0.9355  0.1587 -0.6611
 9486TIP3   OH252652   1.543   1.533   1.980 -0.1579  0.1584  0.2797
 9486TIP3    H152653   1.629   1.531   2.023 -0.9456 -2.5722  1.9988
 9486TIP3    H252654   1.499   1.609   2.018  1.5754  1.8968 -0.9901
 9487TIP3   OH252655   5.363   1.864   0.658  0.6503 -0.0748  0.2078
 9487TIP3    H152656   5.331   1.951   0.678  0.9491  0.1027 -0.0698
 9487TIP3    H252657   5.302   1.830   0.592 -0.6571 -0.8731  1.7610
 9488TIP3   OH252658   7.457   5.010   0.801 -0.3802 -0.2813 -0.2383
 9488TIP3    H152659   7.470   5.053   0.716 -0.5355 -0.7339 -0.4914
 9488TIP3    H252660   7.362   5.002   0.809 -0.4303  0.8927  0.5476
 9489TIP3   OH252661   0.956   7.115   3.007 -0.1425  0.5991 -0.4513
 9489TIP3    H152662   0.901   7.084   3.079  0.9668 -1.0956 -0.2834
 9489TIP3    H252663   0.894   7.133   2.936 -1.1417  1.1886  0.5325
 9490TIP3   OH252664   6.293   6.671   1.115 -0.3049  0.5378 -0.4404
 9490TIP3    H152665   6.252   6.647   1.198  0.9244 -2.1169 -0.5211
 9490TIP3    H252666   6.331   6.758   1.131 -2.6118  1.4145  0.7695
 9491TIP3   OH252667   1.986   1.651   1.444 -0.1964 -0.3879 -0.0743
 9491TIP3    H152668   2.009   1.577   1.388 -1.8292 -2.0526  1.3349
 9491TIP3    H252669   1.906   1.623   1.488 -0.0195  1.6284  1.6521
 9492TIP3   OH252670   1.478   6.048   1.500 -0.3058  0.5680 -0.1354
 9492TIP3    H152671   1.447   6.093   1.422  0.0361 -1.0198 -1.2373
 9492TIP3    H252672   1.571   6.070   1.506  0.0597 -0.6035 -1.1555
 9493TIP3   OH252673   6.296   1.301   1.269 -0.1038  0.1009  0.1941
 9493TIP3    H152674   6.347   1.373   1.231  0.3144 -1.3301 -2.1262
 9493TIP3    H252675   6.361   1.233   1.287 -0.7017 -0.3025  0.8849
 9494TIP3   OH252676   0.266   1.134   3.090 -0.2606  0.1749  0.0276
 9494TIP3    H152677   0.315   1.204   3.048  1.3863 -0.6418  0.4807
 9494TIP3    H252678   0.310   1.054   3.061 -1.1625 -0.5761  0.6901
 9495TIP3   OH252679   4.562   7.527   0.427 -0.5615  0.1479  0.2294
 9495TIP3    H152680   4.580   7.577   0.506  0.5513  2.0967 -1.1839
 9495TIP3    H252681   4.509   7.453   0.457  1.3219 -0.2103  3.0689
 9496TIP3   OH252682   6.967   0.658   1.418  0.1884 -0.1366 -0.3066
 9496TIP3    H152683   6.915   0.641   1.339 -0.6876 -0.4880  0.3344
 9496TIP3    H252684   7.057   0.637   1.392 -0.2982 -1.8682 -0.7319
 9497TIP3   OH252685   0.847   6.701   2.365 -0.0132 -0.1363  0.3082
 9497TIP3    H152686   0.862   6.674   2.456 -2.7574  0.9602  1.1883
 9497TIP3    H252687   0.816   6.791   2.372 -2.0618 -0.6277 -1.5358
 9498TIP3   OH252688   1.298   3.084   1.089 -0.2349  0.2686 -0.3163
 9498TIP3    H152689   1.274   3.162   1.139  1.0681 -0.0654  0.8756
 9498TIP3    H252690   1.389   3.097   1.066 -0.3250 -0.3991 -1.0831
 9499TIP3   OH252691   3.746   4.062   1.152  0.9561  0.3379  0.2905
 9499TIP3    H152692   3.802   3.995   1.191 -0.0941 -0.1892  0.9761
 9499TIP3    H252693   3.685   4.085   1.222  0.2064  0.7545 -0.4790
 9500TIP3   OH252694   1.309   3.425   2.055  0.0812  0.0939 -0.4107
 9500TIP3    H152695   1.266   3.341   2.071  1.4224 -0.3448  1.3291
 9500TIP3    H252696   1.321   3.462   2.143  1.5215  1.0339 -0.9721
 9501TIP3   OH252697   4.418   2.294   1.627 -0.8067 -0.8548 -0.2761
 9501TIP3    H152698   4.468   2.360   1.579 -0.4218 -0.5007  0.5983
 9501TIP3    H252699   4.342   2.342   1.660 -1.2625 -1.1835 -0.8358
 9502TIP3   OH252700   7.539   5.694   1.328  0.0495 -0.5865  0.3529
 9502TIP3    H152701   7.487   5.774   1.320  1.2378  0.1052 -0.7023
 9502TIP3    H252702   7.485   5.626   1.288  0.3287  0.3143 -1.6698
 9503TIP3   OH252703   0.457   0.482   0.415  0.4344  0.6757  0.6018
 9503TIP3    H152704   0.461   0.445   0.504 -3.3491  1.1236  1.1325
 9503TIP3    H252705   0.430   0.409   0.360 -3.9668  1.6109  1.1382
 9504TIP3   OH252706   1.586   5.001   2.536  0.0785  0.5074 -0.0256
 9504TIP3    H152707   1.673   4.969   2.511  0.7551  0.3093  2.3456
 9504TIP3    H252708   1.561   5.061   2.465  1.2378 -0.9440 -1.7429
 9505TIP3   OH252709   4.393   6.296   3.304 -0.3154  0.0414  0.1331
 9505TIP3    H152710   4.318   6.244   3.332  0.3926 -1.1217 -0.0745
 9505TIP3    H252711   4.409   6.356   3.378  1.2168 -2.6395  2.1838
 9506TIP3   OH252712   7.165   2.985   1.021 -0.4020 -0.3942 -0.3251
 9506TIP3    H152713   7.188   3.029   1.103  0.7736  0.2271 -0.9730
 9506TIP3    H252714   7.069   2.978   1.024 -0.4272  0.2357  0.7897
 9507TIP3   OH252715   5.329   6.968   0.476 -0.0953  0.1209  0.3557
 9507TIP3    H152716   5.237   6.954   0.455 -0.0906 -0.1086  0.4795
 9507TIP3    H252717   5.373   6.888   0.448  0.1787  0.5119 -0.3464
 9508TIP3   OH252718   6.029   1.163   1.934  0.7710  0.3179  0.3801
 9508TIP3    H152719   6.001   1.072   1.929 -2.0519  1.1194  0.1344
 9508TIP3    H252720   6.066   1.172   2.022  1.0797 -1.0449  0.4094
 9509TIP3   OH252721   2.830   4.030   1.556  0.7324  0.3901  0.6828
 9509TIP3    H152722   2.763   3.968   1.584  0.1208 -0.7155 -2.7982
 9509TIP3    H252723   2.781   4.107   1.527  1.2868  1.1349  1.6218
 9510TIP3   OH252724   1.997   2.702   0.898  0.7256 -0.5576 -0.8365
 9510TIP3    H152725   2.060   2.681   0.967  1.2504  2.1685 -0.3828
 9510TIP3    H252726   2.051   2.726   0.823  0.2124  0.2553 -0.9543
 9511TIP3   OH252727   5.322   5.104   1.485  0.3541  0.3723  0.0827
 9511TIP3    H152728   5.228   5.097   1.505  0.5771 -0.3482  0.9266
 9511TIP3    H252729   5.327   5.091   1.390 -0.0732 -3.8419  0.4429
 9512TIP3   OH252730   2.880   1.643   2.300  0.4527 -0.2617 -0.1802
 9512TIP3    H152731   2.797   1.690   2.308  0.6231 -0.1331  1.0042
 9512TIP3    H252732   2.925   1.687   2.228 -0.5790 -0.4754 -0.9935
 9513TIP3   OH252733   1.288   2.555   1.202 -0.4538 -0.5431  0.2627
 9513TIP3    H152734   1.308   2.533   1.293  2.6563  1.3793  0.1676
 9513TIP3    H252735   1.368   2.537   1.154 -1.8206 -0.9039 -2.0466
 9514TIP3   OH252736   1.393   5.266   3.252 -0.8794  0.5615  0.4765
 9514TIP3    H152737   1.307   5.245   3.286 -0.9010  1.2184  0.8517
 9514TIP3    H252738   1.446   5.188   3.267 -2.1655 -1.0632 -2.5591
 9515TIP3   OH252739   6.655   5.077   2.994  0.5332  0.1908  0.7344
 9515TIP3    H152740   6.746   5.049   2.995  0.7113 -0.2802 -3.9295
 9515TIP3    H252741   6.659   5.172   2.982  0.7220 -0.0789 -2.2875
 9516TIP3   OH252742   0.314   4.289   3.231  0.1470 -0.1211  0.1187
 9516TIP3    H152743   0.309   4.384   3.241  0.5927 -0.2372  1.7208
 9516TIP3    H252744   0.238   4.266   3.177 -0.8167  0.9912  0.9545
 9517TIP3   OH252745   0.199   4.791   1.330 -0.3985 -0.2802 -0.1361
 9517TIP3    H152746   0.183   4.801   1.424  0.1652  0.7617 -0.1324
 9517TIP3    H252747   0.201   4.881   1.296  0.4421 -0.5889 -0.9535
 9518TIP3   OH252748   2.221   0.281   1.714 -0.0897 -0.0389 -0.6450
 9518TIP3    H152749   2.283   0.342   1.675  1.7366 -0.3831  1.5087
 9518TIP3    H252750   2.271   0.236   1.782 -2.0234 -2.2267 -0.5251
 9519TIP3   OH252751   0.024   3.681   1.564  0.1691 -0.5116  0.4721
 9519TIP3    H152752  -0.045   3.723   1.512  2.1808  1.2518 -0.9152
 9519TIP3    H252753   0.032   3.737   1.642  0.5119 -0.2858  0.2774
 9520TIP3   OH252754   6.183   1.468   1.001 -0.3942 -0.2487 -0.1657
 9520TIP3    H152755   6.118   1.458   0.932 -1.3092 -0.9506  0.7647
 9520TIP3    H252756   6.246   1.399   0.986 -1.9346 -2.0278  1.1020
 9521TIP3   OH252757   7.180   4.135   2.175  0.8527 -0.2272  0.4898
 9521TIP3    H152758   7.130   4.061   2.139  0.4300  1.1830 -2.1076
 9521TIP3    H252759   7.268   4.125   2.137  0.7300  0.6662 -0.0709
 9522TIP3   OH252760   0.676   1.285   1.600 -0.1654 -0.0274  1.0724
 9522TIP3    H152761   0.667   1.375   1.567 -3.0847 -0.7576 -0.4886
 9522TIP3    H252762   0.756   1.253   1.560 -0.6042  0.9944 -0.7663
 9523TIP3   OH252763   5.736   3.677   2.144 -0.3245  0.4189  0.4458
 9523TIP3    H152764   5.799   3.673   2.073 -0.1908 -0.3670  0.6032
 9523TIP3    H252765   5.677   3.749   2.121  0.6054  1.1397  0.2820
 9524TIP3   OH252766   4.650   2.033   2.238 -0.1288 -0.4190  0.5155
 9524TIP3    H152767   4.622   2.037   2.146  1.7781 -0.9828 -0.1339
 9524TIP3    H252768   4.628   2.119   2.273 -0.2303  0.0630 -0.6761
 9525TIP3   OH252769   3.917   0.398   0.973 -0.2234  0.2248  0.2629
 9525TIP3    H152770   3.975   0.401   0.896  0.0596 -0.7215  0.4139
 9525TIP3    H252771   3.963   0.339   1.034 -1.6731 -1.1322  0.0987
 9526TIP3   OH252772   4.580   2.310   1.303  0.3009  0.3277  0.1834
 9526TIP3    H152773   4.650   2.334   1.363  1.1938  0.1144 -0.7427
 9526TIP3    H252774   4.558   2.391   1.257 -0.5957  0.5591  0.9893
 9527TIP3   OH252775   0.584   1.315   2.515 -0.2230 -0.2450 -0.4694
 9527TIP3    H152776   0.588   1.410   2.526 -1.0969 -0.2614  0.0546
 9527TIP3    H252777   0.676   1.288   2.510  0.0329  0.7659 -2.0354
 9528TIP3   OH252778   1.819   5.487   0.876  0.3322  0.2628 -0.6581
 9528TIP3    H152779   1.892   5.520   0.928  0.8325  0.4051 -1.4229
 9528TIP3    H252780   1.818   5.393   0.895 -1.0735  0.6427  1.4903
 9529TIP3   OH252781   3.578   5.659   3.048  0.1103 -0.2468 -0.4821
 9529TIP3    H152782   3.484   5.645   3.034  0.4253 -0.6374 -2.4740
 9529TIP3    H252783   3.587   5.755   3.053 -0.1948 -0.1216 -2.0132
 9530TIP3   OH252784   0.894   1.586   1.635  0.6369 -0.0675  0.2224
 9530TIP3    H152785   0.930   1.510   1.681 -0.1880 -0.2572  0.5605
 9530TIP3    H252786   0.916   1.661   1.691 -3.3541 -0.5998  2.8698
 9531TIP3   OH252787   6.711   3.159   1.243  0.4888  0.0409  0.1635
 9531TIP3    H152788   6.635   3.180   1.189  1.2858  0.0698 -0.9804
 9531TIP3    H252789   6.783   3.209   1.205  1.4559 -1.2842  0.1554
 9532TIP3   OH252790   3.411   3.239   1.208  0.8900 -0.1810  0.1814
 9532TIP3    H152791   3.414   3.155   1.161  0.4631 -1.4459  2.2501
 9532TIP3    H252792   3.500   3.252   1.240  1.1158  0.5268 -0.7280
 9533TIP3   OH252793   0.088   1.698   2.258  0.1065 -0.3406  0.1966
 9533TIP3    H152794  -0.002   1.666   2.252  0.0684  0.0500 -2.0296
 9533TIP3    H252795   0.138   1.641   2.200  0.4093  2.1284 -2.1599
 9534TIP3   OH252796   0.807   1.851   1.359 -0.0707  0.1785 -0.2522
 9534TIP3    H152797   0.882   1.856   1.300 -0.2760 -0.4835 -0.5717
 9534TIP3    H252798   0.732   1.876   1.304 -0.1272  0.5612 -0.0069
 9535TIP3   OH252799   7.425   7.537   3.050  0.0478 -0.0699 -0.2875
 9535TIP3    H152800   7.502   7.537   3.106  0.0383 -1.3548 -0.2420
 9535TIP3    H252801   7.392   7.447   3.054 -0.8374  0.1938 -1.1428
 9536TIP3   OH252802   7.196   1.649   3.072  0.5252 -0.4317 -0.3517
 9536TIP3    H152803   7.276   1.603   3.095  0.8534  0.2185 -0.1806
 9536TIP3    H252804   7.139   1.581   3.036  0.8530 -1.0436  0.2605
 9537TIP3   OH252805   0.946   2.020   2.300  0.3798 -0.2408 -0.2687
 9537TIP3    H152806   0.885   1.983   2.235 -2.2019  1.4819  1.0026
 9537TIP3    H252807   1.022   2.047   2.248  0.3013 -2.8026 -1.8859
 9538TIP3   OH252808   4.744   6.555   1.841 -0.0540 -0.1405  0.2359
 9538TIP3    H152809   4.758   6.588   1.753  0.0635  0.8825  0.6177
 9538TIP3    H252810   4.713   6.631   1.891  0.3831 -0.5631  1.1921
 9539TIP3   OH252811   2.716   6.331   1.950  1.1538  0.9263  0.2558
 9539TIP3    H152812   2.622   6.323   1.932  1.1340  0.1288  0.6964
 9539TIP3    H252813   2.736   6.260   2.010  2.1958  0.6385 -0.3992
 9540TIP3   OH252814   4.870   4.113   2.703  0.5561  0.1060 -0.0052
 9540TIP3    H152815   4.869   4.121   2.607  0.1227  1.1008  0.0675
 9540TIP3    H252816   4.961   4.093   2.725  0.9733  1.3540 -0.5228
 9541TIP3   OH252817   3.564   5.902   1.883  0.3035 -0.4946  0.1719
 9541TIP3    H152818   3.582   5.812   1.855  1.4945 -0.5299  0.9340
 9541TIP3    H252819   3.586   5.956   1.807 -0.8042 -0.8529 -0.4269
 9542TIP3   OH252820   2.151   0.390   0.566  0.0178 -0.0392 -0.3033
 9542TIP3    H152821   2.149   0.470   0.514 -0.7462 -0.1018 -0.3938
 9542TIP3    H252822   2.075   0.398   0.624  1.1091  0.2383  1.1227
 9543TIP3   OH252823   7.314   6.224   0.577 -0.4552  0.4081 -0.4130
 9543TIP3    H152824   7.349   6.159   0.515 -1.7713  0.4752 -1.2716
 9543TIP3    H252825   7.299   6.174   0.657  1.1491  0.2885 -0.1531
 9544TIP3   OH252826   2.587   6.353   2.340 -0.0110 -0.3235 -0.2279
 9544TIP3    H152827   2.494   6.372   2.327 -0.2846 -0.9070  0.8249
 9544TIP3    H252828   2.624   6.361   2.252 -0.7089  1.6896 -0.3895
 9545TIP3   OH252829   6.115   0.906   0.671  0.0000  0.2057  0.1804
 9545TIP3    H152830   6.133   0.964   0.745 -1.1735  0.7720  0.0432
 9545TIP3    H252831   6.068   0.832   0.710 -2.2633  1.3603 -0.1968
 9546TIP3   OH252832   3.924   4.291   0.986 -0.1097 -0.6836  0.0726
 9546TIP3    H152833   3.931   4.206   1.029  0.6230 -0.5285  0.2819
 9546TIP3    H252834   3.908   4.353   1.057 -0.1272 -0.5824 -0.0182
 9547TIP3   OH252835   7.372   2.596   2.345  0.3052  0.2308 -0.1286
 9547TIP3    H152836   7.411   2.625   2.262  1.4065  1.1494  0.6789
 9547TIP3    H252837   7.307   2.663   2.366  3.0309  2.5521  1.8710
 9548TIP3   OH252838   2.022   3.232   1.783  0.0004 -0.0738  0.2918
 9548TIP3    H152839   2.046   3.322   1.764  0.6742 -0.1709  0.6419
 9548TIP3    H252840   2.038   3.185   1.701 -0.2951  0.1092  0.1267
 9549TIP3   OH252841   3.175   4.373   1.386 -0.0654  0.3866 -0.4929
 9549TIP3    H152842   3.258   4.351   1.345  0.2088 -0.3876  0.4241
 9549TIP3    H252843   3.110   4.323   1.337  0.1599  0.0935 -0.4960
 9550TIP3   OH252844   2.773   5.398   0.843 -0.0036 -0.2745 -0.2084
 9550TIP3    H152845   2.809   5.316   0.808 -0.7419 -0.1937 -1.2418
 9550TIP3    H252846   2.809   5.466   0.786 -1.4138 -0.1573 -1.0153
 9551TIP3   OH252847   2.236   4.541   0.485 -0.4919  0.6123  0.6213
 9551TIP3    H152848   2.205   4.590   0.408  0.0424 -0.6400 -0.4391
 9551TIP3    H252849   2.156   4.511   0.528 -0.9251 -1.8383 -1.5867
 9552TIP3   OH252850   1.109   1.108   0.427  0.0927  0.0282 -0.5768
 9552TIP3    H152851   1.065   1.037   0.381 -0.5087  0.5225 -0.7806
 9552TIP3    H252852   1.040   1.151   0.477  0.4113  0.5822 -0.6038
 9553TIP3   OH252853   0.890   1.346   2.810 -0.4583  0.7259 -0.1073
 9553TIP3    H152854   0.797   1.366   2.802 -0.1898  2.0761 -0.1096
 9553TIP3    H252855   0.929   1.427   2.842  0.7754  0.2992 -0.4776
 9554TIP3   OH252856   0.061   2.165   1.517  0.1194 -0.2064  0.0556
 9554TIP3    H152857   0.153   2.172   1.493  0.1831 -0.3048  0.2637
 9554TIP3    H252858   0.034   2.078   1.487  0.2916 -0.4670  0.6345
 9555TIP3   OH252859   4.252   2.352   0.844 -0.0323  0.3535 -0.0021
 9555TIP3    H152860   4.288   2.427   0.796  1.9162 -0.6200 -0.1368
 9555TIP3    H252861   4.174   2.327   0.794  0.9602  0.4591 -1.6814
 9556TIP3   OH252862   2.459   5.339   1.820  0.1599 -0.2945  0.7285
 9556TIP3    H152863   2.507   5.416   1.790  2.2747 -1.0706  1.9130
 9556TIP3    H252864   2.523   5.269   1.820 -1.1582 -1.5694  1.7179
 9557TIP3   OH252865   2.424   4.749   0.967 -0.3261  0.0516  0.1451
 9557TIP3    H152866   2.506   4.733   0.921  0.0953 -0.0662  0.9243
 9557TIP3    H252867   2.396   4.836   0.938  1.3200  1.1495  1.6968
 9558TIP3   OH252868   2.060   3.538   0.452  0.4431  0.2919 -0.3570
 9558TIP3    H152869   1.969   3.566   0.463 -0.0269 -0.5629 -1.8151
 9558TIP3    H252870   2.053   3.446   0.426  1.8426 -0.5926  2.0412
 9559TIP3   OH252871   0.752   4.116   1.962  0.2492  0.0550  0.5541
 9559TIP3    H152872   0.846   4.127   1.974  0.3629  0.5528 -0.6535
 9559TIP3    H252873   0.713   4.166   2.033  0.8922  1.0298  0.2399
 9560TIP3   OH252874   3.034   4.473   2.042  0.0146  0.2949 -0.4072
 9560TIP3    H152875   3.103   4.426   1.995 -1.6858 -1.0335 -1.7077
 9560TIP3    H252876   2.954   4.424   2.023 -1.1448  1.0256  2.0765
 9561TIP3   OH252877   7.400   4.257   1.090 -0.4114 -0.0772 -0.4502
 9561TIP3    H152878   7.342   4.206   1.033 -0.0029  0.2256 -1.1516
 9561TIP3    H252879   7.455   4.307   1.030  0.3207 -0.0709  0.2087
 9562TIP3   OH252880   0.502   6.456   0.925  0.1622 -0.5117  0.6671
 9562TIP3    H152881   0.440   6.469   0.996  0.1699 -0.6098  0.6920
 9562TIP3    H252882   0.457   6.398   0.864 -0.0942  0.0929  0.2755
 9563TIP3   OH252883   4.466   0.746   0.885  0.1790 -0.1914 -0.0720
 9563TIP3    H152884   4.509   0.829   0.863  0.3103  0.0252  0.9449
 9563TIP3    H252885   4.470   0.695   0.804  1.9530 -0.0186 -0.1290
 9564TIP3   OH252886   3.966   4.880   2.653 -0.0703 -0.0631  0.4373
 9564TIP3    H152887   4.030   4.809   2.653  1.3987  1.1906 -0.8670
 9564TIP3    H252888   4.007   4.949   2.706  0.9069  1.7262 -2.4330
 9565TIP3   OH252889   0.117   3.550   0.854 -0.3917 -0.4022  0.0538
 9565TIP3    H152890   0.169   3.578   0.929  0.3469 -1.3296 -0.0896
 9565TIP3    H252891   0.026   3.564   0.881 -0.1032  0.7902  0.4906
 9566TIP3   OH252892   1.231   7.418   1.065  0.2500  0.1100 -0.3508
 9566TIP3    H152893   1.276   7.371   0.995  3.2869  1.0744  0.7761
 9566TIP3    H252894   1.264   7.379   1.146 -0.1636  1.5788  0.5673
 9567TIP3   OH252895   1.347   0.289   1.322  0.0910 -0.3660 -0.0875
 9567TIP3    H152896   1.252   0.290   1.324  0.0028  2.9029  1.6881
 9567TIP3    H252897   1.373   0.252   1.407  0.3590  0.0207  0.0034
 9568TIP3   OH252898   6.594   2.267   1.774 -0.2607 -0.3563  0.0152
 9568TIP3    H152899   6.663   2.201   1.771  0.1564  0.0844 -2.8545
 9568TIP3    H252900   6.596   2.308   1.687 -0.4357  3.5182  1.6143
 9569TIP3   OH252901   6.045   1.871   2.467  0.3756  0.4714  0.5117
 9569TIP3    H152902   6.023   1.781   2.489  0.4996  0.3161  0.0065
 9569TIP3    H252903   6.011   1.923   2.540 -1.2572  0.1922 -0.0147
 9570TIP3   OH252904   4.813   0.001   2.659  0.0977  0.0423  0.1006
 9570TIP3    H152905   4.827  -0.090   2.632 -0.9558  0.7140 -3.2145
 9570TIP3    H252906   4.901   0.033   2.680  0.5855 -1.5127  0.5900
 9571TIP3   OH252907   5.124   2.991   1.030  0.4180 -0.3191 -0.2391
 9571TIP3    H152908   5.035   2.976   0.998  0.3779  1.1609 -0.9384
 9571TIP3    H252909   5.180   2.939   0.972  0.3544  2.4157 -3.0199
 9572TIP3   OH252910   2.489   6.750   1.324 -0.6078 -0.5135 -0.4300
 9572TIP3    H152911   2.570   6.745   1.273 -1.5995 -1.4222 -1.9913
 9572TIP3    H252912   2.509   6.701   1.405  0.7007  0.1636 -0.3252
 9573TIP3   OH252913   3.729   2.573   1.081 -0.3974 -0.0186 -0.3169
 9573TIP3    H152914   3.802   2.559   1.020  0.0985  0.1357  0.2343
 9573TIP3    H252915   3.744   2.508   1.151 -0.9267 -0.1535 -0.3271
 9574TIP3   OH252916   5.391   1.554   3.194 -0.2301  0.3438  0.6153
 9574TIP3    H152917   5.431   1.619   3.252  1.6000 -1.2886  1.2833
 9574TIP3    H252918   5.405   1.471   3.238 -2.0498 -0.5878 -0.4762
 9575TIP3   OH252919   4.189   0.798   1.127  0.3548  0.0601  0.4109
 9575TIP3    H152920   4.201   0.741   1.051 -0.4118 -0.1866  0.4694
 9575TIP3    H252921   4.265   0.781   1.182  1.5112  1.0606 -0.8034
 9576TIP3   OH252922   5.105   1.116   1.924 -0.3720  0.3050  0.1630
 9576TIP3    H152923   5.147   1.169   1.856  0.1505  0.0780  0.3021
 9576TIP3    H252924   5.164   1.123   2.000 -1.5798  1.5887  1.0324
 9577TIP3   OH252925   4.137   3.981   2.196 -0.2244  0.3448  0.1193
 9577TIP3    H152926   4.230   3.990   2.177 -0.0594  1.2201  1.2258
 9577TIP3    H252927   4.127   4.020   2.283 -1.7021  0.6804 -0.1824
 9578TIP3   OH252928   2.178   3.455   1.651  0.0273  0.2886  0.9252
 9578TIP3    H152929   2.237   3.502   1.710  0.0129 -0.9767  1.9983
 9578TIP3    H252930   2.234   3.424   1.580 -0.0420  2.2492 -0.0286
 9579TIP3   OH252931   6.589   7.186   1.159 -0.2948 -0.2294  0.0847
 9579TIP3    H152932   6.556   7.117   1.101 -0.6787 -0.9496  1.1207
 9579TIP3    H252933   6.553   7.267   1.123 -0.7020 -0.6777 -0.5515
 9580TIP3   OH252934   4.934   7.221   0.513 -0.2121  0.2475 -0.1458
 9580TIP3    H152935   4.877   7.252   0.443 -0.6238 -0.3489 -0.0795
 9580TIP3    H252936   5.013   7.273   0.504 -0.4798  0.5675 -0.7033
 9581TIP3   OH252937   2.513   2.739   1.922  0.1228 -0.6657 -0.0328
 9581TIP3    H152938   2.499   2.833   1.920  1.6842 -0.3594  1.2157
 9581TIP3    H252939   2.545   2.717   1.835  3.5481  0.6902  0.7357
 9582TIP3   OH252940   3.470   1.113   1.583  0.6210 -0.3897  0.2140
 9582TIP3    H152941   3.466   1.017   1.579  1.5484 -0.4606  0.7045
 9582TIP3    H252942   3.533   1.137   1.516 -0.6296  0.0014 -0.8750
 9583TIP3   OH252943   6.346   5.142   1.622 -0.0117 -0.1246 -0.2464
 9583TIP3    H152944   6.349   5.130   1.527 -0.4621 -0.1283 -0.2630
 9583TIP3    H252945   6.437   5.150   1.648  0.2111 -1.6125 -0.4868
 9584TIP3   OH252946   4.284   5.689   1.649 -0.1329 -0.6412 -1.0321
 9584TIP3    H152947   4.317   5.779   1.654  0.8664 -0.9856 -1.2917
 9584TIP3    H252948   4.229   5.689   1.570  1.9573 -0.8941 -2.5663
 9585TIP3   OH252949   5.284   6.665   1.633 -0.4636 -0.5716  0.7047
 9585TIP3    H152950   5.379   6.663   1.620 -0.5034 -1.7580  0.4780
 9585TIP3    H252951   5.253   6.581   1.601 -2.1886  1.3789 -3.4383
 9586TIP3   OH252952   1.403   5.516   0.560 -0.3831 -0.0945 -0.7357
 9586TIP3    H152953   1.407   5.576   0.485 -1.0325  0.5145 -0.2954
 9586TIP3    H252954   1.312   5.520   0.589 -0.2379 -0.6697 -0.1914
 9587TIP3   OH252955   6.443   7.435   0.690  0.7847 -0.2884 -0.2014
 9587TIP3    H152956   6.423   7.370   0.623  1.3248 -1.1629  0.4651
 9587TIP3    H252957   6.359   7.476   0.710  0.6969  0.3740 -1.7838
 9588TIP3   OH252958   6.414   7.012   3.316  0.1262  0.1702  0.4403
 9588TIP3    H152959   6.325   7.034   3.289 -1.2559  0.3024  4.4041
 9588TIP3    H252960   6.453   7.095   3.341 -0.2356 -0.2696  2.6697
 9589TIP3   OH252961   5.210   3.684   1.366  0.2378  0.4173  0.0438
 9589TIP3    H152962   5.279   3.657   1.306  0.8929 -0.2438  1.0700
 9589TIP3    H252963   5.251   3.681   1.453 -1.3080 -0.7875  0.7653
 9590TIP3   OH252964   5.168   5.351   1.974  0.4555  0.4802 -0.1237
 9590TIP3    H152965   5.113   5.406   2.029  0.2306  0.1549 -0.0208
 9590TIP3    H252966   5.244   5.405   1.953  0.6101  0.5588  0.6222
 9591TIP3   OH252967   0.558   5.059   2.333 -0.3053  0.5511 -0.3700
 9591TIP3    H152968   0.515   5.098   2.257  1.3425  1.2091 -1.0313
 9591TIP3    H252969   0.505   5.085   2.408 -0.1162  2.8324 -0.9580
 9592TIP3   OH252970   0.888   6.427   0.561  0.4344  0.0712  0.2208
 9592TIP3    H152971   0.801   6.446   0.525  0.5254 -1.6043 -1.0364
 9592TIP3    H252972   0.922   6.512   0.588 -1.4469  0.8129  0.4130
 9593TIP3   OH252973   6.411   5.029   3.067  0.1535 -0.3070  0.1126
 9593TIP3    H152974   6.505   5.038   3.057  0.3382 -1.4356  0.7589
 9593TIP3    H252975   6.383   5.111   3.110  0.9020 -0.1834  0.3680
 9594TIP3   OH252976   7.425   4.383   2.430  0.4456  0.0868 -0.5617
 9594TIP3    H152977   7.516   4.356   2.436  0.0913 -0.8455  1.5830
 9594TIP3    H252978   7.392   4.377   2.520 -1.7250  0.3894 -1.2777
 9595TIP3   OH252979   5.689   1.043   3.382 -0.3948  0.5167  0.4629
 9595TIP3    H152980   5.698   1.135   3.356 -0.5702  0.5644  0.5709
 9595TIP3    H252981   5.768   1.001   3.346 -0.9897  0.4299 -0.8192
 9596TIP3   OH252982   4.422   2.649   1.875 -0.0486  0.1201  0.2394
 9596TIP3    H152983   4.409   2.726   1.930  0.5047  0.7063 -0.4468
 9596TIP3    H252984   4.338   2.635   1.832 -0.7169 -0.7783  1.7620
 9597TIP3   OH252985   4.811   6.305   2.247 -0.2133  0.2531  0.1995
 9597TIP3    H152986   4.734   6.248   2.258  0.2405 -0.0808  1.9354
 9597TIP3    H252987   4.885   6.250   2.274  0.4623  1.0348 -0.0401
 9598TIP3   OH252988   5.126   2.975   2.457 -0.1815  0.0892  0.2313
 9598TIP3    H152989   5.200   3.034   2.470  0.6901 -0.9503  0.0529
 9598TIP3    H252990   5.110   2.977   2.363 -1.0601  1.0840  0.3714
 9599TIP3   OH252991   1.931   4.862   2.630  0.3025 -0.0131  0.1467
 9599TIP3    H152992   1.870   4.790   2.650  0.2983 -0.1338 -0.2998
 9599TIP3    H252993   2.018   4.822   2.635  0.4068  0.3172  1.4941
 9600TIP3   OH252994   7.106   6.326   2.108  0.2338  0.7969 -0.4941
 9600TIP3    H152995   7.176   6.328   2.173 -0.7783 -2.3736  0.9078
 9600TIP3    H252996   7.030   6.363   2.153  0.0415  0.5835 -0.6413
 9601TIP3   OH252997   5.996   5.220   1.902  0.0550 -0.8865 -0.2826
 9601TIP3    H152998   5.967   5.165   1.828  0.6288 -1.0595 -0.3856
 9601TIP3    H252999   5.915   5.246   1.945 -0.2486 -1.4919 -0.4702
 9602TIP3   OH253000   1.233   3.719   2.096 -0.2649 -0.0591  0.1083
 9602TIP3    H153001   1.296   3.790   2.083 -1.4813  1.1951  0.8414
 9602TIP3    H253002   1.286   3.647   2.133  1.2055 -0.0154 -1.7373
 9603TIP3   OH253003   4.664   6.841   3.544  0.1698 -0.8281  0.3096
 9603TIP3    H153004   4.585   6.800   3.578  0.0008 -0.9183 -0.1835
 9603TIP3    H253005   4.647   6.852   3.450 -0.2003  1.2591  0.5602
 9604TIP3   OH253006   6.047   5.358   1.266 -0.1869 -0.6760  0.9614
 9604TIP3    H153007   6.121   5.342   1.208 -0.6960 -0.5546  0.2641
 9604TIP3    H253008   5.973   5.315   1.223 -1.3445  2.3741 -0.3316
 9605TIP3   OH253009   7.155   3.548   1.500  0.3116  0.5423 -0.3363
 9605TIP3    H153010   7.188   3.516   1.583 -1.0888 -1.8319 -0.6087
 9605TIP3    H253011   7.162   3.473   1.441 -1.4840  1.2411 -1.5207
 9606TIP3   OH253012   7.406   6.916   1.749  0.0218  0.2252 -0.2028
 9606TIP3    H153013   7.434   6.846   1.690  2.2769  1.6794 -0.9452
 9606TIP3    H253014   7.403   6.874   1.835 -1.5901 -1.4713 -1.0104
 9607TIP3   OH253015   3.822   6.504   1.474 -0.0416 -0.3854  0.0419
 9607TIP3    H153016   3.776   6.587   1.479 -1.2933 -0.8575 -2.1622
 9607TIP3    H253017   3.784   6.460   1.397  0.9449 -2.7523  0.8050
 9608TIP3   OH253018   5.516   3.586   1.467  0.3559  0.0701  0.4856
 9608TIP3    H153019   5.460   3.511   1.486  0.6946  0.4119  3.1356
 9608TIP3    H253020   5.557   3.564   1.383  0.8996 -2.9863  1.4344
 9609TIP3   OH253021   4.160   5.823   2.710 -0.2654 -0.3376  0.3281
 9609TIP3    H153022   4.157   5.918   2.706 -0.2155 -0.3807 -1.3388
 9609TIP3    H253023   4.185   5.804   2.801  0.8127  1.2526  0.4077
 9610TIP3   OH253024   2.580   2.262   1.449 -0.6310  0.1933 -0.5576
 9610TIP3    H153025   2.579   2.228   1.538  1.0545 -0.3011 -0.6949
 9610TIP3    H253026   2.579   2.184   1.393 -0.0453  0.4426 -0.9338
 9611TIP3   OH253027   0.117   0.878   1.792 -0.0205  0.1315  1.0376
 9611TIP3    H153028   0.101   0.972   1.799 -0.4981  0.3195 -1.7550
 9611TIP3    H253029   0.056   0.839   1.855 -1.9283  1.5659  0.1743
 9612TIP3   OH253030   5.715   1.744   0.907  0.0907 -0.0922  0.2949
 9612TIP3    H153031   5.793   1.744   0.963  0.7812 -1.2648 -0.6084
 9612TIP3    H253032   5.711   1.832   0.871  0.1108  0.4282  1.5249
 9613TIP3   OH253033   0.407   7.379   2.394  0.1662 -0.2247  0.7478
 9613TIP3    H153034   0.501   7.383   2.374  0.0151 -1.7733 -0.4814
 9613TIP3    H253035   0.400   7.317   2.466 -0.0184 -1.2053 -0.0999
 9614TIP3   OH253036   6.710   4.006   1.934  0.3053 -0.0271  0.6153
 9614TIP3    H153037   6.794   3.976   1.898  0.2631 -0.5009  0.8956
 9614TIP3    H253038   6.665   3.925   1.959 -0.7019  0.1486 -0.5466
 9615TIP3   OH253039   5.535   4.903   1.540 -0.9800 -0.0082 -0.0547
 9615TIP3    H153040   5.500   4.826   1.495  0.1751 -0.2123 -0.6289
 9615TIP3    H253041   5.457   4.954   1.564 -1.6726 -0.3796 -1.4017
 9616TIP3   OH253042   6.197   6.062   0.931 -0.2046 -0.1253 -1.0745
 9616TIP3    H153043   6.236   6.147   0.953  2.0357 -1.0607 -1.0758
 9616TIP3    H253044   6.184   6.065   0.837 -0.2969  0.2711 -1.0511
 9617TIP3   OH253045   1.484   4.245   1.881 -0.4282 -0.0284  0.6722
 9617TIP3    H153046   1.482   4.195   1.800  1.6551 -1.2263  1.3003
 9617TIP3    H253047   1.553   4.310   1.868  0.9659 -1.1861  1.9607
 9618TIP3   OH253048   5.928   5.492   2.493 -0.3550  0.3051 -0.2302
 9618TIP3    H153049   5.984   5.466   2.566 -0.1036 -3.3421 -1.5153
 9618TIP3    H253050   5.839   5.475   2.523 -0.3731  0.4366 -0.2086
 9619TIP3   OH253051   0.958   2.876   1.382  0.1055 -0.7276 -0.1050
 9619TIP3    H153052   0.998   2.938   1.443 -3.0807 -0.3488  1.7740
 9619TIP3    H253053   0.927   2.931   1.310  3.2303 -1.0989 -1.9477
 9620TIP3   OH253054   7.207   5.365   2.522 -0.2575 -0.6503  0.3132
 9620TIP3    H153055   7.130   5.407   2.483  0.7644 -0.2267 -1.3321
 9620TIP3    H253056   7.241   5.431   2.583 -0.0757 -0.0430 -0.4294
 9621TIP3   OH253057   0.472   3.286   0.429  0.3785  0.1694  0.2164
 9621TIP3    H153058   0.537   3.352   0.455  0.5724  0.4498 -0.9321
 9621TIP3    H253059   0.513   3.238   0.357 -0.3154 -0.2826  0.1106
 9622TIP3   OH253060   7.168   6.313   2.690  0.4470  0.0692  0.0751
 9622TIP3    H153061   7.235   6.327   2.756  0.3138 -1.2833  0.5311
 9622TIP3    H253062   7.198   6.363   2.614  2.7427 -1.5915 -0.2351
 9623TIP3   OH253063   2.079   6.811   1.247  0.4141 -0.1076 -0.6372
 9623TIP3    H153064   2.131   6.850   1.317 -1.7280  1.2640  0.3100
 9623TIP3    H253065   1.990   6.808   1.282 -0.7702  0.6976 -3.3017
 9624TIP3   OH253066   3.102   1.135   2.275 -0.0375 -0.3731 -0.3550
 9624TIP3    H153067   3.051   1.140   2.355 -0.8394  1.1158 -0.9261
 9624TIP3    H253068   3.109   1.225   2.245 -1.1973 -1.0071 -2.8150
 9625TIP3   OH253069   1.162   4.370   0.819  0.3085 -0.1997  0.2864
 9625TIP3    H153070   1.241   4.384   0.870 -0.0109 -0.9477  1.0091
 9625TIP3    H253071   1.106   4.445   0.839  0.4100 -0.2087  0.6019
 9626TIP3   OH253072   5.341   5.764   0.830  0.1820  0.0016 -0.0505
 9626TIP3    H153073   5.330   5.793   0.740  1.4725  3.2680  0.6939
 9626TIP3    H253074   5.315   5.839   0.883 -1.2885 -2.0650  2.3872
 9627TIP3   OH253075   3.670   4.559   2.163 -0.0109 -0.3202  0.3635
 9627TIP3    H153076   3.657   4.630   2.225 -2.4014  2.1515 -2.6326
 9627TIP3    H253077   3.753   4.579   2.120  0.2950 -0.5052  0.8576
 9628TIP3   OH253078   5.266   6.331   0.843  0.2125  0.0335  0.7410
 9628TIP3    H153079   5.303   6.325   0.755  1.8700  3.7627  0.9924
 9628TIP3    H253080   5.336   6.301   0.901  1.1293  2.3260  0.9389
 9629TIP3   OH253081   7.166   2.557   2.148 -0.1401 -0.1260 -0.2366
 9629TIP3    H153082   7.089   2.571   2.204 -0.2238  1.3225 -0.6923
 9629TIP3    H253083   7.198   2.644   2.128  1.2232 -0.6903 -0.6436
 9630TIP3   OH253084   1.033   3.395   0.818  0.8980 -0.1419 -0.3427
 9630TIP3    H153085   1.023   3.452   0.894 -1.1815 -0.7281 -0.1347
 9630TIP3    H253086   0.946   3.360   0.802  1.9039 -2.5654 -1.0246
 9631TIP3   OH253087   0.602   3.805   2.494 -0.5419  0.5860 -0.3828
 9631TIP3    H153088   0.572   3.719   2.466 -0.9585  0.3434  0.7592
 9631TIP3    H253089   0.657   3.836   2.421  1.9741 -1.8484  0.2849
 9632TIP3   OH253090   0.825   3.013   1.923  0.0506 -0.2733 -0.2961
 9632TIP3    H153091   0.879   3.077   1.875 -0.7738 -1.7901 -3.5062
 9632TIP3    H253092   0.840   3.034   2.015  3.0717  1.8264 -1.1029
 9633TIP3   OH253093   2.135   0.672   2.786  0.3737  0.1680  0.6864
 9633TIP3    H153094   2.188   0.751   2.791 -0.2377  0.7021 -0.7375
 9633TIP3    H253095   2.178   0.618   2.720 -0.3186  0.1970  0.2015
 9634TIP3   OH253096   2.850   5.367   1.689 -0.4043  0.0563  0.3656
 9634TIP3    H153097   2.882   5.287   1.730 -2.0042 -0.8607 -0.1146
 9634TIP3    H253098   2.847   5.431   1.760 -0.0542 -0.5845  0.9669
 9635TIP3   OH253099   0.036   0.988   2.031  0.2448 -0.6632 -0.2179
 9635TIP3    H153100  -0.058   0.980   2.046  0.2502 -0.2396  0.0470
 9635TIP3    H253101   0.075   0.916   2.082  0.1977  0.2564  1.1558
 9636TIP3   OH253102   4.001   2.610   0.695  0.1537 -0.4166 -0.3637
 9636TIP3    H153103   3.927   2.559   0.661 -0.9053  0.0301  1.1812
 9636TIP3    H253104   4.061   2.618   0.620 -0.0347 -3.1366 -0.8951
 9637TIP3   OH253105   5.251   5.896   0.603 -0.1754 -0.2401 -0.3658
 9637TIP3    H153106   5.194   5.951   0.656 -0.7973 -0.8091 -0.4347
 9637TIP3    H253107   5.337   5.939   0.608 -0.6928  0.8453 -0.5980
 9638TIP3   OH253108   7.139   1.584   0.917 -0.4146 -0.5741  0.1494
 9638TIP3    H153109   7.167   1.666   0.877  1.4658 -0.5366  1.4226
 9638TIP3    H253110   7.178   1.585   1.004 -2.7180 -1.5542  1.2599
 9639TIP3   OH253111   2.298   5.956   2.031 -0.2090 -0.6592 -0.2559
 9639TIP3    H153112   2.266   6.032   1.983  2.3365  1.3228  0.9497
 9639TIP3    H253113   2.242   5.951   2.108 -1.2914 -0.9295 -1.0389
 9640TIP3   OH253114   1.497   3.453   1.821 -0.5381 -0.4196 -0.1851
 9640TIP3    H153115   1.447   3.392   1.767 -1.7019 -1.0586  1.5206
 9640TIP3    H253116   1.444   3.464   1.900  1.3195  0.0498  1.0731
 9641TIP3   OH253117   3.528   5.613   1.378 -0.7783 -0.1685  0.3976
 9641TIP3    H153118   3.578   5.574   1.307 -1.2529  0.5516 -0.3511
 9641TIP3    H253119   3.592   5.625   1.449  0.1255  0.7650 -0.5459
 9642TIP3   OH253120   0.471   2.004   1.567 -0.2856  0.0304  0.4421
 9642TIP3    H153121   0.567   2.002   1.566 -0.2743 -0.0279 -0.9584
 9642TIP3    H253122   0.447   1.990   1.658  1.0056 -2.2384  0.5100
 9643TIP3   OH253123   4.852   2.545   1.623  0.6043 -0.1813  0.2981
 9643TIP3    H153124   4.776   2.487   1.620  0.4896 -0.1373  1.6868
 9643TIP3    H253125   4.835   2.603   1.698  2.0783 -0.2938  0.7605
 9644TIP3   OH253126   2.412   7.420   2.321  0.0839  0.5281 -0.0246
 9644TIP3    H153127   2.341   7.485   2.322 -0.1840  0.2863 -1.4010
 9644TIP3    H253128   2.370   7.337   2.340 -0.2937  0.1635 -2.2004
 9645TIP3   OH253129   6.312   1.773   2.089  0.3852 -0.0860  0.7152
 9645TIP3    H153130   6.379   1.735   2.146  1.3999 -1.0906 -1.0404
 9645TIP3    H253131   6.256   1.699   2.066 -0.2094  0.3725  0.6796
 9646TIP3   OH253132   0.111   3.421   1.487  0.4525 -0.1433  0.5358
 9646TIP3    H153133   0.192   3.456   1.449 -0.8096  0.5124 -1.7681
 9646TIP3    H253134   0.071   3.496   1.532 -0.9990  0.8880 -2.2244
 9647TIP3   OH253135   6.873   2.562   1.554 -0.0799 -0.0434 -0.2042
 9647TIP3    H153136   6.823   2.561   1.635  0.9952 -0.6012  0.4775
 9647TIP3    H253137   6.807   2.559   1.485 -0.9891 -0.6693  0.6629
 9648TIP3   OH253138   2.381   5.563   2.743  0.0754 -0.0087 -0.1559
 9648TIP3    H153139   2.429   5.535   2.821 -0.6523 -0.0661  0.2778
 9648TIP3    H253140   2.299   5.600   2.777  0.7041  2.0507 -0.7373
 9649TIP3   OH253141   3.933   6.296   2.246 -0.0758  0.4445 -0.1988
 9649TIP3    H153142   3.925   6.205   2.217  2.0343  0.3845 -0.7336
 9649TIP3    H253143   3.977   6.341   2.175  1.5082  1.2259  1.2063
 9650TIP3   OH253144   0.724   2.930   2.207  0.2389 -0.1253 -0.4937
 9650TIP3    H153145   0.706   2.998   2.272 -0.1329 -0.9356  0.2769
 9650TIP3    H253146   0.817   2.940   2.186  0.3158  0.2679  0.0213
 9651TIP3   OH253147   3.809   3.209   1.762  0.0235  0.1135  0.1509
 9651TIP3    H153148   3.848   3.294   1.740  0.7683 -0.2616 -0.0083
 9651TIP3    H253149   3.818   3.157   1.682 -2.4563  0.5797 -0.5101
 9652TIP3   OH253150   5.221   0.704   0.907  0.5044 -0.6874 -0.6699
 9652TIP3    H153151   5.143   0.648   0.898  0.5368 -0.9846  0.6897
 9652TIP3    H253152   5.189   0.792   0.885 -0.0920 -0.8900 -0.6503
 9653TIP3   OH253153   1.927   3.566   2.325  0.2089  0.3598  0.0075
 9653TIP3    H153154   2.002   3.608   2.282  0.0611 -0.1274 -0.7238
 9653TIP3    H253155   1.857   3.567   2.260  0.1310 -0.8112  0.0523
 9654TIP3   OH253156   3.952   5.413   2.560 -0.4117  0.8206  0.7459
 9654TIP3    H153157   3.969   5.345   2.626  0.3313 -1.4959 -1.6349
 9654TIP3    H253158   3.928   5.364   2.481  0.0072  3.3537 -1.0758
 9655TIP3   OH253159   2.328   4.867   0.426 -0.0269 -0.0693  0.3464
 9655TIP3    H153160   2.242   4.834   0.400  0.7365 -2.6394  0.8616
 9655TIP3    H253161   2.308   4.939   0.486 -1.7962  0.1402 -0.4200
 9656TIP3   OH253162   1.059   6.100   1.602  0.0228  0.2583  0.2609
 9656TIP3    H153163   1.142   6.103   1.649  0.8838 -0.6791 -1.1463
 9656TIP3    H253164   1.030   6.192   1.599  0.8297  0.5490  1.0580
 9657TIP3   OH253165   5.826   3.302   2.237  0.1992 -0.1952 -0.0483
 9657TIP3    H153166   5.907   3.331   2.278 -0.6275  0.7959  0.9275
 9657TIP3    H253167   5.765   3.374   2.251 -0.9163 -1.0139 -0.5841
 9658TIP3   OH253168   4.895   1.300   0.519 -0.4593  0.0328 -0.3226
 9658TIP3    H153169   4.983   1.286   0.554 -0.4646  1.3120  0.2303
 9658TIP3    H253170   4.893   1.393   0.495 -1.3371 -0.2081 -1.2584
 9659TIP3   OH253171   3.566   0.606   3.157  0.5673 -0.7893  0.1742
 9659TIP3    H153172   3.629   0.672   3.184  0.1525 -0.4953  0.4278
 9659TIP3    H253173   3.545   0.628   3.066  1.2172 -1.1989 -0.0886
 9660TIP3   OH253174   2.443   3.318   0.627  0.0702  0.3839 -0.0345
 9660TIP3    H153175   2.446   3.398   0.575  1.4417  0.9377  0.8243
 9660TIP3    H253176   2.489   3.340   0.708 -0.6663 -0.9007  0.7720
 9661TIP3   OH253177   4.726   6.813   1.360  0.4074 -0.0489  0.2890
 9661TIP3    H153178   4.679   6.893   1.384 -0.2339 -1.0178  2.4820
 9661TIP3    H253179   4.660   6.758   1.319  0.3619 -0.2186  0.5879
 9662TIP3   OH253180   6.662   0.837   1.450 -0.1632  0.0834 -0.6409
 9662TIP3    H153181   6.730   0.860   1.513 -1.0833 -1.9910  1.2466
 9662TIP3    H253182   6.704   0.845   1.365  1.3110  2.4014  0.2297
 9663TIP3   OH253183   7.156   4.115   0.969 -0.4375  0.5705 -0.2304
 9663TIP3    H153184   7.144   4.099   1.063 -0.1095 -1.1350 -0.4407
 9663TIP3    H253185   7.097   4.187   0.949 -3.0069 -1.1382  0.6843
 9664TIP3   OH253186   1.919   0.489   2.476  0.0317 -0.3908  0.0314
 9664TIP3    H153187   1.861   0.463   2.547  1.0967 -0.1877  1.0188
 9664TIP3    H253188   1.953   0.575   2.503  1.0284 -0.6546 -0.3428
 9665TIP3   OH253189   0.087   1.949   2.379  0.3831 -0.2228 -0.4455
 9665TIP3    H153190   0.023   1.997   2.325 -1.1271 -1.2967  0.3253
 9665TIP3    H253191   0.087   1.860   2.343  0.2358 -0.6477  0.5783
 9666TIP3   OH253192   1.821   7.192   1.771 -0.5803  0.0398 -0.4095
 9666TIP3    H153193   1.794   7.162   1.684 -0.4986  0.6519 -0.6479
 9666TIP3    H253194   1.740   7.217   1.814 -0.4245  2.0879 -1.2035
 9667TIP3   OH253195   4.172   3.022   1.039  0.3018  0.3181 -0.5502
 9667TIP3    H153196   4.241   2.972   1.084 -0.9873 -1.0697 -0.0036
 9667TIP3    H253197   4.181   2.997   0.947 -0.2097 -0.8109 -0.3078
 9668TIP3   OH253198   6.526   3.035   1.966  0.1326  0.1534  0.4842
 9668TIP3    H153199   6.504   3.077   1.883  1.1922  0.1468  0.1795
 9668TIP3    H253200   6.442   3.022   2.009 -0.9572 -3.3499 -2.2160
 9669TIP3   OH253201   1.396   1.861   2.070  0.1204  0.4927 -0.8979
 9669TIP3    H153202   1.331   1.893   2.007 -1.1053  1.1466  0.6381
 9669TIP3    H253203   1.344   1.815   2.136  1.4695 -1.0126 -0.8432
 9670TIP3   OH253204   3.309   5.319   1.701 -0.1674 -0.8423  0.1593
 9670TIP3    H153205   3.247   5.253   1.672 -0.4195  0.2168 -1.9279
 9670TIP3    H253206   3.395   5.282   1.680 -0.2666 -0.9100 -0.1331
 9671TIP3   OH253207   5.795   5.226   2.275  0.3931  0.2746  0.3615
 9671TIP3    H153208   5.723   5.243   2.336 -1.8811 -1.3621 -1.6574
 9671TIP3    H253209   5.784   5.293   2.207  1.4113  0.5901  0.4897
 9672TIP3   OH253210   7.145   4.764   0.938 -0.2103 -0.2076  0.4099
 9672TIP3    H153211   7.052   4.757   0.960 -0.0315  0.9984  1.6750
 9672TIP3    H253212   7.154   4.715   0.856 -1.9419 -0.3685  0.2793
 9673TIP3   OH253213   6.900   2.968   1.364  0.4082  0.3254 -0.2994
 9673TIP3    H153214   6.825   2.981   1.305  0.3892  0.7999 -0.1708
 9673TIP3    H253215   6.937   2.884   1.336 -0.9529 -0.5860  0.4928
 9674TIP3   OH253216   5.180   0.984   3.041 -0.0532 -0.2173 -0.3125
 9674TIP3    H153217   5.268   1.001   3.075 -0.5021  1.0353  0.2959
 9674TIP3    H253218   5.144   0.916   3.098  0.5329 -0.7841 -0.6061
 9675TIP3   OH253219   0.021   4.368   0.918 -0.4067  0.4277  0.0955
 9675TIP3    H153220   0.093   4.336   0.972  0.4495  0.0705 -1.2279
 9675TIP3    H253221   0.061   4.393   0.835 -1.7705  0.4286 -0.5955
 9676TIP3   OH253222   4.060   4.791   3.389 -0.4570 -0.2807 -0.0149
 9676TIP3    H153223   4.060   4.701   3.357  1.6903 -0.1780 -0.4750
 9676TIP3    H253224   3.979   4.829   3.355 -0.7558 -1.6565 -0.9309
 9677TIP3   OH253225   3.527   7.258   2.499 -0.1451 -0.2744 -0.5049
 9677TIP3    H153226   3.436   7.240   2.477 -0.2519 -1.7774  0.9928
 9677TIP3    H253227   3.552   7.189   2.560  1.5067  1.0374  0.4067
 9678TIP3   OH253228   4.811   1.589   2.164 -0.3612 -0.4986 -0.4720
 9678TIP3    H153229   4.727   1.543   2.166 -0.1786 -0.8164  0.9094
 9678TIP3    H253230   4.798   1.664   2.223  0.6891 -1.2399  0.7503
 9679TIP3   OH253231   6.761   3.578   0.861  0.3082 -0.0180  0.0493
 9679TIP3    H153232   6.770   3.579   0.766 -0.2692  0.5203 -0.0027
 9679TIP3    H253233   6.851   3.587   0.894  0.5428 -0.4988 -0.4346
 9680TIP3   OH253234   7.007   5.686   2.051 -0.0129  0.1858 -0.1389
 9680TIP3    H153235   7.064   5.671   2.127 -0.5687 -0.0635  0.2357
 9680TIP3    H253236   7.050   5.756   2.003 -0.4083  1.3854  1.1864
 9681TIP3   OH253237   2.461   6.729   0.472 -0.4838 -0.5563  0.2195
 9681TIP3    H153238   2.462   6.787   0.549  1.0676 -1.3205  0.8219
 9681TIP3    H253239   2.431   6.645   0.506 -2.5809 -0.2230 -0.6262
 9682TIP3   OH253240   3.905   3.060   1.517  0.0950  1.1529 -0.1195
 9682TIP3    H153241   3.973   3.124   1.498  0.5370  0.6638 -0.2115
 9682TIP3    H253242   3.889   3.016   1.433  2.2185 -1.1780  0.5661
 9683TIP3   OH253243   3.422   2.880   1.291  0.0862 -0.1631 -0.5877
 9683TIP3    H153244   3.482   2.947   1.325 -1.7867  0.5602  1.5490
 9683TIP3    H253245   3.476   2.827   1.233  2.6191  0.8379  0.6853
 9684TIP3   OH253246   1.434   3.585   2.609 -0.4503 -0.1304  0.1533
 9684TIP3    H153247   1.435   3.609   2.701 -0.2812  0.0808  0.0973
 9684TIP3    H253248   1.521   3.608   2.576 -1.4723  2.8955 -0.8176
 9685TIP3   OH253249   5.990   0.603   1.150  0.5435 -0.2124 -0.0085
 9685TIP3    H153250   6.011   0.696   1.144  3.1860 -0.6433  1.3568
 9685TIP3    H253251   5.951   0.593   1.237  0.0858 -0.3745 -0.2277
 9686TIP3   OH253252   0.547   4.314   1.075  0.7069 -0.3534 -0.0398
 9686TIP3    H153253   0.571   4.277   0.990  1.1805  0.0062 -0.0641
 9686TIP3    H253254   0.594   4.397   1.079  0.5072 -0.2637  0.4816
 9687TIP3   OH253255   0.361   2.187   2.102  1.0272 -0.6525  0.3756
 9687TIP3    H153256   0.435   2.134   2.131  3.0951  1.4186 -0.7251
 9687TIP3    H253257   0.374   2.271   2.146  0.6236  0.4529 -1.5060
 9688TIP3   OH253258   2.653   2.767   1.066  0.5601 -0.0691 -0.0725
 9688TIP3    H153259   2.630   2.850   1.023 -0.9968 -0.7330 -0.6276
 9688TIP3    H253260   2.748   2.768   1.071  0.6278  1.3315 -0.9209
 9689TIP3   OH253261   0.330   0.615   2.906 -0.0614 -0.6088  0.0933
 9689TIP3    H153262   0.245   0.622   2.948 -0.4544 -0.8450 -0.6571
 9689TIP3    H253263   0.393   0.613   2.979 -0.5557  1.2403  0.6229
 9690TIP3   OH253264   0.393   0.351   1.308  0.2942 -0.2037 -0.0422
 9690TIP3    H153265   0.421   0.428   1.259  0.0624  0.4436  0.8157
 9690TIP3    H253266   0.464   0.288   1.297  0.6942  0.2978 -0.3736
 9691TIP3   OH253267   0.715   2.779   1.836 -0.4741 -0.4219 -0.3175
 9691TIP3    H153268   0.744   2.864   1.870  1.8901  0.7442 -4.5258
 9691TIP3    H253269   0.792   2.723   1.840 -0.5959 -0.7655 -1.9024
 9692TIP3   OH253270   6.441   2.735   2.314 -0.2543 -0.2835 -0.0025
 9692TIP3    H153271   6.362   2.716   2.365 -0.2577 -1.5084 -0.4357
 9692TIP3    H253272   6.443   2.667   2.247  0.2144  0.7912 -1.1202
 9693TIP3   OH253273   6.353   4.728   2.349  0.4762  0.1463  0.0260
 9693TIP3    H153274   6.365   4.645   2.394  0.0051 -0.3506 -0.7399
 9693TIP3    H253275   6.440   4.767   2.346  0.8869 -0.7846 -0.4964
 9694TIP3   OH253276   6.055   4.203   1.261  0.8025 -0.7790  0.5512
 9694TIP3    H153277   5.987   4.166   1.317 -0.2185  1.5147  0.9366
 9694TIP3    H253278   6.137   4.163   1.292 -0.0281 -1.4519  1.9629
 9695TIP3   OH253279   5.926   3.180   3.009  0.1998 -0.0079  0.3732
 9695TIP3    H153280   5.986   3.175   2.935  0.4369  2.5048  0.3024
 9695TIP3    H253281   5.972   3.232   3.074 -1.3182  0.7724  0.8908
 9696TIP3   OH253282   5.551   6.938   3.030 -0.0829  0.1228 -0.2142
 9696TIP3    H153283   5.531   7.021   2.987 -2.3790  0.1801  0.7971
 9696TIP3    H253284   5.645   6.927   3.019 -0.1229  1.5107 -2.7170
 9697TIP3   OH253285   2.526   7.288   0.422 -0.3338 -0.2582 -0.0577
 9697TIP3    H153286   2.431   7.289   0.431 -0.3098 -0.4776  0.2370
 9697TIP3    H253287   2.545   7.205   0.377 -0.2402 -0.4942  0.4065
 9698TIP3   OH253288   3.160   4.541   2.739  0.5987 -0.4790 -0.1215
 9698TIP3    H153289   3.171   4.594   2.818 -0.9235 -0.2902 -0.0091
 9698TIP3    H253290   3.097   4.474   2.764  0.4066 -0.6598 -1.0612
 9699TIP3   OH253291   0.859   5.479   2.786 -0.7951 -0.2884  0.0720
 9699TIP3    H153292   0.893   5.563   2.759 -1.2915 -0.7437 -2.1739
 9699TIP3    H253293   0.815   5.496   2.869  0.6890  1.2476  0.5834
 9700TIP3   OH253294   4.965   5.316   1.075 -0.3520  0.0268  0.2766
 9700TIP3    H153295   5.053   5.284   1.058  0.1260  1.3988  0.0434
 9700TIP3    H253296   4.908   5.242   1.056  0.5562 -0.1550 -2.0634
 9701TIP3   OH253297   5.553   6.831   1.624 -0.2346 -0.3307 -0.6779
 9701TIP3    H153298   5.641   6.832   1.586  0.2888 -1.2495  0.4598
 9701TIP3    H253299   5.543   6.918   1.663  0.4968 -0.4989 -0.0996
 9702TIP3   OH253300   4.616   6.473   0.829  0.6183 -0.1284  0.1191
 9702TIP3    H153301   4.658   6.460   0.914 -1.6528 -0.5059  1.2612
 9702TIP3    H253302   4.628   6.390   0.783  1.6338 -0.0119  0.1536
 9703TIP3   OH253303   0.944   2.017   1.898 -0.9282  0.6950 -0.0342
 9703TIP3    H153304   0.916   2.109   1.900 -0.0406  0.9871 -0.5581
 9703TIP3    H253305   0.887   1.973   1.962 -0.8864  1.7448  0.7492
 9704TIP3   OH253306   3.428   0.061   1.667  0.5031 -0.1872 -0.1497
 9704TIP3    H153307   3.473  -0.013   1.709 -0.7358 -1.7664 -1.4308
 9704TIP3    H253308   3.407   0.029   1.579 -2.9104  0.4645  0.2973
 9705TIP3   OH253309   6.976   4.460   1.873  0.2928  0.0087  0.1654
 9705TIP3    H153310   6.959   4.384   1.928 -0.4228 -0.8419 -1.1698
 9705TIP3    H253311   7.070   4.457   1.856  0.1873 -0.9009 -0.3148
 9706TIP3   OH253312   6.519   0.689   0.402  0.3873  0.2650  0.2058
 9706TIP3    H153313   6.474   0.620   0.450  1.5551  0.4277  1.6092
 9706TIP3    H253314   6.449   0.744   0.367 -0.5418 -1.2329 -0.3951
 9707TIP3   OH253315   0.535   2.436   1.364  0.5829  0.2051 -0.6688
 9707TIP3    H153316   0.541   2.455   1.271  0.1665  0.4624 -0.6459
 9707TIP3    H253317   0.578   2.351   1.374 -0.0222 -0.1803 -1.2202
 9708TIP3   OH253318   5.947   4.881   0.751 -0.1904  0.4802 -0.2595
 9708TIP3    H153319   5.991   4.821   0.691  0.2363 -0.9784  1.4276
 9708TIP3    H253320   6.018   4.927   0.796 -0.2672 -1.5855  2.1760
 9709TIP3   OH253321   4.576   0.990   0.895 -0.5547  0.1979  0.3072
 9709TIP3    H153322   4.535   1.052   0.955 -0.4013  0.9948 -0.3992
 9709TIP3    H253323   4.639   1.042   0.845 -2.4911  0.1973 -2.3832
 9710TIP3   OH253324   5.201   5.260   1.279 -0.6615  0.2715  0.1004
 9710TIP3    H153325   5.275   5.287   1.333 -0.8390  0.4800  0.2452
 9710TIP3    H253326   5.230   5.274   1.189 -0.6920  0.8113  0.1704
 9711TIP3   OH253327   4.205   2.407   1.719  0.4630 -0.2425 -0.1451
 9711TIP3    H153328   4.148   2.394   1.795  1.3935 -0.7913  0.4810
 9711TIP3    H253329   4.145   2.425   1.647 -0.4904 -0.5727  0.5413
 9712TIP3   OH253330   3.918   0.307   3.077 -0.1517 -0.3165  0.1908
 9712TIP3    H153331   3.912   0.272   3.166  0.4729 -1.4924 -0.2031
 9712TIP3    H253332   3.935   0.400   3.089  0.1166 -0.4931  1.3089
 9713TIP3   OH253333   7.535   6.909   0.923 -0.0154 -0.2181  0.1335
 9713TIP3    H153334   7.603   6.945   0.865  0.4328 -0.7772  0.3023
 9713TIP3    H253335   7.458   6.900   0.866 -0.5013  2.0653  0.3606
 9714TIP3   OH253336   1.647   3.863   1.833 -0.0878  0.0456 -0.1508
 9714TIP3    H153337   1.564   3.901   1.862 -0.9724 -0.3924 -1.9790
 9714TIP3    H253338   1.625   3.811   1.756  1.7344 -0.9141 -0.0932
 9715TIP3   OH253339   0.831   4.144   1.207 -0.3769  0.0854 -0.1033
 9715TIP3    H153340   0.858   4.232   1.181  0.1849  0.0118  0.1957
 9715TIP3    H253341   0.852   4.089   1.132 -0.0064  0.0877 -0.0056
 9716TIP3   OH253342   0.044   0.931   0.951 -0.2289  0.3816  0.1000
 9716TIP3    H153343   0.117   0.876   0.921  0.1273  0.8486  0.1055
 9716TIP3    H253344   0.003   0.880   1.020 -0.8057 -0.5324 -0.8892
 9717TIP3   OH253345   6.743   5.458   0.437  0.1237  0.0347 -0.0450
 9717TIP3    H153346   6.809   5.526   0.450  0.9374  0.6815 -5.2863
 9717TIP3    H253347   6.663   5.507   0.417 -0.0087 -0.5492 -0.9976
 9718TIP3   OH253348   2.113   5.005   2.859 -0.0772  0.2821  0.2408
 9718TIP3    H153349   2.021   5.024   2.843  0.0143 -0.3336 -1.1643
 9718TIP3    H253350   2.151   5.089   2.885 -0.4923  1.1704 -1.8711
 9719TIP3   OH253351   2.295   3.395   1.096  0.0234 -0.0757 -0.0182
 9719TIP3    H153352   2.216   3.381   1.148 -0.6946 -0.1931 -1.0933
 9719TIP3    H253353   2.367   3.376   1.155 -0.7062  1.3868  1.4077
 9720TIP3   OH253354   1.983   5.605   3.154 -0.0557  0.0705  0.4061
 9720TIP3    H153355   2.067   5.564   3.172  0.6023  0.3725 -1.7355
 9720TIP3    H253356   1.992   5.693   3.191  0.2792 -0.1472  0.8571
 9721TIP3   OH253357   5.739   6.692   3.368 -0.4040  0.2430  0.4266
 9721TIP3    H153358   5.820   6.742   3.363  0.4745 -0.9841  1.7479
 9721TIP3    H253359   5.670   6.757   3.353  0.8173  0.9362 -2.9283
 9722TIP3   OH253360   2.099   3.166   2.791  0.1168 -1.3948 -0.8848
 9722TIP3    H153361   2.045   3.198   2.863 -0.2102 -0.5169 -1.5000
 9722TIP3    H253362   2.189   3.178   2.821  0.1098  2.3456 -1.9233
 9723TIP3   OH253363   0.834   3.731   1.765 -0.5661 -0.6465 -0.1607
 9723TIP3    H153364   0.781   3.760   1.839 -2.1284 -1.8368 -0.7420
 9723TIP3    H253365   0.886   3.808   1.741 -3.3159  1.2374 -0.6238
 9724TIP3   OH253366   5.475   2.143   2.697  0.1433 -0.1686  0.6294
 9724TIP3    H153367   5.457   2.229   2.736 -0.3034 -0.3898  0.9088
 9724TIP3    H253368   5.494   2.087   2.772 -0.6948 -0.5911  0.5261
 9725TIP3   OH253369   5.414   0.945   1.358 -0.1617 -0.5403 -0.6039
 9725TIP3    H153370   5.445   1.017   1.412 -0.6104 -0.7797 -0.0078
 9725TIP3    H253371   5.439   0.866   1.407 -0.1135 -0.7757 -1.0034
 9726TIP3   OH253372   2.193   2.338   2.046  0.0873  0.2326  0.4338
 9726TIP3    H153373   2.121   2.401   2.049 -0.6452 -0.3001 -2.6677
 9726TIP3    H253374   2.249   2.369   1.975  0.7337 -1.5565  0.1123
 9727TIP3   OH253375   6.065   6.850   1.336 -0.3687 -0.3329  0.0162
 9727TIP3    H153376   6.016   6.925   1.371 -1.5205 -1.4307  0.8280
 9727TIP3    H253377   6.118   6.887   1.265  0.6280  1.6385  1.6753
 9728TIP3   OH253378   2.226   2.850   1.845  0.5640  0.4022  0.3463
 9728TIP3    H153379   2.309   2.839   1.798 -0.0859  2.7458 -1.5398
 9728TIP3    H253380   2.218   2.945   1.858 -1.3618  0.1539  1.3741
 9729TIP3   OH253381   1.082   2.727   1.186  0.1835 -0.1261 -0.4425
 9729TIP3    H153382   1.064   2.782   1.262 -0.6547  1.7185 -1.8992
 9729TIP3    H253383   1.152   2.668   1.216  1.5457  2.0760  1.0732
 9730TIP3   OH253384   0.861   3.780   2.690 -0.0160 -0.1104  0.0057
 9730TIP3    H153385   0.952   3.811   2.689 -0.1916  0.4234 -1.5592
 9730TIP3    H253386   0.810   3.852   2.654 -0.9533 -0.7419  0.0238
 9731TIP3   OH253387   1.036   3.520   1.904 -0.0585  0.2247 -0.5661
 9731TIP3    H153388   1.109   3.582   1.910  1.9735 -1.9003 -1.7192
 9731TIP3    H253389   0.980   3.556   1.835  1.4639  0.4661 -1.7303
 9732TIP3   OH253390   0.010   2.606   2.553 -0.4176 -0.3866  0.2402
 9732TIP3    H153391  -0.075   2.646   2.533 -0.7258 -0.7491  0.8035
 9732TIP3    H253392  -0.003   2.513   2.534  0.0064 -0.3696 -0.1417
 9733TIP3   OH253393   3.497   0.781   0.925 -0.2716  0.2401 -0.2011
 9733TIP3    H153394   3.414   0.768   0.879 -0.0841 -1.2893 -0.1471
 9733TIP3    H253395   3.499   0.710   0.990  0.5553  0.9509  0.5697
 9734TIP3   OH253396   5.824   1.773   2.119 -0.2465 -0.2820 -0.4425
 9734TIP3    H153397   5.784   1.843   2.171 -0.4142  0.2249 -1.2289
 9734TIP3    H253398   5.755   1.747   2.058 -0.7484 -2.2961  0.9082
 9735TIP3   OH253399   2.339   4.125   2.613 -0.2968 -0.1110 -0.3283
 9735TIP3    H153400   2.358   4.210   2.653  0.6033  0.1072 -1.1649
 9735TIP3    H253401   2.262   4.093   2.659  0.3958  0.3579  1.2019
 9736TIP3   OH253402   7.043   2.961   2.639  0.4864  0.1503  0.5258
 9736TIP3    H153403   6.949   2.944   2.632  0.0144  1.8734  1.9358
 9736TIP3    H253404   7.079   2.882   2.677 -0.6747  0.0788  1.5404
 9737TIP3   OH253405   5.666   6.968   1.233 -0.4221  0.4671  0.3710
 9737TIP3    H153406   5.742   6.996   1.183 -0.7639  1.3397  0.3191
 9737TIP3    H253407   5.606   6.932   1.168 -0.3504  0.4405  0.3198
 9738TIP3   OH253408   7.281   4.782   1.434 -0.0313 -0.6226  0.1888
 9738TIP3    H153409   7.288   4.819   1.346  0.4642 -0.9005  0.1041
 9738TIP3    H253410   7.354   4.821   1.482 -0.8136  0.2021  0.7310
 9739TIP3   OH253411   4.249   3.537   1.190  0.5299  0.1710  0.2514
 9739TIP3    H153412   4.172   3.587   1.215  0.0533 -0.1182 -0.6047
 9739TIP3    H253413   4.214   3.457   1.150  1.2492  0.5328 -1.1619
 9740TIP3   OH253414   7.158   0.946   1.681 -0.2221  0.3981 -0.1917
 9740TIP3    H153415   7.154   0.928   1.775  0.7536 -2.3190 -0.5525
 9740TIP3    H253416   7.251   0.965   1.664 -0.2317  0.0228 -0.7020
 9741TIP3   OH253417   6.412   5.905   1.036  0.0224  0.6314  0.2445
 9741TIP3    H153418   6.341   5.959   1.001  1.3169  0.9555 -2.1370
 9741TIP3    H253419   6.410   5.920   1.131 -2.7030  1.0121  0.1901
 9742TIP3   OH253420   7.424   2.445   1.857  0.3596 -0.4571  0.2873
 9742TIP3    H153421   7.469   2.369   1.822  0.0400  0.1357 -1.5282
 9742TIP3    H253422   7.334   2.436   1.825 -0.1138 -0.1790  1.4853
 9743TIP3   OH253423   0.788   5.407   3.272 -1.1305 -0.6079 -0.7861
 9743TIP3    H153424   0.833   5.332   3.311  0.2615  0.0124 -1.1593
 9743TIP3    H253425   0.818   5.483   3.322 -1.2515 -0.1073 -1.4510
 9744TIP3   OH253426   5.318   3.802   2.481 -0.1385 -0.3590  0.0050
 9744TIP3    H153427   5.397   3.748   2.477  0.4262  0.5338 -1.9181
 9744TIP3    H253428   5.347   3.885   2.518 -0.8039 -0.9667  2.0053
 9745TIP3   OH253429   0.454   4.564   2.448 -0.0348 -0.0844 -0.1094
 9745TIP3    H153430   0.440   4.608   2.532 -0.7388  0.4049 -0.4733
 9745TIP3    H253431   0.549   4.547   2.446 -0.1414 -0.9620  1.1814
 9746TIP3   OH253432   5.961   7.245   3.204  0.9248  0.1517  0.0907
 9746TIP3    H153433   5.989   7.274   3.117  1.0828 -0.2587  0.0027
 9746TIP3    H253434   5.908   7.317   3.237 -1.1198 -0.6415 -1.2954
 9747TIP3   OH253435   5.108   5.594   1.710 -0.3801  0.7378  0.6482
 9747TIP3    H153436   5.172   5.660   1.737 -0.6238  2.3242 -2.2428
 9747TIP3    H253437   5.160   5.514   1.697  0.0635  0.4958  3.3042
 9748TIP3   OH253438   7.484   5.550   1.773 -0.2474 -0.0415 -0.0655
 9748TIP3    H153439   7.573   5.525   1.799 -0.8712 -0.7915  1.4276
 9748TIP3    H253440   7.481   5.645   1.786 -0.0967 -0.2040  1.3027
 9749TIP3   OH253441   5.011   1.055   2.580  0.0848 -0.0511 -0.0485
 9749TIP3    H153442   4.937   1.035   2.523  0.4056 -1.0939 -0.1132
 9749TIP3    H253443   4.973   1.100   2.655 -0.5007  0.1652 -0.4693
 9750TIP3   OH253444   4.040   6.238   1.649 -0.6992 -0.0052  0.2281
 9750TIP3    H153445   4.060   6.145   1.662  1.1387 -0.3690 -3.7484
 9750TIP3    H253446   4.079   6.282   1.725  0.1081 -2.2901  1.2310
 9751TIP3   OH253447   6.025   6.145   2.493  0.0135 -0.0695  0.1443
 9751TIP3    H153448   5.960   6.211   2.468  0.2385  1.8818  3.9701
 9751TIP3    H253449   5.974   6.066   2.509 -0.9438  0.4619 -0.2022
 9752TIP3   OH253450   7.266   0.736   2.793 -0.5004  0.3242  0.2761
 9752TIP3    H153451   7.288   0.810   2.849 -0.9988  0.7713 -0.1082
 9752TIP3    H253452   7.219   0.775   2.719 -3.9599 -0.6514  1.7389
 9753TIP3   OH253453   4.882   5.137   1.856 -0.0140 -0.2140 -0.1407
 9753TIP3    H153454   4.924   5.214   1.819  0.7640 -0.4389  0.2529
 9753TIP3    H253455   4.955   5.081   1.883 -0.5590 -0.0996  1.6391
 9754TIP3   OH253456   2.353   5.214   2.316  0.1472 -0.0220  0.3309
 9754TIP3    H153457   2.321   5.167   2.394  0.9701 -1.8335 -0.3580
 9754TIP3    H253458   2.380   5.300   2.349 -0.6288 -0.3225  1.8254
 9755TIP3   OH253459   6.854   3.167   0.992  0.0170  0.1600 -0.0306
 9755TIP3    H153460   6.820   3.088   0.949  0.6338  0.2860 -0.7604
 9755TIP3    H253461   6.799   3.238   0.958 -0.7721  0.0203  0.8958
 9756TIP3   OH253462   6.606   5.653   1.475 -0.0503 -0.0992 -0.4348
 9756TIP3    H153463   6.524   5.694   1.501  0.4132 -0.7298  2.3602
 9756TIP3    H253464   6.583   5.599   1.400 -1.8416  0.9135 -0.6638
 9757TIP3   OH253465   3.830   2.072   2.068  0.0111 -0.4884  0.1428
 9757TIP3    H153466   3.864   2.093   2.155 -0.6911  1.9793 -0.1020
 9757TIP3    H253467   3.908   2.049   2.017  1.2319  3.2091  0.0827
 9758TIP3   OH253468   3.567   4.009   2.849 -0.4999 -0.3408 -0.0593
 9758TIP3    H153469   3.641   3.953   2.824  0.2438 -0.2853  1.8720
 9758TIP3    H253470   3.539   4.049   2.766  0.9053 -1.2221 -1.0097
 9759TIP3   OH253471   5.893   5.179   1.068  0.6051  0.0407  0.2741
 9759TIP3    H153472   5.830   5.203   0.999  0.5824 -0.6756  0.0344
 9759TIP3    H253473   5.974   5.160   1.020  0.5577 -0.5689  0.4303
 9760TIP3   OH253474   4.215   3.181   0.553 -0.3057 -0.2002  0.0932
 9760TIP3    H153475   4.248   3.110   0.608 -0.5864 -1.9476 -1.8559
 9760TIP3    H253476   4.274   3.254   0.570  1.0129 -1.4221  0.9625
 9761TIP3   OH253477   2.828   3.871   2.078  0.6769 -0.1040 -0.3897
 9761TIP3    H153478   2.898   3.893   2.140 -0.5117  1.0351  0.6066
 9761TIP3    H253479   2.821   3.947   2.021 -0.1771  0.0923 -0.0476
 9762TIP3   OH253480   0.969   2.376   1.290  0.1045 -0.3080  0.0847
 9762TIP3    H153481   1.053   2.349   1.325 -0.9854 -1.9705  1.5984
 9762TIP3    H253482   0.950   2.459   1.335 -0.2325 -1.2722  1.8209
 9763TIP3   OH253483   2.918   5.440   2.316 -0.0325  0.2087  0.1029
 9763TIP3    H153484   2.851   5.385   2.275  0.8206 -0.2421 -0.7190
 9763TIP3    H253485   2.915   5.416   2.409 -2.4515  1.7320  0.4994
 9764TIP3   OH253486   6.824   3.731   3.041  0.0034  0.1126 -0.3376
 9764TIP3    H153487   6.883   3.688   3.102 -0.7693 -1.2978 -0.5557
 9764TIP3    H253488   6.760   3.664   3.017 -1.6323  1.5396 -0.1966
 9765TIP3   OH253489   3.308   5.056   0.955  0.0542 -0.4781  0.0244
 9765TIP3    H153490   3.392   5.010   0.952 -0.1328 -1.2097  3.1060
 9765TIP3    H253491   3.330   5.148   0.935  1.1004 -1.0902 -1.8800
 9766TIP3   OH253492   5.797   3.316   2.770 -0.2584  0.3041 -0.3807
 9766TIP3    H153493   5.743   3.258   2.716 -0.9433  1.9515 -1.5655
 9766TIP3    H253494   5.804   3.272   2.854 -1.6648 -0.9646 -0.8958
 9767TIP3   OH253495   5.260   7.555   1.210  0.4525 -0.5852 -0.0065
 9767TIP3    H153496   5.252   7.547   1.305  2.1491 -1.7464  0.0830
 9767TIP3    H253497   5.344   7.515   1.190 -1.0947 -2.9545 -2.3262
 9768TIP3   OH253498   1.648   3.367   1.090 -0.0306 -0.6622  0.1517
 9768TIP3    H153499   1.736   3.391   1.062  0.0856  0.4550  1.3471
 9768TIP3    H253500   1.598   3.358   1.009  1.2627 -1.7646 -0.5741
 9769TIP3   OH253501   5.509   6.724   1.361  0.2758  0.0086  0.0547
 9769TIP3    H153502   5.567   6.774   1.304  1.1657 -1.2350 -0.1770
 9769TIP3    H253503   5.524   6.759   1.449  1.1461 -0.0646 -0.0550
 9770TIP3   OH253504   1.592   3.173   1.459 -0.2274 -0.4935  0.3372
 9770TIP3    H153505   1.607   3.079   1.468  0.3252 -0.3098  1.4577
 9770TIP3    H253506   1.510   3.190   1.504 -1.2593 -0.6848 -1.3731
 9771TIP3   OH253507   4.428   3.660   1.588 -0.1484  0.0888  0.4514
 9771TIP3    H153508   4.397   3.579   1.629 -0.1311 -0.0201  0.2511
 9771TIP3    H253509   4.457   3.633   1.500 -3.2836  0.8488 -0.9571
 9772TIP3   OH253510   3.349   2.400   2.351 -0.5933 -0.3975  0.7235
 9772TIP3    H153511   3.254   2.389   2.338 -0.8946 -0.5760  2.8152
 9772TIP3    H253512   3.388   2.348   2.281 -2.0460 -1.9051  0.9719
 9773TIP3   OH253513   0.429   5.650   2.551  0.4972  0.0714 -0.1069
 9773TIP3    H153514   0.504   5.618   2.500  0.7009  0.9401 -0.3756
 9773TIP3    H253515   0.464   5.726   2.598  0.3986 -0.8794  1.5815
 9774TIP3   OH253516   1.789   5.086   1.439 -0.5618 -0.0741  0.1890
 9774TIP3    H153517   1.698   5.114   1.441 -1.0913 -1.7787  1.3011
 9774TIP3    H253518   1.793   5.009   1.496  1.0102 -1.7071 -1.9656
 9775TIP3   OH253519   4.999   0.156   1.481  0.1824 -0.5648  0.4582
 9775TIP3    H153520   5.012   0.217   1.554  2.8347  0.7577 -0.9696
 9775TIP3    H253521   4.972   0.211   1.408  1.3257 -1.2489 -0.5157
 9776TIP3   OH253522   1.005   6.551   2.171 -0.0923 -0.0440 -0.6371
 9776TIP3    H153523   1.014   6.626   2.231  1.7273  0.7716 -1.8525
 9776TIP3    H253524   0.911   6.547   2.153 -0.5477  0.4012  1.3215
 9777TIP3   OH253525   1.565   0.023   0.597 -0.2439  0.2981  0.3456
 9777TIP3    H153526   1.650   0.013   0.554 -0.4005  1.0538 -0.1776
 9777TIP3    H253527   1.537   0.112   0.573 -0.7750  0.3864  1.2435
 9778TIP3   OH253528   6.318   3.493   1.634 -0.7321 -0.1692 -0.0495
 9778TIP3    H153529   6.328   3.581   1.670 -0.1567  0.7392 -2.2733
 9778TIP3    H253530   6.408   3.460   1.626 -0.4047  1.1378 -3.8915
 9779TIP3   OH253531   4.360   4.300   2.301 -0.7377 -0.4161  0.5092
 9779TIP3    H153532   4.383   4.269   2.213  1.9708  1.1994  0.5325
 9779TIP3    H253533   4.318   4.384   2.287 -1.4267 -0.7106  0.7440
 9780TIP3   OH253534   5.656   4.765   1.816  0.2993 -0.5319 -0.5242
 9780TIP3    H153535   5.737   4.737   1.860  0.5786  0.0636 -0.6474
 9780TIP3    H253536   5.684   4.786   1.727 -0.1878 -1.3157 -0.8717
 9781TIP3   OH253537   4.815   2.651   0.582  0.1857 -0.2595  0.5520
 9781TIP3    H153538   4.857   2.578   0.628  0.7194 -0.1638  0.2133
 9781TIP3    H253539   4.882   2.719   0.578 -1.0041  1.2402  3.0541
 9782TIP3   OH253540   0.699   3.532   0.943  0.2213 -0.1058 -0.2780
 9782TIP3    H153541   0.710   3.481   1.023 -0.7296 -1.2615 -0.8535
 9782TIP3    H253542   0.604   3.545   0.936  0.1361 -1.2674 -1.9351
 9783TIP3   OH253543   5.068   0.678   1.198 -0.1829  0.5060 -0.6546
 9783TIP3    H153544   5.022   0.673   1.115 -2.3399 -0.0387  0.4905
 9783TIP3    H253545   5.099   0.769   1.203 -1.3283  0.9591 -1.3953
 9784TIP3   OH253546   0.594   6.171   0.462  0.0292 -0.3149  0.3753
 9784TIP3    H153547   0.610   6.185   0.555  0.3167  0.7803  0.1769
 9784TIP3    H253548   0.676   6.199   0.419 -0.6107  0.6098 -0.2992
 9785TIP3   OH253549   0.404   4.716   1.181  0.4048  0.2041 -0.1193
 9785TIP3    H153550   0.403   4.789   1.120 -1.7881  1.5576  1.4014
 9785TIP3    H253551   0.331   4.733   1.241  1.9742 -1.3975  2.4606
 9786TIP3   OH253552   5.422   7.293   0.528  0.3590 -0.2858 -0.2575
 9786TIP3    H153553   5.338   7.337   0.515 -0.3106 -0.8617  1.7000
 9786TIP3    H253554   5.412   7.209   0.483  0.0370 -0.1734 -0.3981
 9787TIP3   OH253555   4.432   6.131   2.776 -0.7578 -0.1197  0.2724
 9787TIP3    H153556   4.446   6.064   2.844  0.5916 -1.0371 -0.8434
 9787TIP3    H253557   4.350   6.173   2.801 -1.8267 -2.3696  0.9043
 9788TIP3   OH253558   3.891   6.853   0.960 -0.2427 -0.1164  0.5996
 9788TIP3    H153559   3.847   6.794   0.899 -0.6616  0.0431  0.7438
 9788TIP3    H253560   3.871   6.940   0.927  2.8707 -0.0324 -1.3963
 9789TIP3   OH253561   3.075   5.545   2.122 -0.1804  0.3188  0.2648
 9789TIP3    H153562   3.034   5.513   2.202  1.6773  0.5006  1.3334
 9789TIP3    H253563   3.143   5.481   2.102 -0.5665  0.3185 -1.1531
 9790TIP3   OH253564   1.699   0.126   1.903  0.3522 -0.2356  0.7316
 9790TIP3    H153565   1.757   0.140   1.828 -1.1260 -0.1067 -0.4420
 9790TIP3    H253566   1.657   0.042   1.885 -1.2072  0.5393  0.5438
 9791TIP3   OH253567   5.190   1.216   2.879 -0.5825 -0.8707  0.0007
 9791TIP3    H153568   5.167   1.151   2.946 -0.7909  0.9975  1.8368
 9791TIP3    H253569   5.106   1.252   2.851 -0.4004 -0.2752  0.2026
 9792TIP3   OH253570   5.596   1.491   3.405 -0.6873  0.3584 -0.0736
 9792TIP3    H153571   5.586   1.412   3.351 -0.1762 -1.0903  1.8274
 9792TIP3    H253572   5.690   1.512   3.399 -0.1782 -1.0996  1.8508
 9793TIP3   OH253573   4.960   0.269   0.792  0.0327  0.1819  0.1610
 9793TIP3    H153574   5.037   0.212   0.786 -0.4789 -0.4624 -0.5054
 9793TIP3    H253575   4.890   0.219   0.749 -0.5866  1.0471  0.1402
 9794TIP3   OH253576   3.357   6.780   0.565 -0.8119 -0.0967  0.1854
 9794TIP3    H153577   3.424   6.786   0.633 -0.1541 -1.1139 -0.3435
 9794TIP3    H253578   3.332   6.687   0.566 -0.9654 -0.0668 -0.7998
 9795TIP3   OH253579   6.486   1.668   0.773  0.0147  0.0515 -0.3603
 9795TIP3    H153580   6.462   1.637   0.686 -0.1258 -1.0017  0.0333
 9795TIP3    H253581   6.545   1.742   0.758 -1.9822  1.5150 -1.3493
 9796TIP3   OH253582   2.236   2.113   1.385 -0.5554  0.4091 -0.2552
 9796TIP3    H153583   2.241   2.160   1.469 -0.8965 -0.9518  0.5552
 9796TIP3    H253584   2.177   2.040   1.403 -1.6942  0.8313 -2.0653
 9797TIP3   OH253585   6.243   0.879   2.380  0.4894 -0.0874  0.2412
 9797TIP3    H153586   6.239   0.971   2.408  1.3700 -0.3431  1.2597
 9797TIP3    H253587   6.336   0.860   2.373  0.4141  0.1767 -3.8580
 9798TIP3   OH253588   1.740   0.482   0.513  0.2717  0.1296 -0.1449
 9798TIP3    H153589   1.713   0.533   0.589 -0.2675 -1.0305  0.4692
 9798TIP3    H253590   1.794   0.542   0.462 -0.0473  1.1943  0.7224
 9799TIP3   OH253591   3.522   3.476   2.150 -0.1171  0.3461  0.0313
 9799TIP3    H153592   3.434   3.499   2.121  0.0434 -1.1872 -1.8687
 9799TIP3    H253593   3.574   3.555   2.134 -0.5397  0.2913 -1.8202
 9800TIP3   OH253594   7.106   5.677   1.247 -0.2079 -0.3512 -0.1870
 9800TIP3    H153595   7.133   5.761   1.211  0.2801 -0.2592  0.3934
 9800TIP3    H253596   7.011   5.675   1.234 -0.5510  1.1948  1.6784
 9801TIP3   OH253597   5.338   2.071   1.577  0.7993  0.1953 -0.0879
 9801TIP3    H153598   5.350   1.999   1.515 -1.3334  0.6946 -1.1954
 9801TIP3    H253599   5.417   2.124   1.568  2.2398 -1.7628  0.4758
 9802TIP3   OH253600   0.626   4.596   1.835  0.1831  0.0999  0.3342
 9802TIP3    H153601   0.566   4.628   1.768 -0.9770 -0.9098  0.8403
 9802TIP3    H253602   0.635   4.502   1.816  4.1886  0.6346 -1.6818
 9803TIP3   OH253603   0.741   1.347   0.620  0.5286  0.2277 -0.1494
 9803TIP3    H153604   0.708   1.346   0.709  0.6529 -0.3233 -0.1104
 9803TIP3    H253605   0.664   1.333   0.565  0.6105 -0.5192 -0.0810
 9804TIP3   OH253606   3.371   4.063   1.063  0.2315 -0.5060 -0.0615
 9804TIP3    H153607   3.287   4.062   1.108  0.2473 -1.5889 -0.0467
 9804TIP3    H253608   3.434   4.089   1.130 -0.0920  0.4269 -0.1034
 9805TIP3   OH253609   6.194   1.562   0.423  0.0651  0.0835  0.0505
 9805TIP3    H153610   6.268   1.606   0.383  0.3716 -1.7159 -1.5034
 9805TIP3    H253611   6.233   1.500   0.485 -0.3145  1.1864  1.4511
 9806TIP3   OH253612   6.651   1.353   0.580  0.2388  0.0733 -0.8342
 9806TIP3    H153613   6.668   1.334   0.673 -1.6739 -0.6864 -0.5972
 9806TIP3    H253614   6.661   1.268   0.537 -0.6607  0.0687 -1.0353
 9807TIP3   OH253615   1.949   5.798   0.358 -0.1899 -0.1964 -0.5910
 9807TIP3    H153616   2.034   5.840   0.369  0.0406 -0.8110  0.0185
 9807TIP3    H253617   1.969   5.709   0.330 -0.6829  0.1987 -2.3581
 9808TIP3   OH253618   1.755   3.510   2.968 -0.0495  0.3194 -0.3970
 9808TIP3    H153619   1.706   3.513   3.051 -0.1106  1.0558 -0.4542
 9808TIP3    H253620   1.797   3.424   2.969 -2.0279 -0.7258 -0.7350
 9809TIP3   OH253621   7.370   5.928   2.208  0.7425  0.5501 -0.3540
 9809TIP3    H153622   7.417   6.007   2.182 -0.7922  1.4326 -0.5370
 9809TIP3    H253623   7.437   5.872   2.248  1.7802  2.0829  0.1263
 9810TIP3   OH253624   4.999   2.120   0.810 -0.5910  0.4073 -0.2778
 9810TIP3    H153625   4.906   2.115   0.786 -0.3068 -1.3545 -1.2271
 9810TIP3    H253626   4.998   2.146   0.902 -2.1352 -1.2018  0.2254
 9811TIP3   OH253627   4.767   0.865   2.725  0.3491 -0.4624  0.0194
 9811TIP3    H153628   4.855   0.839   2.753  0.9097  0.9695 -0.3366
 9811TIP3    H253629   4.712   0.847   2.801  1.2537  0.1810  0.8566
 9812TIP3   OH253630   7.513   1.208   0.462 -0.7556  0.2164 -0.2958
 9812TIP3    H153631   7.507   1.142   0.393 -2.3612  2.5884 -2.5819
 9812TIP3    H253632   7.435   1.193   0.515  0.6777 -1.8645  1.4286
 9813TIP3   OH253633   3.089   6.316   2.168 -0.0107  0.5337 -0.3467
 9813TIP3    H153634   3.043   6.275   2.241  1.1356  1.7788  1.1361
 9813TIP3    H253635   3.029   6.384   2.137 -0.8625 -0.5622 -1.1784
 9814TIP3   OH253636   0.303   4.899   2.583 -0.5819 -0.3242 -0.3651
 9814TIP3    H153637   0.271   4.918   2.495  0.5717 -0.8048 -0.9067
 9814TIP3    H253638   0.224   4.889   2.636 -1.3569  3.1416 -0.6009
 9815TIP3   OH253639   0.568   3.594   1.894  0.3722  0.6524  0.1876
 9815TIP3    H153640   0.561   3.681   1.934 -0.4414  0.5569  0.2702
 9815TIP3    H253641   0.641   3.553   1.940  1.3359  1.5989 -0.4531
 9816TIP3   OH253642   4.183   3.922   1.320  0.0906  0.2369 -0.4664
 9816TIP3    H153643   4.092   3.892   1.320 -0.0417  0.6308 -0.1999
 9816TIP3    H253644   4.180   4.009   1.361  0.6665 -0.0128  0.1319
 9817TIP3   OH253645   7.268   7.165   0.780  1.0588 -0.3114 -0.1655
 9817TIP3    H153646   7.364   7.164   0.774  1.0300 -1.1688 -0.7358
 9817TIP3    H253647   7.239   7.118   0.702  0.1043  1.4245 -0.9067
 9818TIP3   OH253648   3.230   4.750   2.011  0.0203  0.2776  0.1656
 9818TIP3    H153649   3.320   4.724   2.031 -0.1128 -1.1400 -0.8693
 9818TIP3    H253650   3.182   4.738   2.093  0.4916 -0.3456  0.3564
 9819TIP3   OH253651   2.144   3.474   0.846 -0.4852 -0.0839  0.0889
 9819TIP3    H153652   2.154   3.422   0.766 -1.5068 -1.7378  0.9724
 9819TIP3    H253653   2.202   3.432   0.910 -0.0411  0.9244  0.3669
 9820TIP3   OH253654   4.498   6.683   1.206 -0.0484  0.3605  0.1464
 9820TIP3    H153655   4.483   6.702   1.113  0.8751  1.0221  0.1224
 9820TIP3    H253656   4.410   6.675   1.243 -0.4298  0.8306 -0.6304
 9821TIP3   OH253657   4.986   6.698   1.305 -0.1622  0.3759 -0.0821
 9821TIP3    H153658   4.900   6.735   1.320 -0.8119 -0.9989 -0.2054
 9821TIP3    H253659   4.997   6.633   1.375  0.1993 -0.3766 -0.8130
 9822TIP3   OH253660   0.438   5.258   2.165 -0.2434 -0.4840 -0.2247
 9822TIP3    H153661   0.367   5.222   2.218 -1.8852  3.5404  0.6256
 9822TIP3    H253662   0.397   5.283   2.082  0.1838  1.5485  0.1248
 9823TIP3   OH253663   5.775   1.053   2.041  0.5780 -0.0148  0.1345
 9823TIP3    H153664   5.855   1.058   2.094 -0.5591  4.0850  1.8896
 9823TIP3    H253665   5.720   0.989   2.087  1.7237 -0.6970  0.5938
 9824TIP3   OH253666   7.210   5.131   1.609 -0.5570 -0.2462  0.6302
 9824TIP3    H153667   7.212   5.159   1.700  1.0453  1.5808  0.0840
 9824TIP3    H253668   7.292   5.083   1.597 -1.3046 -1.5156  0.4265
 9825TIP3   OH253669   0.873   4.110   2.758 -0.4992 -0.6912  0.2877
 9825TIP3    H153670   0.900   4.202   2.765 -2.9605  0.2292 -0.8795
 9825TIP3    H253671   0.947   4.066   2.718  0.4983  0.9371  0.2268
 9826TIP3   OH253672   6.815   4.194   0.437  0.0379  0.1942 -0.0084
 9826TIP3    H153673   6.762   4.115   0.429 -1.3411  1.2667 -2.8057
 9826TIP3    H253674   6.783   4.237   0.516  1.4466 -2.3590  2.1148
 9827TIP3   OH253675   3.948   6.258   0.772 -0.2030 -0.4467 -0.0818
 9827TIP3    H153676   3.987   6.205   0.702  1.1013 -1.0567  1.0431
 9827TIP3    H253677   3.856   6.234   0.773  0.3008 -2.5282  0.2043
 9828TIP3   OH253678   4.633   5.776   1.492 -0.1284 -0.1498  0.0170
 9828TIP3    H153679   4.550   5.738   1.462  0.1091 -1.9055  1.3987
 9828TIP3    H253680   4.698   5.708   1.473  0.4595 -0.1460  1.8568
 9829TIP3   OH253681   7.517   5.644   2.611  1.0553  0.2381  0.1001
 9829TIP3    H153682   7.443   5.585   2.623  2.5053 -1.8442 -0.6033
 9829TIP3    H253683   7.513   5.703   2.686 -0.7540 -0.4214  0.5714
 9830TIP3   OH253684   0.223   5.041   0.681 -0.2530 -0.0839 -0.1466
 9830TIP3    H153685   0.143   5.065   0.634 -0.2874 -1.7889 -1.0104
 9830TIP3    H253686   0.286   5.109   0.659 -1.0702  0.5769 -0.4882
 9831TIP3   OH253687   3.012   5.830   0.865 -0.4515  0.6804  0.5942
 9831TIP3    H153688   2.930   5.818   0.912 -0.3954  1.1427  0.8143
 9831TIP3    H253689   3.075   5.857   0.932  0.3002 -1.2857  0.7206
 9832TIP3   OH253690   2.633   0.228   0.630 -0.0348  0.4040 -0.5041
 9832TIP3    H153691   2.588   0.188   0.555  0.8065 -0.5498 -0.5281
 9832TIP3    H253692   2.572   0.293   0.663 -0.9364 -0.0343 -1.2633
 9833TIP3   OH253693   4.122   7.362   3.088 -0.4945  0.1195  0.1270
 9833TIP3    H153694   4.169   7.392   3.165  0.0822  0.4306 -0.3380
 9833TIP3    H253695   4.077   7.440   3.055 -0.5245  0.0474 -0.0043
 9834TIP3   OH253696   3.905   4.095   2.972 -0.5297 -0.0477 -0.5666
 9834TIP3    H153697   3.906   4.006   2.936 -0.8808 -0.9944  1.6113
 9834TIP3    H253698   3.997   4.120   2.976 -0.4447 -0.2058 -1.4188
 9835TIP3   OH253699   3.452   6.936   2.979  0.2652  0.0173  0.1172
 9835TIP3    H153700   3.359   6.931   2.954  0.5380 -0.3012 -0.8649
 9835TIP3    H253701   3.479   7.024   2.951  0.1866  0.2396  0.7115
 9836TIP3   OH253702   4.114   7.235   0.824  0.1202  0.2937 -0.0539
 9836TIP3    H153703   4.054   7.257   0.895  1.0445  1.3319  0.4452
 9836TIP3    H253704   4.079   7.282   0.748  1.5405  2.8947  0.7867
 9837TIP3   OH253705   2.921   4.831   1.733 -0.1665  0.9745 -0.0548
 9837TIP3    H153706   2.954   4.898   1.794 -0.1311  1.1252 -0.2401
 9837TIP3    H253707   2.879   4.881   1.663  1.0834  0.8573 -0.9189
 9838TIP3   OH253708   3.598   2.860   0.752 -0.3990 -0.3712 -0.4768
 9838TIP3    H153709   3.528   2.841   0.815  0.6169 -1.8456  0.2503
 9838TIP3    H253710   3.567   2.822   0.670  0.0689 -2.1881  0.1466
 9839TIP3   OH253711   4.779   1.215   1.084  0.2811  0.0301  0.1949
 9839TIP3    H153712   4.686   1.204   1.103  0.1963 -0.8455 -0.6489
 9839TIP3    H253713   4.819   1.233   1.169 -0.4589 -1.0065  0.7822
 9840TIP3   OH253714   4.768   0.155   2.207 -0.2523  0.5722  0.9541
 9840TIP3    H153715   4.839   0.219   2.217  0.7382 -0.5880  1.6819
 9840TIP3    H253716   4.781   0.094   2.280 -1.1844 -0.4483  0.2923
 9841TIP3   OH253717   3.316   6.680   2.723 -0.0582  0.6318  0.1941
 9841TIP3    H153718   3.376   6.629   2.778  0.1648  0.9850  0.2887
 9841TIP3    H253719   3.308   6.629   2.643 -0.5970 -0.0228  0.6543
 9842TIP3   OH253720   4.886   3.199   0.814  0.1069  0.0677  0.2546
 9842TIP3    H153721   4.889   3.103   0.812 -3.6739 -0.2169 -1.5521
 9842TIP3    H253722   4.857   3.220   0.903 -2.3462 -0.8314 -0.2465
 9843TIP3   OH253723   4.546   7.233   0.689  0.3971  0.3232  0.1369
 9843TIP3    H153724   4.610   7.165   0.710  1.4501  1.1000 -0.4600
 9843TIP3    H253725   4.567   7.305   0.750 -0.7861  0.0900  0.8519
 9844TIP3   OH253726   7.085   6.410   0.739 -0.3459 -0.5131  0.2429
 9844TIP3    H153727   7.039   6.329   0.719 -1.3286 -0.2654  1.3950
 9844TIP3    H253728   7.126   6.395   0.823  1.8812 -0.7813 -0.8348
 9845TIP3   OH253729   4.583   4.705   0.580  0.1702  0.1798 -0.6301
 9845TIP3    H153730   4.571   4.631   0.639  0.8133  1.3257  0.9940
 9845TIP3    H253731   4.630   4.669   0.505  0.5341 -1.0359  0.1656
 9846TIP3   OH253732   4.042   4.842   0.746 -0.4189 -0.0700 -0.0740
 9846TIP3    H153733   4.061   4.935   0.734 -0.3413 -0.1355 -0.4548
 9846TIP3    H253734   4.102   4.814   0.815  1.3897 -0.4314 -1.7027
 9847TIP3   OH253735   5.926   1.130   1.381 -0.2785  0.3673 -0.5948
 9847TIP3    H153736   5.989   1.199   1.401 -0.1906  0.3754 -0.8949
 9847TIP3    H253737   5.927   1.074   1.458 -0.4877  0.8051 -0.2730
 9848TIP3   OH253738   4.635   3.516   3.235  0.0874  0.1452 -0.1658
 9848TIP3    H153739   4.585   3.435   3.246 -1.1697  1.0074  0.6284
 9848TIP3    H253740   4.577   3.585   3.266  1.6211  1.2340  0.3980
 9849TIP3   OH253741   3.991   0.198   2.140 -0.1575  0.1289  0.1596
 9849TIP3    H153742   3.956   0.225   2.225 -1.1567 -0.9964  0.1364
 9849TIP3    H253743   4.063   0.139   2.161  0.1201  0.4833  0.2146
 9850TIP3   OH253744   5.592   6.042   3.191  0.3171 -0.0277 -0.7078
 9850TIP3    H153745   5.533   6.095   3.246  0.0654 -0.3018 -0.7114
 9850TIP3    H253746   5.679   6.073   3.214  0.1975  0.0628 -0.3603
 9851TIP3   OH253747   3.422   3.575   2.606  0.2554  0.1351 -0.4727
 9851TIP3    H153748   3.421   3.495   2.554  1.6948 -0.8702  0.9588
 9851TIP3    H253749   3.504   3.619   2.581 -0.9881  1.7532 -2.0019
 9852TIP3   OH253750   4.557   7.480   0.920  0.4613  0.1974  0.0888
 9852TIP3    H153751   4.556   7.490   1.015 -0.9431  1.2500  0.0041
 9852TIP3    H253752   4.465   7.488   0.894  0.6705 -1.2925 -1.2671
 9853TIP3   OH253753   7.445   6.457   1.183  0.1226 -0.0466 -0.5962
 9853TIP3    H153754   7.465   6.529   1.243 -0.1371 -0.0425 -0.5130
 9853TIP3    H253755   7.433   6.381   1.240 -1.3750  0.2114 -0.5231
 9854TIP3   OH253756   3.695   1.142   1.418 -0.0777  0.2121  0.0650
 9854TIP3    H153757   3.653   1.080   1.358 -1.2755  1.1910 -0.1624
 9854TIP3    H253758   3.720   1.216   1.362  1.4025 -0.0660  0.3164
 9855TIP3   OH253759   4.136   3.026   2.354  0.2359 -0.3327  0.3578
 9855TIP3    H153760   4.226   3.059   2.362  0.5668 -1.5516  2.4941
 9855TIP3    H253761   4.147   2.933   2.335 -0.5994 -0.3218 -0.1964
 9856TIP3   OH253762   0.958   0.979   1.580  0.4752 -0.7501  0.2701
 9856TIP3    H153763   1.047   1.003   1.606  1.3504 -1.8723 -1.4052
 9856TIP3    H253764   0.921   0.936   1.656  1.0530  0.4812  1.2748
 9857TIP3   OH253765   4.581   6.381   1.993  0.1333  0.6603 -0.4538
 9857TIP3    H153766   4.660   6.377   2.048  0.7041  1.5028 -1.1746
 9857TIP3    H253767   4.598   6.455   1.934 -0.3636 -0.3677 -1.9205
 9858TIP3   OH253768   5.163   4.633   1.679  0.8375 -0.3950 -0.8012
 9858TIP3    H153769   5.151   4.541   1.704  1.6914 -0.0384  1.1788
 9858TIP3    H253770   5.224   4.667   1.745 -1.1785  2.1772 -0.1175
 9859TIP3   OH253771   4.672   3.417   0.382 -0.6083  0.1039  0.0081
 9859TIP3    H153772   4.694   3.333   0.340 -0.0044 -0.3855  1.2608
 9859TIP3    H253773   4.579   3.430   0.361 -0.9562 -1.3340  0.5247
 9860TIP3   OH253774   2.151   7.433   0.766 -0.3273  0.1799  0.1445
 9860TIP3    H153775   2.110   7.462   0.847 -1.8314  0.7410 -0.7521
 9860TIP3    H253776   2.182   7.513   0.724 -1.6652  0.2115 -0.8782
 9861TIP3   OH253777   7.561   3.482   1.214  0.1725  0.5608  0.3360
 9861TIP3    H153778   7.593   3.470   1.304 -0.7134 -0.0083  0.5927
 9861TIP3    H253779   7.598   3.409   1.165  0.6318  0.8549  0.2395
 9862TIP3   OH253780   2.493   5.801   1.914 -0.5507 -0.1569  0.1375
 9862TIP3    H153781   2.438   5.863   1.962 -0.8465 -0.4008  0.1154
 9862TIP3    H253782   2.431   5.750   1.861 -0.4965 -1.5900  1.3785
 9863TIP3   OH253783   6.280   6.219   2.397  0.4518 -0.0087  0.3754
 9863TIP3    H153784   6.231   6.248   2.320  2.6371  1.2239 -0.6391
 9863TIP3    H253785   6.213   6.180   2.454 -1.2414 -1.2080 -2.2048
 9864TIP3   OH253786   2.591   3.514   2.722  0.1852  0.2804  0.3394
 9864TIP3    H153787   2.642   3.563   2.786 -0.9057  2.3452 -0.2745
 9864TIP3    H253788   2.602   3.423   2.748  0.3086  0.9719  3.0909
 9865TIP3   OH253789   1.538   2.153   2.411  0.9824  0.2864  0.5118
 9865TIP3    H153790   1.596   2.229   2.400  0.9838  0.2462  0.2463
 9865TIP3    H253791   1.522   2.149   2.506  0.4272  1.0318  0.4587
 9866TIP3   OH253792   2.723   0.952   0.988  0.0237  0.6443 -0.5607
 9866TIP3    H153793   2.812   0.954   1.022 -0.0961  0.5611 -0.2416
 9866TIP3    H253794   2.685   1.035   1.015  0.2499  1.0298 -1.3757
 9867TIP3   OH253795   0.480   5.233   1.834 -0.3180  0.2577  0.6209
 9867TIP3    H153796   0.398   5.259   1.793 -0.4173  0.9343  1.2285
 9867TIP3    H253797   0.504   5.307   1.889 -0.6396 -0.9308  2.4499
 9868TIP3   OH253798   6.338   2.830   1.498  0.1824 -0.1056  0.3730
 9868TIP3    H153799   6.261   2.880   1.527  0.8711  1.7091 -0.7766
 9868TIP3    H253800   6.326   2.744   1.538 -2.9618 -0.2421 -0.5733
 9869TIP3   OH253801   0.816   4.204   2.230 -0.4466 -0.7152 -0.5105
 9869TIP3    H153802   0.789   4.290   2.197  0.3256  0.4679  1.7070
 9869TIP3    H253803   0.911   4.211   2.239 -0.0224 -2.6930 -2.5100
 9870TIP3   OH253804   4.171   7.235   0.381  0.2624  0.1298 -0.1426
 9870TIP3    H153805   4.198   7.249   0.290 -0.7885  0.5483 -0.4148
 9870TIP3    H253806   4.226   7.163   0.412  0.8338  0.1726 -1.0201
 9871TIP3   OH253807   6.124   4.288   2.319  1.2535  0.2921 -0.2939
 9871TIP3    H153808   6.134   4.346   2.245  2.3883  0.1942 -0.2234
 9871TIP3    H253809   6.201   4.303   2.373  1.2351 -0.7846  0.0611
 9872TIP3   OH253810   6.064   3.309   3.190  0.1234  0.3863  0.0486
 9872TIP3    H153811   6.157   3.287   3.196  0.2886  1.0791  0.1477
 9872TIP3    H253812   6.051   3.374   3.259 -0.7240 -0.6496  0.9060
 9873TIP3   OH253813   0.622   0.613   1.637 -0.4000 -0.0374 -0.6089
 9873TIP3    H153814   0.622   0.633   1.731  0.3775  0.9719 -0.8045
 9873TIP3    H253815   0.662   0.527   1.631 -0.6750 -0.2157  0.0056
 9874TIP3   OH253816   3.537   6.128   2.264  0.4810  0.0759 -0.1832
 9874TIP3    H153817   3.584   6.045   2.264  0.3716 -0.0215  1.3893
 9874TIP3    H253818   3.444   6.103   2.258  0.2959 -0.1012  2.2334
 9875TIP3   OH253819   3.364   1.434   2.844 -0.1763  0.0395 -0.2724
 9875TIP3    H153820   3.457   1.434   2.821  0.0618 -0.6686  0.6480
 9875TIP3    H253821   3.343   1.526   2.858  0.7789  0.0964  1.0171
 9876TIP3   OH253822   6.186   1.650   1.723 -0.1171  0.1762  0.1604
 9876TIP3    H153823   6.111   1.663   1.666  0.6530  1.2931 -0.6406
 9876TIP3    H253824   6.240   1.729   1.711  0.9359 -0.3655  1.0925
 9877TIP3   OH253825   4.677   7.102   1.400  0.3855  0.3652  0.4104
 9877TIP3    H153826   4.743   7.120   1.333  0.3142 -1.1248 -0.1070
 9877TIP3    H253827   4.594   7.126   1.359  0.1353 -2.2738 -0.8249
 9878TIP3   OH253828   2.803   6.270   1.048  0.0314 -0.4905  0.4521
 9878TIP3    H153829   2.884   6.262   1.098 -0.8790 -2.1478  1.7805
 9878TIP3    H253830   2.750   6.332   1.098  0.1378 -0.0588  0.0409
 9879TIP3   OH253831   7.251   6.663   1.678  0.1361 -0.3424  0.3734
 9879TIP3    H153832   7.181   6.613   1.635 -0.2719 -0.3224  0.9894
 9879TIP3    H253833   7.326   6.603   1.678 -0.1547 -0.7193  0.5171
 9880TIP3   OH253834   5.746   2.885   0.334  0.1142 -0.1663  0.3357
 9880TIP3    H153835   5.810   2.951   0.309  0.0791 -0.4393 -0.5104
 9880TIP3    H253836   5.672   2.935   0.369  1.2416  0.1076  2.4911
 9881TIP3   OH253837   0.312   3.282   2.502 -0.1087 -0.6689  0.0577
 9881TIP3    H153838   0.230   3.269   2.548  0.5535 -2.1188  0.8883
 9881TIP3    H253839   0.363   3.339   2.559 -0.2365 -0.3985 -0.0949
 9882TIP3   OH253840   0.774   0.375   1.870 -0.5114  0.9019 -0.4406
 9882TIP3    H153841   0.823   0.457   1.885  0.1467  0.9960 -2.7297
 9882TIP3    H253842   0.692   0.388   1.918  0.1209  2.3421  0.3498
 9883TIP3   OH253843   3.939   2.456   1.529  0.5781 -0.6234 -0.1217
 9883TIP3    H153844   4.026   2.494   1.523  0.6733 -0.8661 -0.3003
 9883TIP3    H253845   3.904   2.461   1.440 -0.6795  1.9912  0.4278
 9884TIP3   OH253846   3.598   1.882   1.382  0.1261 -0.3016 -0.0761
 9884TIP3    H153847   3.541   1.903   1.456 -0.7931 -2.3893 -0.1381
 9884TIP3    H253848   3.612   1.788   1.388 -1.0937 -0.7960 -3.3166
 9885TIP3   OH253849   4.795   5.211   0.838  0.1979 -0.0960  0.1327
 9885TIP3    H153850   4.824   5.268   0.766 -1.8897 -0.4008 -1.0072
 9885TIP3    H253851   4.844   5.130   0.826 -0.4694 -0.3069 -1.2378
 9886TIP3   OH253852   5.431   0.481   1.004 -0.3856 -0.2595  0.0078
 9886TIP3    H153853   5.365   0.517   0.945 -0.5937 -1.3390 -0.4534
 9886TIP3    H253854   5.404   0.390   1.018 -0.1667 -0.1195  1.5426
 9887TIP3   OH253855   2.836   2.027   1.767  0.4583  0.2696  0.5192
 9887TIP3    H153856   2.765   2.005   1.708  0.9341 -0.8339  0.3293
 9887TIP3    H253857   2.906   1.965   1.745  1.4990  1.3581  0.6561
 9888TIP3   OH253858   1.387   6.296   3.286  0.4063 -0.5266  0.2135
 9888TIP3    H153859   1.445   6.249   3.226 -0.4239 -0.1625 -0.8978
 9888TIP3    H253860   1.315   6.234   3.303 -0.8802  0.4086 -1.5446
 9889TIP3   OH253861   0.271   3.757   1.353  0.8708 -0.2828  0.6869
 9889TIP3    H153862   0.263   3.705   1.433  0.3623 -0.0839  0.7724
 9889TIP3    H253863   0.297   3.844   1.384  0.6330 -0.1952  0.6413
 9890TIP3   OH253864   3.781   3.468   3.467 -0.0350  0.5234  0.1294
 9890TIP3    H153865   3.728   3.547   3.471 -0.0951  0.7517 -3.0512
 9890TIP3    H253866   3.840   3.482   3.393  0.1793 -2.2614 -0.3479
 9891TIP3   OH253867   1.968   0.361   1.666  0.4083  0.3977 -0.2343
 9891TIP3    H153868   2.003   0.417   1.596  0.1927  2.8736  1.5166
 9891TIP3    H253869   2.041   0.304   1.690  1.2104  1.1038 -0.9230
 9892TIP3   OH253870   1.151   2.429   2.745  0.3211  0.1894  0.3151
 9892TIP3    H153871   1.231   2.419   2.796 -0.1053 -0.8532  0.8064
 9892TIP3    H253872   1.083   2.391   2.800 -0.6738  1.8238  0.2654
 9893TIP3   OH253873   4.395   2.891   1.131 -0.1737 -0.4621 -0.0904
 9893TIP3    H153874   4.414   2.981   1.157 -1.7160  0.2404 -1.2710
 9893TIP3    H253875   4.441   2.880   1.048  0.2619 -0.8896  0.1981
 9894TIP3   OH253876   7.015   5.338   1.789  0.2839 -0.6715 -0.1046
 9894TIP3    H153877   7.071   5.405   1.828 -1.0088  1.3973 -1.5591
 9894TIP3    H253878   7.015   5.358   1.695 -2.0029 -1.1761 -0.2874
 9895TIP3   OH253879   5.149   6.326   1.308 -0.4303 -0.3434  0.3349
 9895TIP3    H153880   5.126   6.419   1.299 -2.2870 -0.7321  0.6920
 9895TIP3    H253881   5.221   6.325   1.371 -1.9020  0.7228  2.1373
 9896TIP3   OH253882   6.353   4.260   1.918 -0.3660 -0.1359  0.0711
 9896TIP3    H153883   6.303   4.327   1.967 -1.6128 -0.6378 -0.4648
 9896TIP3    H253884   6.354   4.293   1.828  1.3052  0.4293  0.2630
 9897TIP3   OH253885   2.605   3.420   2.170  0.1748 -0.0579 -0.1382
 9897TIP3    H153886   2.695   3.389   2.158  0.1416 -0.0314 -0.4727
 9897TIP3    H253887   2.614   3.505   2.213  0.4478  1.1395 -2.4014
 9898TIP3   OH253888   2.781   0.745   1.537  0.0410 -0.3847 -0.7160
 9898TIP3    H153889   2.711   0.809   1.532 -0.5289 -1.0622 -1.8942
 9898TIP3    H253890   2.860   0.796   1.556  0.0111  0.9993 -3.7902
 9899TIP3   OH253891   2.990   7.022   1.443  0.2465 -0.1519  0.3632
 9899TIP3    H153892   3.018   6.999   1.532  1.0308  0.6582  0.3415
 9899TIP3    H253893   3.066   7.002   1.388 -0.2917 -0.8149 -0.1636
 9900TIP3   OH253894   2.001   2.499   1.366 -0.4060  0.3060 -1.0254
 9900TIP3    H153895   1.913   2.479   1.397  0.1033 -0.8779 -0.2969
 9900TIP3    H253896   1.988   2.566   1.298 -1.6016  2.4905  1.2139
 9901TIP3   OH253897   6.218   2.049   0.869 -0.5817 -0.4954 -0.1949
 9901TIP3    H153898   6.215   1.958   0.838 -1.0700 -0.9084  1.0279
 9901TIP3    H253899   6.127   2.070   0.890 -0.3650  0.0296  0.2288
 9902TIP3   OH253900   1.435   6.947   1.962  0.6409  0.0397  0.1267
 9902TIP3    H153901   1.486   6.890   1.904  0.6500 -3.6795  3.4032
 9902TIP3    H253902   1.477   6.937   2.047 -1.5746  2.2672  1.5760
 9903TIP3   OH253903   2.728   1.695   1.969  0.5976  0.3725  0.0149
 9903TIP3    H153904   2.694   1.629   1.909  1.2242  1.6992 -1.8716
 9903TIP3    H253905   2.654   1.715   2.027 -0.0225 -0.9092 -0.2893
 9904TIP3   OH253906   6.388   1.892   2.983 -0.3559 -0.3795  0.2342
 9904TIP3    H153907   6.421   1.982   2.976 -1.4904  0.2379  2.0907
 9904TIP3    H253908   6.332   1.882   2.906  0.0223  0.3895 -0.1571
 9905TIP3   OH253909   2.715   4.024   2.344  0.4665  0.4058  0.3592
 9905TIP3    H153910   2.789   4.078   2.316 -0.5032  1.3468 -0.4736
 9905TIP3    H253911   2.640   4.060   2.296 -0.6761 -0.0300  1.7772
 9906TIP3   OH253912   2.123   0.369   1.281  0.2983  0.3215  0.2041
 9906TIP3    H153913   2.215   0.350   1.264 -0.2809 -1.4244 -1.3984
 9906TIP3    H253914   2.086   0.285   1.308 -0.9251  0.9123  0.4530
 9907TIP3   OH253915   7.471   2.938   0.853 -0.1846 -0.0284 -0.3358
 9907TIP3    H153916   7.501   2.941   0.762 -0.8073 -0.5527 -0.5638
 9907TIP3    H253917   7.526   2.870   0.894  2.0417  2.0835  0.4320
 9908TIP3   OH253918   2.528   1.185   2.197  0.7183 -0.0723 -0.3403
 9908TIP3    H153919   2.499   1.113   2.141  0.7932  1.2059 -2.0783
 9908TIP3    H253920   2.459   1.251   2.188  0.2940 -0.1503  1.7793
 9909TIP3   OH253921   0.838   7.530   1.322 -0.3427  0.5750  0.4124
 9909TIP3    H153922   0.784   7.529   1.242 -1.5151 -0.5756  1.1785
 9909TIP3    H253923   0.783   7.488   1.388  0.8853  0.8735  1.6566
 9910TIP3   OH253924   1.102   3.284   1.288 -0.4501 -0.3961 -0.4942
 9910TIP3    H153925   1.189   3.292   1.248 -0.8298 -0.3130 -1.3067
 9910TIP3    H253926   1.068   3.201   1.255 -0.7282 -0.3779 -0.2547
 9911TIP3   OH253927   2.021   6.701   2.531  0.0160  0.0951  0.1087
 9911TIP3    H153928   1.931   6.680   2.555  0.4118 -1.2741  0.4752
 9911TIP3    H253929   2.015   6.786   2.488 -1.9405 -1.3670 -2.8650
 9912TIP3   OH253930   0.185   5.908   0.505  0.0960  0.0278 -0.4207
 9912TIP3    H153931   0.137   5.833   0.469 -0.3979  1.0319 -1.9698
 9912TIP3    H253932   0.253   5.869   0.559  0.4587 -1.5794 -1.9453
 9913TIP3   OH253933   5.891   2.775   2.713 -0.7683  0.2305  0.1128
 9913TIP3    H153934   5.928   2.691   2.685  2.7598  1.2092  1.2611
 9913TIP3    H253935   5.867   2.761   2.805 -0.0429  0.4635  0.3478
 9914TIP3   OH253936   1.452   1.187   1.883  0.4095 -0.1830  0.2513
 9914TIP3    H153937   1.371   1.230   1.909  0.6005  0.6165 -0.4486
 9914TIP3    H253938   1.443   1.097   1.914 -2.0123 -0.9510 -2.2796
 9915TIP3   OH253939   5.720   1.387   0.390  0.2926  0.2433 -0.0425
 9915TIP3    H153940   5.792   1.449   0.381 -0.3096  0.6470 -3.2518
 9915TIP3    H253941   5.752   1.322   0.453  3.8360 -0.0839 -1.9203
 9916TIP3   OH253942   3.283   7.364   0.877  0.1719  0.3474  0.1134
 9916TIP3    H153943   3.203   7.348   0.927 -0.4000  0.6236 -0.6995
 9916TIP3    H253944   3.293   7.459   0.877 -0.7785  0.4864 -1.7062
 9917TIP3   OH253945   7.404   0.996   1.576  0.0274 -0.3668 -0.2666
 9917TIP3    H153946   7.478   1.025   1.630 -1.1233  0.5165  0.9013
 9917TIP3    H253947   7.444   0.964   1.495  1.7483 -0.8736  0.7380
 9918TIP3   OH253948   5.477   0.131   1.543 -0.2426 -0.7900  0.0823
 9918TIP3    H153949   5.479   0.205   1.604 -0.4228 -1.4707  0.9226
 9918TIP3    H253950   5.553   0.078   1.567 -0.9116 -1.6107  0.4195
 9919TIP3   OH253951   0.228   6.758   2.025  0.1578  0.6118 -0.1163
 9919TIP3    H153952   0.231   6.834   1.967 -1.7609  1.4855  0.8451
 9919TIP3    H253953   0.224   6.794   2.113 -0.7781 -0.5958  0.3696
 9920TIP3   OH253954   4.988   5.005   1.243  0.2449 -0.2810 -0.1366
 9920TIP3    H153955   5.070   4.989   1.195  1.4497 -0.5605  1.8604
 9920TIP3    H253956   5.014   5.062   1.315 -1.3963 -0.1385  0.3700
 9921TIP3   OH253957   2.117   2.848   1.343 -0.3015  0.2205 -0.5963
 9921TIP3    H153958   2.135   2.839   1.437  0.5877  1.7794 -0.5722
 9921TIP3    H253959   2.196   2.817   1.300 -0.5134 -0.0223 -0.8131
 9922TIP3   OH253960   5.305   3.368   2.708  0.0166 -0.0873  0.2136
 9922TIP3    H153961   5.295   3.462   2.721  0.9848  0.1828 -0.7722
 9922TIP3    H253962   5.245   3.328   2.771  0.6804  1.1591  1.7170
 9923TIP3   OH253963   7.097   1.737   1.148  0.6645  0.3539 -0.1787
 9923TIP3    H153964   7.022   1.757   1.203  0.8755  0.2956  0.1335
 9923TIP3    H253965   7.156   1.687   1.204 -0.6885 -2.9589 -1.4643
 9924TIP3   OH253966   6.535   4.406   0.382  0.0542  0.2721 -0.1781
 9924TIP3    H153967   6.621   4.381   0.417 -0.1606  1.5476  1.3872
 9924TIP3    H253968   6.487   4.324   0.375  0.3468 -0.1441  2.0043
 9925TIP3   OH253969   1.726   0.851   1.940 -0.4463 -0.0226  0.1259
 9925TIP3    H153970   1.820   0.848   1.957 -0.3887 -1.0240 -0.3542
 9925TIP3    H253971   1.701   0.941   1.964  0.6193  0.2545  0.2585
 9926TIP3   OH253972   2.994   4.150   1.745 -0.2842  0.4502  0.5096
 9926TIP3    H153973   3.033   4.234   1.723 -0.5190  0.0418 -1.6003
 9926TIP3    H253974   2.949   4.121   1.666  0.0215 -1.7904  1.0652
 9927TIP3   OH253975   1.512   6.838   2.471  0.3976  0.0726  0.1332
 9927TIP3    H153976   1.489   6.776   2.540  1.0280  0.8061  1.0237
 9927TIP3    H253977   1.440   6.901   2.470 -0.5251 -0.9582 -1.1579
 9928TIP3   OH253978   7.312   5.662   0.500  0.3976  0.0330  0.3430
 9928TIP3    H153979   7.256   5.599   0.456  1.5985  0.9679 -2.8073
 9928TIP3    H253980   7.269   5.747   0.487  0.8651  0.3557  0.8380
 9929TIP3   OH253981   3.654   4.081   2.277 -0.3143 -0.3506 -0.4239
 9929TIP3    H153982   3.587   4.043   2.220 -1.2935 -1.4379  1.3356
 9929TIP3    H253983   3.726   4.018   2.273 -1.0565 -1.3440  0.7659
 9930TIP3   OH253984   3.321   4.583   3.086  0.1521 -0.0433 -0.1094
 9930TIP3    H153985   3.254   4.608   3.022  0.8748  0.2719 -0.7636
 9930TIP3    H253986   3.398   4.632   3.059  0.5293 -0.0839  0.8898
 9931TIP3   OH253987   2.194   5.887   0.482 -0.4192  0.1402 -0.4481
 9931TIP3    H153988   2.196   5.795   0.509 -0.3209  0.3024  0.1020
 9931TIP3    H253989   2.278   5.922   0.510 -0.4299  0.3830 -0.7182
 9932TIP3   OH253990   7.498   5.091   2.145  0.5109  0.5582  0.1839
 9932TIP3    H153991   7.429   5.044   2.099 -0.7945  3.7818 -1.4335
 9932TIP3    H253992   7.452   5.146   2.209  1.8311  0.6968  1.0583
 9933TIP3   OH253993   2.333   2.419   2.602  0.2703  0.1160 -0.1304
 9933TIP3    H153994   2.385   2.414   2.682 -1.8295  0.2118  1.3299
 9933TIP3    H253995   2.369   2.350   2.546 -0.1069 -2.0836  2.1474
 9934TIP3   OH253996   0.202   5.524   2.628  0.6342 -0.0109 -0.6934
 9934TIP3    H153997   0.136   5.593   2.623  1.2068  0.8118  1.6666
 9934TIP3    H253998   0.285   5.570   2.616  0.8953 -0.7625 -1.9062
 9935TIP3   OH253999   2.125   5.896   0.822  0.1520 -0.4455  0.5698
 9935TIP3    H154000   2.087   5.976   0.784  1.7591 -0.3269 -0.9271
 9935TIP3    H254001   2.093   5.826   0.765  0.5227 -0.5821  0.5290
 9936TIP3   OH254002   0.560   1.949   1.235 -0.0036  0.1328 -0.8215
 9936TIP3    H154003   0.468   1.971   1.250 -0.1397 -1.3581  0.8869
 9936TIP3    H254004   0.557   1.881   1.167 -0.2883 -0.6485 -0.0540
 9937TIP3   OH254005   6.238   2.491   1.433  0.2491  0.0108  0.2782
 9937TIP3    H154006   6.290   2.503   1.512  2.4460  2.7667 -1.4291
 9937TIP3    H254007   6.289   2.431   1.379  0.3616  0.6641 -0.3482
 9938TIP3   OH254008   5.219   0.545   2.187 -0.7975 -0.0604 -0.1170
 9938TIP3    H154009   5.142   0.593   2.159 -1.4525 -0.3900  1.0421
 9938TIP3    H254010   5.233   0.573   2.278  0.9194  0.5850 -0.5503
 9939TIP3   OH254011   2.650   0.484   3.279 -0.5526  0.7441  0.4436
 9939TIP3    H154012   2.565   0.517   3.248 -0.8827 -1.4509 -1.2271
 9939TIP3    H254013   2.712   0.508   3.211 -0.4161 -0.2369  0.2066
 9940TIP3   OH254014   3.072   6.498   1.391 -0.9089 -0.3286 -0.0504
 9940TIP3    H154015   2.992   6.452   1.413 -1.7940  0.9283 -0.5304
 9940TIP3    H254016   3.066   6.582   1.437  1.6477 -1.3946  2.5579
 9941TIP3   OH254017   2.496   1.632   2.162 -0.1535  0.1857  0.0612
 9941TIP3    H154018   2.413   1.617   2.206  0.1008 -1.0346  0.1613
 9941TIP3    H254019   2.475   1.626   2.068 -0.3550  0.9102  0.0547
 9942TIP3   OH254020   7.319   0.772   0.891  0.4577  0.4538 -0.3355
 9942TIP3    H154021   7.401   0.723   0.881  0.8308  0.3586  2.3530
 9942TIP3    H254022   7.305   0.774   0.986 -3.1962 -0.4041 -0.7311
 9943TIP3   OH254023   6.981   0.356   2.755 -0.4144 -0.2529  0.0847
 9943TIP3    H154024   6.998   0.450   2.770 -0.5978 -0.4048  1.3566
 9943TIP3    H254025   6.936   0.327   2.834  0.1499 -1.5501 -0.0468
 9944TIP3   OH254026   5.703   5.279   1.783 -0.6050 -0.2747 -0.2190
 9944TIP3    H154027   5.753   5.235   1.714  2.3541  0.4785  1.2762
 9944TIP3    H254028   5.709   5.372   1.761 -0.7732 -0.1243  0.3691
 9945TIP3   OH254029   6.811   2.894   2.351 -0.4247  0.0898 -0.5765
 9945TIP3    H154030   6.884   2.954   2.339 -0.0712 -0.0506  0.6402
 9945TIP3    H254031   6.734   2.942   2.322  0.1147  0.3309 -1.6470
 9946TIP3   OH254032   4.539   3.713   1.828  0.0834 -0.1855  0.0794
 9946TIP3    H154033   4.564   3.624   1.854  1.4181 -0.2515 -1.2567
 9946TIP3    H254034   4.510   3.704   1.737 -0.9946  0.5739  0.3281
 9947TIP3   OH254035   4.019   3.291   2.483  0.1219  0.0346 -0.7999
 9947TIP3    H154036   3.962   3.214   2.481 -0.0464  0.1508 -0.4708
 9947TIP3    H254037   4.081   3.272   2.554  1.4578 -0.7797 -2.1309
 9948TIP3   OH254038   5.103   3.863   2.625  0.2869  0.0777  0.6520
 9948TIP3    H154039   5.182   3.835   2.578  0.5033  0.9826  0.4526
 9948TIP3    H254040   5.123   3.952   2.654 -0.7968  0.4526  0.2951
 9949TIP3   OH254041   6.770   0.362   0.987 -0.0183  0.1286  0.4049
 9949TIP3    H154042   6.772   0.449   0.946  3.4035 -0.7493 -1.7700
 9949TIP3    H254043   6.810   0.374   1.072  0.8892  0.6406 -0.0824
 9950TIP3   OH254044   0.107   2.400   2.049  0.0585  0.6394  0.0996
 9950TIP3    H154045   0.155   2.379   2.129 -1.0166 -0.0314  0.6000
 9950TIP3    H254046   0.163   2.369   1.978  0.5530  0.2730  0.6434
 9951TIP3   OH254047   2.881   7.150   1.071  0.2524  0.0935 -0.2840
 9951TIP3    H154048   2.803   7.159   1.126  0.3008  1.7178 -0.4118
 9951TIP3    H254049   2.847   7.146   0.982  0.2898  0.7707 -0.3376
 9952TIP3   OH254050   4.348   4.426   1.171 -0.1631  0.0285  0.1798
 9952TIP3    H154051   4.419   4.466   1.121 -0.4227 -0.1745 -0.3680
 9952TIP3    H254052   4.391   4.383   1.245  0.3838 -0.7848 -0.5881
 9953TIP3   OH254053   0.715   5.421   1.340  0.3401 -0.2425  0.2280
 9953TIP3    H154054   0.707   5.501   1.391 -0.1660 -0.1773  0.0472
 9953TIP3    H254055   0.755   5.358   1.400 -1.0477 -0.4265  1.0071
 9954TIP3   OH254056   0.114   0.152   1.461  0.4053  0.0208  0.0430
 9954TIP3    H154057   0.028   0.112   1.473  1.1778 -2.0690 -1.0642
 9954TIP3    H254058   0.113   0.185   1.371  1.6881 -2.5478 -0.9814
 9955TIP3   OH254059   5.980   5.941   0.507 -0.7411  0.3631  0.3215
 9955TIP3    H154060   5.971   6.017   0.450 -2.0992  0.8335  1.1008
 9955TIP3    H254061   5.897   5.893   0.496  0.3732 -1.4263 -0.7144
 9956TIP3   OH254062   0.477   4.028   1.863 -0.2051  0.4250 -0.2857
 9956TIP3    H154063   0.483   4.009   1.956 -1.3949  2.1753  0.2118
 9956TIP3    H254064   0.568   4.030   1.833  0.1351 -1.6279  0.4637
 9957TIP3   OH254065   4.722   3.586   2.351  0.5251  0.3641 -0.3682
 9957TIP3    H154066   4.817   3.581   2.340  0.2847  0.9229 -4.1118
 9957TIP3    H254067   4.708   3.662   2.408  2.3047  0.7181 -0.3521
 9958TIP3   OH254068   2.176   2.615   1.094 -0.5865 -0.4506 -0.5655
 9958TIP3    H154069   2.217   2.665   1.164  0.5697 -0.1673 -1.4243
 9958TIP3    H254070   2.249   2.576   1.045 -1.4117 -2.5384 -0.2760
 9959TIP3   OH254071   2.749   4.411   0.657  0.0307  0.2535 -0.2869
 9959TIP3    H154072   2.683   4.343   0.672  1.6798 -1.0933  1.5432
 9959TIP3    H254073   2.709   4.491   0.691 -0.0899 -0.8764  2.5112
 9960TIP3   OH254074   1.105   0.358   1.014 -0.3349 -0.7475  0.2936
 9960TIP3    H154075   1.131   0.417   1.085  1.6810 -0.9247 -0.2210
 9960TIP3    H254076   1.106   0.271   1.054  4.1257 -1.3213 -0.5082
 9961TIP3   OH254077   5.449   4.427   1.046 -0.0122 -0.2252 -0.2995
 9961TIP3    H154078   5.544   4.419   1.036 -0.0292 -0.1483 -0.5269
 9961TIP3    H254079   5.415   4.345   1.009  0.0233 -0.7208  0.7392
 9962TIP3   OH254080   3.146   7.208   2.199 -0.3458  0.1710  0.0876
 9962TIP3    H154081   3.106   7.153   2.132 -1.5102  0.9738  0.0907
 9962TIP3    H254082   3.098   7.187   2.279  0.2562  0.0560  0.4190
 9963TIP3   OH254083   0.305   7.021   1.896  0.4901  0.7225 -0.2821
 9963TIP3    H154084   0.250   7.099   1.896  0.5992  0.8338  1.3194
 9963TIP3    H254085   0.385   7.047   1.849  0.7896  1.7870  0.7915
 9964TIP3   OH254086   2.237   0.707   0.513 -0.5803 -0.1834 -0.0634
 9964TIP3    H154087   2.244   0.802   0.507  1.8093 -0.3690 -1.5834
 9964TIP3    H254088   2.286   0.684   0.592 -0.5239 -0.2001 -0.1031
 9965TIP3   OH254089   2.864   6.396   2.796 -0.5852  0.3052 -0.0495
 9965TIP3    H154090   2.891   6.357   2.879 -1.6325  0.4120  0.3557
 9965TIP3    H254091   2.855   6.321   2.737  0.1998  0.2333 -0.0963
 9966TIP3   OH254092   2.659   3.376   3.050  0.3673  0.3121 -0.3895
 9966TIP3    H154093   2.638   3.361   3.142 -0.7496  1.2475 -0.4689
 9966TIP3    H254094   2.751   3.403   3.050 -0.1445  2.2543  0.6987
 9967TIP3   OH254095   0.936   3.145   2.176  0.1347 -0.4722  0.1240
 9967TIP3    H154096   0.893   3.149   2.262 -0.6896  0.6566 -0.3111
 9967TIP3    H254097   0.981   3.229   2.169  3.4649 -2.0212  1.0405
 9968TIP3   OH254098   7.087   1.567   1.816  0.2259  0.0037 -0.1763
 9968TIP3    H154099   7.154   1.547   1.750 -0.6838 -0.6538 -0.9282
 9968TIP3    H254100   7.019   1.614   1.767  0.0342  0.4685  0.5316
 9969TIP3   OH254101   0.608   0.133   2.189  0.9370 -0.4481  0.5102
 9969TIP3    H154102   0.515   0.153   2.178  1.0350 -0.8024 -1.2886
 9969TIP3    H254103   0.645   0.214   2.226  0.3949  0.7686 -1.4634
 9970TIP3   OH254104   5.464   6.259   1.024 -0.2110 -0.7729  0.1437
 9970TIP3    H154105   5.558   6.255   1.037  0.2317 -1.0030 -2.6128
 9970TIP3    H254106   5.428   6.198   1.088  1.5482 -1.1029  0.8507
 9971TIP3   OH254107   6.555   5.355   1.525  0.5432  0.6139  0.2200
 9971TIP3    H154108   6.625   5.408   1.487  0.0609  0.2545 -1.2629
 9971TIP3    H254109   6.587   5.330   1.611  2.0126  0.8793 -0.2279
 9972TIP3   OH254110   3.726   5.589   1.565 -0.3701 -0.1086 -0.1448
 9972TIP3    H154111   3.804   5.642   1.546  0.6433 -1.6332 -0.4224
 9972TIP3    H254112   3.761   5.502   1.584 -1.9352 -0.4894  1.1160
 9973TIP3   OH254113   0.322   2.220   1.436 -0.4220  0.4759  0.2644
 9973TIP3    H154114   0.359   2.180   1.515  1.6469 -0.4665 -1.0999
 9973TIP3    H254115   0.346   2.313   1.444 -1.0338  0.5724  1.1523
 9974TIP3   OH254116   1.605   4.071   2.356  0.9779 -0.1794  0.4709
 9974TIP3    H154117   1.593   4.004   2.423  0.2119 -1.2536 -0.6933
 9974TIP3    H254118   1.521   4.116   2.351  1.2419  0.3448  0.6953
 9975TIP3   OH254119   0.288   6.632   1.755 -0.4158 -0.4443 -0.0521
 9975TIP3    H154120   0.372   6.677   1.757 -0.9247  0.5254  0.0919
 9975TIP3    H254121   0.243   6.660   1.834 -0.8155 -1.0774 -0.0444
 9976TIP3   OH254122   0.962   0.340   2.156  0.3205  0.1533  0.0483
 9976TIP3    H154123   0.867   0.337   2.173  0.6852 -0.9372  2.2762
 9976TIP3    H254124   1.000   0.365   2.240  2.0696 -0.3166 -0.5754
 9977TIP3   OH254125   5.176   4.142   1.578 -0.2792  0.3589  0.2799
 9977TIP3    H154126   5.111   4.126   1.646  0.1408  1.6140  1.0254
 9977TIP3    H254127   5.255   4.099   1.609  0.2364  1.8747  1.2066
 9978TIP3   OH254128   6.764   1.787   1.037  0.4238 -0.5842 -0.3811
 9978TIP3    H154129   6.722   1.756   1.117  0.6479  0.2595  0.0807
 9978TIP3    H254130   6.701   1.768   0.968 -0.3721 -0.0987  0.1844
 9979TIP3   OH254131   5.035   6.705   1.777  0.2254  0.1805  0.5892
 9979TIP3    H154132   5.110   6.735   1.725 -0.1256  0.3250  0.1647
 9979TIP3    H254133   4.959   6.721   1.722 -0.1248  0.0484  1.0259
 9980TIP3   OH254134   3.820   7.487   0.614 -0.1804  0.2804 -0.2450
 9980TIP3    H154135   3.821   7.426   0.540  0.4954  0.5263 -0.4461
 9980TIP3    H254136   3.772   7.563   0.580  0.7447  0.6802 -0.6732
 9981TIP3   OH254137   7.463   0.255   2.674  0.2971  0.0160 -0.1649
 9981TIP3    H154138   7.396   0.323   2.682  2.3704  2.0586  0.8671
 9981TIP3    H254139   7.520   0.267   2.749  0.6590 -3.1080  0.2220
 9982TIP3   OH254140   4.904   2.167   1.850 -0.3898 -0.0254 -0.4500
 9982TIP3    H154141   4.907   2.136   1.760 -0.6742  0.9933 -0.8133
 9982TIP3    H254142   4.904   2.262   1.844  1.4747  0.1085  0.6808
 9983TIP3   OH254143   0.054   7.506   1.860 -0.2480  0.6892  0.0220
 9983TIP3    H154144   0.009   7.540   1.938 -0.6656  0.0364  0.0705
 9983TIP3    H254145  -0.016   7.492   1.796  0.2078  2.2611 -0.8790
 9984TIP3   OH254146   5.404   1.018   1.080  0.5930  0.8728  0.1602
 9984TIP3    H154147   5.383   0.972   1.162 -1.4880  1.1081 -0.1998
 9984TIP3    H254148   5.411   1.110   1.105  2.8847  0.6517  0.5427
 9985TIP3   OH254149   3.334   4.766   2.527  0.4661 -0.2476  0.5565
 9985TIP3    H154150   3.368   4.854   2.545  2.9801 -0.8789 -0.5895
 9985TIP3    H254151   3.358   4.715   2.605 -2.0467  0.2518  1.7530
 9986TIP3   OH254152   1.618   3.182   2.338 -0.0323  0.9899  0.4016
 9986TIP3    H154153   1.693   3.206   2.393  1.1438 -1.3418 -0.0446
 9986TIP3    H254154   1.543   3.183   2.397  0.9684 -0.0718  1.7504
 9987TIP3   OH254155   6.988   3.638   1.314 -0.0876  0.0419  0.1600
 9987TIP3    H154156   7.037   3.596   1.385  0.5977  1.7909  0.7799
 9987TIP3    H254157   6.922   3.690   1.359 -0.4684  0.1736 -0.5476
 9988TIP3   OH254158   2.752   2.973   1.733 -0.0212 -0.1522 -0.5507
 9988TIP3    H154159   2.762   2.921   1.813 -1.9103  1.8017  1.0716
 9988TIP3    H254160   2.725   3.060   1.763 -2.3018  0.2750 -3.3527
 9989TIP3   OH254161   5.057   7.321   1.495  0.0667 -0.3502  0.2411
 9989TIP3    H154162   5.076   7.293   1.585 -0.1800 -0.6808  0.1889
 9989TIP3    H254163   5.104   7.404   1.486 -0.9969  0.3758  1.1220
 9990TIP3   OH254164   4.848   3.901   2.390  0.0438 -0.5312  1.2001
 9990TIP3    H154165   4.933   3.856   2.388 -0.0129 -0.6831  1.9101
 9990TIP3    H254166   4.871   3.992   2.409  0.0629 -0.5321  1.1826
 9991TIP3   OH254167   7.416   0.064   1.580  0.0398 -0.6890  0.4640
 9991TIP3    H154168   7.435  -0.024   1.614  1.4706  0.1265  1.9070
 9991TIP3    H254169   7.397   0.116   1.658  0.4068  0.5681 -0.2625
 9992TIP3   OH254170   0.129   3.165   1.618 -0.4921 -0.3860  0.5642
 9992TIP3    H154171   0.157   3.235   1.678 -0.8188 -1.7602  2.3921
 9992TIP3    H254172   0.110   3.211   1.536  0.0885  1.5555  1.4459
 9993TIP3   OH254173   1.001   2.059   2.853 -0.1538 -0.0708 -0.2050
 9993TIP3    H154174   0.949   1.992   2.808  0.2026  0.4237 -1.3655
 9993TIP3    H254175   1.053   2.009   2.917 -3.2012 -0.4398  2.2403
 9994TIP3   OH254176   1.406   0.950   2.026  0.2396  1.1400  0.1701
 9994TIP3    H154177   1.455   0.919   2.102  0.0537  2.1470  0.7189
 9994TIP3    H254178   1.357   0.873   1.997  1.1396  0.4562  0.3954
 9995TIP3   OH254179   6.241   2.646   0.814 -0.1919 -0.0510 -0.0868
 9995TIP3    H154180   6.258   2.555   0.839 -1.0168 -0.2908 -0.3506
 9995TIP3    H254181   6.186   2.639   0.736 -0.1784  0.6802 -0.1699
 9996TIP3   OH254182   6.306   1.398   0.605 -0.2468  0.3297  0.1769
 9996TIP3    H154183   6.301   1.392   0.701  0.2621 -2.0946  0.1239
 9996TIP3    H254184   6.380   1.341   0.582 -2.2924 -1.7254 -1.8012
 9997TIP3   OH254185   6.223   6.287   1.397 -0.0128 -0.0139  0.4929
 9997TIP3    H154186   6.254   6.281   1.488  0.3151  2.0459  0.5668
 9997TIP3    H254187   6.299   6.260   1.344  0.6452  1.2123  0.7823
 9998TIP3   OH254188   7.400   1.575   2.188  0.2387 -0.1082 -0.2355
 9998TIP3    H154189   7.351   1.513   2.243  0.3030 -2.0062 -2.1638
 9998TIP3    H254190   7.348   1.655   2.190 -1.0084 -0.8981  0.6988
 9999TIP3   OH254191   6.692   1.604   1.923 -0.6698 -0.1782 -0.3458
 9999TIP3    H154192   6.713   1.549   1.847 -0.6258 -2.0694  0.9515
 9999TIP3    H254193   6.743   1.566   1.995 -0.2338  1.9280  0.5350
10000TIP3   OH254194   0.689   0.612   1.350 -0.1861  0.1600 -0.0290
10000TIP3    H154195   0.685   0.554   1.425  2.0813  0.7304  0.6139
10000TIP3    H254196   0.703   0.699   1.387  2.4719  0.2668 -1.0414
10001TIP3   OH254197   1.582   5.184   0.746  0.7861 -0.3047  0.4149
10001TIP3    H154198   1.590   5.270   0.704 -0.7525 -0.4966 -0.3498
10001TIP3    H254199   1.661   5.176   0.800  1.6236  0.9969 -0.5552
10002TIP3   OH254200   4.136   1.164   0.919  0.0161 -0.2492  0.6824
10002TIP3    H154201   4.136   1.114   0.838  1.6263  0.9908 -0.1382
10002TIP3    H254202   4.053   1.211   0.919 -1.2223 -2.2861  1.1343
10003TIP3   OH254203   3.447   6.354   1.085  0.2853 -0.1470 -0.3658
10003TIP3    H154204   3.399   6.388   1.161 -0.8710  1.9867 -1.9247
10003TIP3    H254205   3.500   6.428   1.055  2.4480 -1.6221 -0.3726
10004TIP3   OH254206   1.960   2.476   2.540 -0.6237 -0.1766  0.0787
10004TIP3    H154207   1.905   2.552   2.519  0.5334  0.3103 -1.4091
10004TIP3    H254208   2.002   2.499   2.623 -0.0902  0.9518 -0.4807
10005TIP3   OH254209   2.428   5.454   0.578 -0.5197 -0.5584 -0.3276
10005TIP3    H154210   2.490   5.384   0.560  1.5166  0.6695  1.4148
10005TIP3    H254211   2.354   5.411   0.621  1.0809 -1.5781  1.5460
10006TIP3   OH254212   4.540   5.475   1.975 -0.3411  0.8071 -0.0068
10006TIP3    H154213   4.544   5.413   2.047  0.1577 -1.2364 -1.6888
10006TIP3    H254214   4.448   5.472   1.946  0.2439 -1.5595 -1.9612
10007TIP3   OH254215   2.087   4.864   1.431  0.9915 -0.3250  0.5137
10007TIP3    H154216   2.135   4.947   1.434  2.0230 -0.9142  1.3684
10007TIP3    H254217   2.130   4.814   1.362 -2.0537  1.1714 -2.7719
10008TIP3   OH254218   6.898   5.693   0.998  0.5485  0.8228 -0.3122
10008TIP3    H154219   6.807   5.675   0.975  0.4872  1.2400 -0.4010
10008TIP3    H254220   6.923   5.619   1.053  0.6161 -0.0551 -1.4783
10009TIP3   OH254221   6.034   4.804   1.586  0.3454  0.2672  0.4744
10009TIP3    H154222   6.068   4.856   1.658  1.7665  0.9913 -0.6724
10009TIP3    H254223   5.939   4.809   1.595  0.4949  0.7307  1.9965
10010TIP3   OH254224   1.607   3.028   1.089  0.0720 -0.5197 -0.3161
10010TIP3    H154225   1.653   2.950   1.059  0.1449 -0.1842 -1.1032
10010TIP3    H254226   1.655   3.101   1.050  0.2254 -0.0570  0.7080
10011TIP3   OH254227   1.893   5.348   2.531  0.2629  0.2040  0.0462
10011TIP3    H154228   1.980   5.382   2.513 -0.2954  1.1944 -0.8903
10011TIP3    H254229   1.876   5.285   2.461 -0.1072  0.6610 -0.2824
10012TIP3   OH254230   6.197   4.121   0.768  0.2085  0.1666 -0.4639
10012TIP3    H154231   6.285   4.115   0.804  0.3489  0.2509 -0.7958
10012TIP3    H254232   6.146   4.164   0.837 -0.0012 -1.5016  0.4802
10013TIP3   OH254233   5.645   1.947   0.593 -0.3055  0.1771 -0.0338
10013TIP3    H154234   5.654   1.974   0.685  0.2488 -0.4557  0.1074
10013TIP3    H254235   5.562   1.900   0.590  0.3845 -1.1254  0.4968
10014TIP3   OH254236   6.239   0.156   2.326  0.1193  0.2589  0.0737
10014TIP3    H154237   6.182   0.232   2.318 -0.3457 -0.1587 -0.7561
10014TIP3    H254238   6.184   0.082   2.299  0.6181 -0.3474  0.6899
10015TIP3   OH254239   0.550   3.854   2.770 -0.4972  0.4904  0.1369
10015TIP3    H154240   0.462   3.891   2.768 -0.5055  0.4469 -1.5139
10015TIP3    H254241   0.564   3.821   2.681 -0.0268 -2.4079  1.1862
10016TIP3   OH254242   3.614   5.357   2.923  0.3574 -0.5895  0.2529
10016TIP3    H154243   3.608   5.452   2.924 -1.3051 -0.6707  1.1346
10016TIP3    H254244   3.660   5.335   3.005  1.6115 -0.5323 -0.4099
10017TIP3   OH254245   7.178   6.211   1.618 -0.2658  0.2773  0.5069
10017TIP3    H154246   7.194   6.166   1.702  0.5354  2.1019  1.4064
10017TIP3    H254247   7.083   6.209   1.607 -0.5407  1.3642  2.3034
10018TIP3   OH254248   3.591   4.570   0.625  0.1174  0.4291 -1.0581
10018TIP3    H154249   3.561   4.515   0.697  1.5431  3.0710  1.7868
10018TIP3    H254250   3.525   4.557   0.556 -1.9112 -1.4825  1.0719
10019TIP3   OH254251   5.352   0.842   1.985  0.2709 -0.5891 -0.8418
10019TIP3    H154252   5.284   0.878   2.042 -0.6066 -1.3187 -1.3905
10019TIP3    H254253   5.313   0.762   1.950  0.9772 -0.4281 -2.0577
10020TIP3   OH254254   7.075   0.355   1.707  0.1273 -0.7409 -0.3337
10020TIP3    H154255   6.991   0.328   1.742  0.0230  0.3916  0.3457
10020TIP3    H254256   7.103   0.426   1.764  1.8707 -1.5391 -0.1443
10021TIP3   OH254257   4.188   6.148   2.103  0.7285 -0.4748  0.1799
10021TIP3    H154258   4.187   6.237   2.068 -1.0280 -0.6215 -0.2402
10021TIP3    H254259   4.217   6.094   2.029  2.0051 -0.2531  0.4978
10022TIP3   OH254260   5.302   6.118   3.274 -0.2979  0.0634 -0.0288
10022TIP3    H154261   5.249   6.134   3.196 -0.1551 -1.6920 -0.5272
10022TIP3    H254262   5.254   6.050   3.322  0.1527  0.3761  0.8775
10023TIP3   OH254263   4.073   4.631   2.444  0.1578  0.3460 -0.6930
10023TIP3    H154264   3.979   4.651   2.448 -0.2833 -0.6653 -3.4956
10023TIP3    H254265   4.077   4.536   2.458  1.1330  0.6901  2.0255
10024TIP3   OH254266   0.192   3.269   1.163  0.2333  0.3493 -0.4807
10024TIP3    H154267   0.224   3.179   1.160  0.1832  0.3488 -1.8179
10024TIP3    H254268   0.231   3.306   1.242  1.0589 -0.5552 -0.4445
10025TIP3   OH254269   0.281   6.509   2.105  0.2663 -0.0807 -0.5101
10025TIP3    H154270   0.368   6.542   2.084 -0.0976  0.2895 -1.5077
10025TIP3    H254271   0.223   6.584   2.089 -0.3528 -0.6437 -0.9474
10026TIP3   OH254272   7.049   1.385   2.624 -0.3132  0.0552  0.4271
10026TIP3    H154273   6.989   1.426   2.686 -0.3627  2.2132 -0.9519
10026TIP3    H254274   6.998   1.316   2.582 -1.4084  0.9593  0.2463
10027TIP3   OH254275   3.285   3.599   1.379 -0.5855  0.4243  0.8842
10027TIP3    H154276   3.293   3.693   1.362 -1.5858  0.2059 -1.1422
10027TIP3    H254277   3.223   3.568   1.314  0.0430 -1.7393  1.2175
10028TIP3   OH254278   7.458   4.474   1.255  0.0517  0.0072 -0.0578
10028TIP3    H154279   7.396   4.496   1.325 -0.6541 -1.3276 -0.2357
10028TIP3    H254280   7.421   4.396   1.214  0.3620  0.8534 -2.0463
10029TIP3   OH254281   0.120   4.912   2.349  0.2935  0.0545 -0.4124
10029TIP3    H154282   0.097   4.821   2.367 -0.3538  0.0367 -1.2659
10029TIP3    H254283   0.064   4.937   2.275  1.7555  0.5923 -1.3784
10030TIP3   OH254284   4.379   1.873   1.053 -0.3718 -0.4246  0.8605
10030TIP3    H154285   4.388   1.917   1.138  0.9989 -0.7777  0.9187
10030TIP3    H254286   4.335   1.936   0.997  0.1991  0.4419  1.3770
10031TIP3   OH254287   4.663   0.474   1.904  0.2124 -1.1325  0.1321
10031TIP3    H154288   4.706   0.392   1.879 -2.4558 -1.8683 -2.7821
10031TIP3    H254289   4.685   0.535   1.834 -0.7880 -0.5567  0.2916
10032TIP3   OH254290   7.131   2.020   1.983  0.7372  0.1936 -0.5861
10032TIP3    H154291   7.202   1.968   1.946  1.1229  1.4908 -1.7415
10032TIP3    H254292   7.059   1.957   1.996  1.4691 -0.7785 -1.1103
10033TIP3   OH254293   2.346   6.909   1.934 -0.3246  0.1741 -0.3605
10033TIP3    H154294   2.322   6.994   1.972 -1.6542 -0.1887 -0.3283
10033TIP3    H254295   2.264   6.860   1.932  0.8239 -2.0923  2.0194
10034TIP3   OH254296   3.957   2.686   2.379 -0.4325 -0.2240 -0.0782
10034TIP3    H154297   3.888   2.747   2.406  0.0109 -0.7472  2.4943
10034TIP3    H254298   3.988   2.647   2.461  1.7395 -1.2915 -1.3174
10035TIP3   OH254299   3.355   4.132   1.560  0.3802 -0.5099  0.2017
10035TIP3    H154300   3.273   4.096   1.524  0.9907 -2.5066  0.7043
10035TIP3    H254301   3.361   4.095   1.647 -0.8778  3.9500  2.5168
10036TIP3   OH254302   3.506   6.458   0.518  0.4133  0.1682 -0.2529
10036TIP3    H154303   3.554   6.435   0.598  0.6183 -2.0489 -0.9350
10036TIP3    H254304   3.427   6.502   0.550  0.6032 -0.4553  1.1686
10037TIP3   OH254305   7.526   1.632   1.219 -0.1465 -0.0850  0.6165
10037TIP3    H154306   7.571   1.568   1.275  1.1567  0.7756  0.5945
10037TIP3    H254307   7.532   1.594   1.131  1.8390  0.6411  0.3819
10038TIP3   OH254308   1.773   1.270   2.719  0.0377  0.2322  0.3953
10038TIP3    H154309   1.678   1.273   2.710  0.1807  2.2042 -1.0998
10038TIP3    H254310   1.794   1.344   2.777  0.7680  0.9920 -0.8111
10039TIP3   OH254311   5.987   3.714   0.819 -0.5075  0.2313  0.0706
10039TIP3    H154312   5.922   3.705   0.888 -1.2371  0.1480 -0.6076
10039TIP3    H254313   6.037   3.633   0.822 -1.6877 -0.5534 -0.6363
10040TIP3   OH254314   0.697   5.850   2.836 -0.2398  0.7100 -0.5061
10040TIP3    H154315   0.782   5.843   2.791 -0.8491  0.6071 -1.6797
10040TIP3    H254316   0.719   5.881   2.924  1.0410  0.3864 -0.6918
10041TIP3   OH254317   7.474   4.000   1.982 -0.1675  0.0238 -0.3560
10041TIP3    H154318   7.445   3.978   1.894  0.0991 -0.2286 -0.3817
10041TIP3    H254319   7.496   3.916   2.022  1.7607  0.2900 -0.7779
10042TIP3   OH254320   6.708   5.878   2.566  0.4666 -0.1247  0.1766
10042TIP3    H154321   6.742   5.795   2.533  0.5916  0.2957 -0.7906
10042TIP3    H254322   6.660   5.855   2.645  1.2370 -1.0001  0.4093
10043TIP3   OH254323   1.395   5.663   1.173 -0.1476  0.2759 -0.4029
10043TIP3    H154324   1.407   5.588   1.230 -1.2305 -0.2576 -0.8441
10043TIP3    H254325   1.377   5.736   1.232  0.8352  0.1833  0.0228
10044TIP3   OH254326   1.839   6.383   1.337 -0.6478  0.2631 -0.4451
10044TIP3    H154327   1.852   6.407   1.429 -1.0384 -1.0098 -0.0382
10044TIP3    H254328   1.851   6.288   1.335 -0.1266  0.3358 -1.8101
10045TIP3   OH254329   3.299   5.611   2.973  0.0432  0.0874 -0.0459
10045TIP3    H154330   3.235   5.607   3.044  1.3860  0.1566  1.2145
10045TIP3    H254331   3.247   5.634   2.895 -1.4709 -0.0415  0.8842
10046TIP3   OH254332   5.786   4.050   2.276  0.1186 -0.6656 -0.2149
10046TIP3    H154333   5.696   4.062   2.303 -0.0384  0.0453 -1.0226
10046TIP3    H254334   5.838   4.094   2.343 -0.2039  0.0428 -0.4266
10047TIP3   OH254335   1.732   5.132   0.486  0.2107 -0.5403 -0.0751
10047TIP3    H154336   1.727   5.225   0.462  1.4997 -0.1387  1.0702
10047TIP3    H254337   1.687   5.127   0.570 -0.7261 -1.1575 -0.6043
10048TIP3   OH254338   6.905   0.455   0.369 -0.5226 -0.1284  0.3381
10048TIP3    H154339   6.904   0.388   0.437 -3.0926 -1.1162 -0.5255
10048TIP3    H254340   6.821   0.445   0.324  0.5503  1.2562 -2.2352
10049TIP3   OH254341   6.626   4.076   0.748  0.0529  0.2815 -0.8661
10049TIP3    H154342   6.562   4.068   0.819  0.1417 -1.7625 -0.9292
10049TIP3    H254343   6.609   3.999   0.693  1.3698  0.6826 -1.8781
10050TIP3   OH254344   3.698   6.778   2.238  0.0828  0.0167  0.0371
10050TIP3    H154345   3.761   6.835   2.282 -0.1037 -0.1203  0.4896
10050TIP3    H254346   3.708   6.693   2.280  0.2114 -0.2344 -0.4934
10051TIP3   OH254347   2.430   4.632   2.471  0.2649 -0.6596 -0.4994
10051TIP3    H154348   2.464   4.619   2.560 -0.8509 -0.7125 -0.0600
10051TIP3    H254349   2.459   4.720   2.447  2.8859 -1.6319 -1.1790
10052TIP3   OH254350   7.541   2.335   2.396 -0.0444  0.1958  0.1353
10052TIP3    H154351   7.458   2.325   2.443 -1.0021 -0.3784 -1.5705
10052TIP3    H254352   7.515   2.346   2.304  1.7735  0.2920 -0.4099
10053TIP3   OH254353   6.748   1.358   2.415 -0.4465 -0.3324  0.1969
10053TIP3    H154354   6.786   1.331   2.498  2.0312 -0.2249 -0.8261
10053TIP3    H254355   6.678   1.295   2.399  1.5700 -2.8032  0.5204
10054TIP3   OH254356   2.497   4.627   1.265 -0.1692 -0.0784 -0.3198
10054TIP3    H154357   2.544   4.680   1.201  0.1301 -0.4234 -0.3842
10054TIP3    H254358   2.520   4.537   1.244  1.1803 -0.1416  1.2220
10055TIP3   OH254359   2.339   6.785   1.112  0.2974  0.3904 -0.3708
10055TIP3    H154360   2.261   6.804   1.164  0.6726 -0.9733  0.7614
10055TIP3    H254361   2.410   6.781   1.176  0.5994 -2.4486 -0.7459
10056TIP3   OH254362   2.588   0.922   0.741 -0.0770 -0.1818  0.3501
10056TIP3    H154363   2.648   0.928   0.815  0.7087 -1.4742 -0.1483
10056TIP3    H254364   2.636   0.872   0.675 -1.3938 -0.5157 -0.3900
10057TIP3   OH254365   7.307   1.888   3.016  0.1199  0.0687  0.2971
10057TIP3    H154366   7.260   1.804   3.017  0.1601 -0.0189 -1.7186
10057TIP3    H254367   7.352   1.890   3.100 -0.1601 -1.7826  0.5505
10058TIP3   OH254368   0.220   0.493   0.627 -0.4766 -0.2229 -0.1503
10058TIP3    H154369   0.128   0.472   0.645 -0.3328 -0.8344 -0.1138
10058TIP3    H254370   0.228   0.585   0.651 -1.1036 -0.1332 -0.2442
10059TIP3   OH254371   5.005   4.197   0.922 -0.6907 -0.7272  0.3368
10059TIP3    H154372   4.980   4.106   0.904 -0.3504 -0.7820  0.1327
10059TIP3    H254373   5.011   4.201   1.017 -1.9037 -0.5948  0.4210
10060TIP3   OH254374   0.455   5.491   1.221 -0.1186 -0.4360  0.5287
10060TIP3    H154375   0.519   5.434   1.263 -0.4422 -0.4380  1.0278
10060TIP3    H254376   0.430   5.554   1.289  1.9351  1.8014 -0.6316
10061TIP3   OH254377   2.062   4.178   1.210  0.2980 -0.2152  0.5754
10061TIP3    H154378   2.038   4.131   1.290 -3.7380  3.0930  1.6917
10061TIP3    H254379   1.983   4.175   1.156  0.8785  2.5374 -0.5867
10062TIP3   OH254380   3.343   1.461   0.466  0.3879  0.2380 -0.5867
10062TIP3    H154381   3.320   1.390   0.526 -1.2394  0.6191 -0.7234
10062TIP3    H254382   3.426   1.433   0.427  0.3464 -1.0553  0.1811
10063TIP3   OH254383   6.109   2.944   1.162 -0.0514  0.7352 -0.0660
10063TIP3    H154384   6.126   2.951   1.068 -1.5372 -1.0844 -0.5189
10063TIP3    H254385   6.124   2.852   1.183  0.7154  1.2015  1.5976
10064TIP3   OH254386   5.186   3.194   0.728 -0.5049  0.0198  0.4490
10064TIP3    H154387   5.240   3.270   0.749  0.6354 -0.8295  0.6601
10064TIP3    H254388   5.096   3.227   0.731 -0.1120  1.0314  1.9183
10065TIP3   OH254389   2.552   0.881   1.490  0.4653  0.1254  0.0644
10065TIP3    H154390   2.497   0.838   1.425  0.4559  0.8869 -0.4342
10065TIP3    H254391   2.515   0.968   1.500  2.7383  1.4426 -1.8109
10066TIP3   OH254392   1.844   0.192   2.615 -0.1798 -0.0822 -0.2150
10066TIP3    H154393   1.873   0.107   2.648  1.3896 -0.1022 -1.5098
10066TIP3    H254394   1.834   0.246   2.694  0.5110 -0.9696  0.5098
10067TIP3   OH254395   6.568   6.715   0.575  0.7527  0.7016 -0.2009
10067TIP3    H154396   6.565   6.644   0.639  0.6080  0.6063 -0.3114
10067TIP3    H254397   6.660   6.723   0.552  0.8030  0.7306  0.0133
10068TIP3   OH254398   0.558   4.127   1.303  0.5510 -0.2793  0.1374
10068TIP3    H154399   0.528   4.191   1.238 -0.1511 -0.4952  0.2346
10068TIP3    H254400   0.652   4.119   1.287  0.5176  0.2273 -0.3607
10069TIP3   OH254401   5.545   7.231   1.410 -0.6756  0.3471 -0.0176
10069TIP3    H154402   5.600   7.173   1.357  0.2518  0.2156  1.0424
10069TIP3    H254403   5.603   7.303   1.434 -0.9370  0.1710  1.1934
10070TIP3   OH254404   6.315   7.158   2.422  0.4116  0.1022 -0.1468
10070TIP3    H154405   6.309   7.244   2.465 -0.1435 -0.0846  0.1590
10070TIP3    H254406   6.384   7.169   2.356 -0.6316  1.2197 -1.0995
10071TIP3   OH254407   6.302   5.778   0.422  0.4678 -0.0925 -0.0425
10071TIP3    H154408   6.213   5.812   0.415  0.9537  0.9529 -2.1258
10071TIP3    H254409   6.352   5.852   0.457  0.7663 -0.1585 -0.3279
10072TIP3   OH254410   6.209   4.451   2.072 -0.2423  0.0658 -0.8494
10072TIP3    H154411   6.268   4.419   2.140 -1.9163 -1.1564  0.1249
10072TIP3    H254412   6.234   4.542   2.058  0.0571  0.3974  1.5289
10073TIP3   OH254413   1.134   5.654   2.428 -0.5695  0.2468 -0.2432
10073TIP3    H154414   1.123   5.740   2.469 -1.8584  0.1344 -0.3134
10073TIP3    H254415   1.216   5.620   2.465 -0.3223  1.2657  0.1911
10074TIP3   OH254416   4.709   1.620   2.885 -0.1108 -0.2519 -0.0325
10074TIP3    H154417   4.690   1.702   2.840  0.0023 -0.1515  0.0995
10074TIP3    H254418   4.627   1.570   2.881  0.1361 -0.6002 -1.0789
10075TIP3   OH254419   4.137   3.919   0.695  0.5994 -0.0184  0.1222
10075TIP3    H154420   4.096   4.005   0.687  0.4179 -0.1079  0.0749
10075TIP3    H254421   4.230   3.935   0.682  0.5449  0.1433 -0.0747
10076TIP3   OH254422   1.140   4.512   2.055  0.5018 -0.2948 -0.4528
10076TIP3    H154423   1.164   4.434   2.104  1.9180 -0.0714 -0.7454
10076TIP3    H254424   1.094   4.478   1.977 -2.4829 -0.6180  1.2909
10077TIP3   OH254425   6.874   7.178   2.517  0.2118  0.4109 -0.5362
10077TIP3    H154426   6.927   7.128   2.454  2.0412  0.7273  0.6475
10077TIP3    H254427   6.939   7.215   2.578 -1.3917  0.9774  0.9071
10078TIP3   OH254428   5.141   1.736   0.527  0.2336 -0.2396  0.6191
10078TIP3    H154429   5.065   1.679   0.512  0.7672 -0.4113 -1.8984
10078TIP3    H254430   5.215   1.676   0.535  0.9976 -0.0749 -3.2682
10079TIP3   OH254431   2.112   6.176   2.657 -0.3383  0.3864  0.1066
10079TIP3    H154432   2.167   6.101   2.679 -1.4904 -0.7538 -0.7199
10079TIP3    H254433   2.138   6.200   2.568 -0.6923  0.2782 -0.0288
10080TIP3   OH254434   2.230   4.749   1.217  0.2640 -0.2751  0.8597
10080TIP3    H154435   2.232   4.783   1.128 -1.3899  0.3771  1.0335
10080TIP3    H254436   2.289   4.674   1.215 -2.0574 -2.2367 -1.6301
10081TIP3   OH254437   3.717   0.711   0.438  0.1904  0.5280  0.1387
10081TIP3    H154438   3.771   0.783   0.469  1.8704  0.6211 -2.6603
10081TIP3    H254439   3.699   0.733   0.346 -2.2339 -0.9344  0.1867
10082TIP3   OH254440   3.968   2.163   1.671 -0.4663 -0.2142  0.5062
10082TIP3    H154441   3.923   2.234   1.625 -0.8690 -0.0792  1.0994
10082TIP3    H254442   3.937   2.083   1.630 -0.2370 -0.0650  0.0321
10083TIP3   OH254443   4.955   0.516   0.915  0.4294 -0.4791  0.4917
10083TIP3    H154444   4.878   0.560   0.878  1.2389  0.0888 -0.5862
10083TIP3    H254445   4.955   0.430   0.875  0.4183 -0.4377  0.4020
10084TIP3   OH254446   4.440   4.003   3.477  0.6490 -0.1403  0.4100
10084TIP3    H154447   4.356   3.991   3.520  0.5471  0.8567  0.5289
10084TIP3    H254448   4.421   3.997   3.383  0.7026 -1.3456  0.4696
10085TIP3   OH254449   0.196   5.749   2.944 -0.5149  0.0538 -0.3083
10085TIP3    H154450   0.164   5.715   3.027  1.1282  1.4683  0.9965
10085TIP3    H254451   0.278   5.701   2.929 -0.6048  0.0846 -0.9212
10086TIP3   OH254452   4.599   1.829   1.743 -0.1096  0.1096 -0.0438
10086TIP3    H154453   4.542   1.805   1.670 -0.2646  0.5618 -0.0753
10086TIP3    H254454   4.673   1.874   1.702 -0.0989  0.1878  0.0596
10087TIP3   OH254455   2.186   3.884   1.780  0.1809 -0.1193  0.3760
10087TIP3    H154456   2.092   3.868   1.771  0.3393 -0.3853 -1.1217
10087TIP3    H254457   2.204   3.957   1.720  1.0577 -0.6107  0.0154
10088TIP3   OH254458   6.190   6.499   1.982  0.6568 -0.5193 -0.0790
10088TIP3    H154459   6.148   6.423   2.023 -1.5414  0.3986 -0.4863
10088TIP3    H254460   6.282   6.475   1.976  0.1289 -2.9159  0.3167
10089TIP3   OH254461   1.057   5.884   2.545  0.5460 -0.3104 -0.5599
10089TIP3    H154462   0.985   5.943   2.566  0.2950 -0.6288 -0.5199
10089TIP3    H254463   1.132   5.919   2.594  0.3024 -0.2530 -0.2263
10090TIP3   OH254464   6.083   3.177   1.297  0.1054 -0.6056 -0.1604
10090TIP3    H154465   6.099   3.084   1.276  0.2023 -0.5411 -0.3714
10090TIP3    H254466   6.004   3.176   1.351 -0.0579 -0.7857 -0.3985
10091TIP3   OH254467   0.023   3.450   2.824 -0.0509  0.1300 -0.5537
10091TIP3    H154468   0.050   3.540   2.843 -0.5482  0.4581 -1.3639
10091TIP3    H254469  -0.041   3.429   2.892  3.4321 -1.3469  2.6350
10092TIP3   OH254470   6.261   4.303   2.583  0.0747  0.6228  0.0211
10092TIP3    H154471   6.193   4.356   2.624 -0.0229 -1.2508  2.4456
10092TIP3    H254472   6.323   4.285   2.653  2.3000  0.9348 -1.7384
10093TIP3   OH254473   3.444   2.521   2.910 -0.2309  0.7907 -0.3848
10093TIP3    H154474   3.350   2.532   2.901 -0.3388 -0.9440 -1.9284
10093TIP3    H254475   3.477   2.609   2.928 -1.9059  1.8087 -2.0034
10094TIP3   OH254476   1.803   3.946   1.298 -0.4642 -0.4208 -0.2225
10094TIP3    H154477   1.882   3.972   1.344 -1.1045  1.1045  0.0605
10094TIP3    H254478   1.830   3.935   1.207  0.0174  0.3520 -0.1736
10095TIP3   OH254479   0.566   6.602   1.563 -0.5101  0.5204 -0.6751
10095TIP3    H154480   0.483   6.609   1.517 -0.5831 -0.3500 -0.7020
10095TIP3    H254481   0.586   6.691   1.591 -1.0355  0.8721 -1.3893
10096TIP3   OH254482   1.672   5.386   0.600 -0.2450  0.2049 -0.0389
10096TIP3    H154483   1.609   5.447   0.561 -0.5193 -0.0400  0.0117
10096TIP3    H254484   1.724   5.439   0.660  2.0437  1.2256 -2.7017
10097TIP3   OH254485   0.232   2.338   2.293 -0.1678  0.2070  0.0222
10097TIP3    H154486   0.259   2.250   2.319 -2.5732 -1.1356 -1.6654
10097TIP3    H254487   0.148   2.351   2.338  0.1881  1.7176  0.3113
10098TIP3   OH254488   6.015   2.603   0.634 -0.2732 -0.6177  0.5414
10098TIP3    H154489   5.939   2.551   0.659 -1.7865  0.6265 -1.1883
10098TIP3    H254490   6.013   2.603   0.538  2.2505 -0.9671  0.4278
10099TIP3   OH254491   1.174   0.080   0.571 -0.6689  0.1401 -0.7658
10099TIP3    H154492   1.189   0.172   0.548 -3.3909  1.3235  1.6111
10099TIP3    H254493   1.093   0.057   0.526  0.3224 -1.3796 -1.8636
10100TIP3   OH254494   6.000   5.074   2.167 -0.4100 -0.7549 -0.2252
10100TIP3    H154495   6.008   5.095   2.074  0.7368  0.1759  0.0489
10100TIP3    H254496   5.930   5.131   2.199 -0.6194 -0.8812 -0.4564
10101TIP3   OH254497   3.862   3.075   2.417  0.0680 -0.3364 -0.4116
10101TIP3    H154498   3.809   2.996   2.428 -0.4579  0.0818  0.1999
10101TIP3    H254499   3.943   3.045   2.376  0.5560 -1.4472  1.2548
10102TIP3   OH254500   2.821   3.198   1.126 -0.3081 -0.0338 -0.3778
10102TIP3    H154501   2.876   3.184   1.049 -0.2872 -1.9521 -0.0448
10102TIP3    H254502   2.864   3.149   1.196  0.4388  2.7457  1.2907
10103TIP3   OH254503   0.557   6.623   2.572 -0.1401  0.4213  0.1401
10103TIP3    H154504   0.495   6.574   2.518  0.9299 -0.0675 -0.6889
10103TIP3    H254505   0.631   6.564   2.583  1.3332  1.9053 -1.1477
10104TIP3   OH254506   2.485   4.322   1.455 -0.3374  0.5186  0.1018
10104TIP3    H154507   2.414   4.354   1.399 -0.8235 -1.1427 -0.2656
10104TIP3    H254508   2.442   4.296   1.537  0.0465  0.6983  0.3694
10105TIP3   OH254509   6.475   4.495   1.068 -0.0249  0.6501  0.0095
10105TIP3    H154510   6.413   4.561   1.099  1.2553  1.6128  0.6201
10105TIP3    H254511   6.500   4.524   0.980 -1.3904 -0.4521 -0.7786
10106TIP3   OH254512   4.493   0.241   1.375 -0.5118  0.7489  0.3074
10106TIP3    H154513   4.556   0.313   1.375 -0.0548  0.3821 -1.2427
10106TIP3    H254514   4.489   0.213   1.466  0.7866  1.4568  0.6080
10107TIP3   OH254515   5.563   5.178   2.011  0.8384  0.5318  0.1939
10107TIP3    H154516   5.601   5.187   1.924  1.1945  0.3511  0.3298
10107TIP3    H254517   5.562   5.267   2.046 -0.2260  0.7579 -0.3737
10108TIP3   OH254518   5.763   1.757   2.698 -0.5655 -0.2073  0.1593
10108TIP3    H154519   5.820   1.823   2.739  0.3717 -0.2095 -1.0562
10108TIP3    H254520   5.684   1.805   2.673 -0.5524  0.0978  0.6995
10109TIP3   OH254521   4.559   5.865   0.655 -0.3910 -0.4758 -0.0800
10109TIP3    H154522   4.557   5.769   0.650 -1.1460 -0.5270  1.0589
10109TIP3    H254523   4.570   5.884   0.748  4.6196  0.5111 -0.5835
10110TIP3   OH254524   5.891   6.136   0.335  0.1349 -0.4799 -0.3873
10110TIP3    H154525   5.842   6.152   0.254 -1.3893  1.0786  0.7595
10110TIP3    H254526   5.952   6.209   0.342  0.3248 -0.6558 -0.1930
10111TIP3   OH254527   4.498   5.645   2.936  0.0782 -0.2270 -0.2968
10111TIP3    H154528   4.593   5.630   2.936  0.0747 -1.7829 -4.5902
10111TIP3    H254529   4.461   5.566   2.975  0.5222 -0.2607  0.0599
10112TIP3   OH254530   1.651   5.030   1.105 -0.7400 -0.0581 -0.5401
10112TIP3    H154531   1.607   4.987   1.178 -1.7046 -0.8873 -1.5799
10112TIP3    H254532   1.699   4.960   1.061  2.6636  0.9689  1.1765
10113TIP3   OH254533   3.063   7.419   3.171  0.3165 -0.0650  0.4630
10113TIP3    H154534   2.971   7.442   3.180  0.7905  2.9207 -1.0223
10113TIP3    H254535   3.084   7.438   3.079  3.1360  2.7385  1.5127
10114TIP3   OH254536   2.120   4.747   0.661 -0.4707 -0.1832 -0.1191
10114TIP3    H154537   2.125   4.756   0.565  1.5601  0.8622  0.0356
10114TIP3    H254538   2.198   4.698   0.685 -1.5141 -1.3975  0.9566
10115TIP3   OH254539   6.685   6.288   0.783  0.2560 -0.1907 -0.0463
10115TIP3    H154540   6.772   6.255   0.761  0.1424 -0.7158  0.2750
10115TIP3    H254541   6.678   6.274   0.878 -0.4726 -0.8683 -0.1945
10116TIP3   OH254542   0.461   4.401   2.230  0.2384 -0.1610  0.0779
10116TIP3    H154543   0.533   4.410   2.168  0.6743  0.8555  0.7041
10116TIP3    H254544   0.454   4.488   2.271  0.1713 -0.8851  1.6704
10117TIP3   OH254545   5.297   2.704   1.676  0.1047 -0.1361 -0.1937
10117TIP3    H154546   5.237   2.738   1.743  1.1282  2.0922 -0.3333
10117TIP3    H254547   5.356   2.647   1.725 -0.6517 -0.4635  0.3635
10118TIP3   OH254548   1.203   4.804   3.526  0.1926 -0.0395  0.2433
10118TIP3    H154549   1.121   4.791   3.479 -0.5763  2.5712  0.7281
10118TIP3    H254550   1.187   4.768   3.613 -1.2321  2.2672  1.0027
10119TIP3   OH254551   1.156   2.059   2.158 -0.4415 -0.4369 -0.4682
10119TIP3    H154552   1.180   2.057   2.066 -0.3375  0.2668 -0.4595
10119TIP3    H254553   1.233   2.096   2.202 -1.1096  0.8054 -0.3063
10120TIP3   OH254554   2.410   1.994   1.650  0.0060  0.1026  0.4352
10120TIP3    H154555   2.324   2.033   1.663 -0.1135  0.1570 -0.4568
10120TIP3    H254556   2.471   2.059   1.685 -0.2324  0.7971 -0.3809
10121TIP3   OH254557   6.065   6.790   2.156 -0.1020  0.0241  0.1232
10121TIP3    H154558   6.026   6.819   2.239 -2.7326  0.6766 -1.2370
10121TIP3    H254559   6.054   6.694   2.157 -0.6377  0.0819  0.3055
10122TIP3   OH254560   7.274   3.379   1.323 -0.5621  0.2581  0.5686
10122TIP3    H154561   7.283   3.284   1.312 -0.4251  0.3135  0.1629
10122TIP3    H254562   7.356   3.414   1.288 -0.6277  0.5283  0.6857
10123TIP3   OH254563   6.132   2.933   0.647  0.4339 -0.7770 -0.4826
10123TIP3    H154564   6.164   2.974   0.566  2.4629 -0.3346  0.4933
10123TIP3    H254565   6.081   2.858   0.616 -0.2734  0.3423 -2.2070
10124TIP3   OH254566   5.263   0.029   2.490  0.6015 -0.6186  0.0320
10124TIP3    H154567   5.254  -0.061   2.520  1.2053 -0.2754  1.2881
10124TIP3    H254568   5.291   0.021   2.398  2.1829 -1.7249  0.5699
10125TIP3   OH254569   2.307   4.528   1.048 -0.8947  0.0246  0.0994
10125TIP3    H154570   2.380   4.467   1.052 -1.4375 -0.7323 -0.9922
10125TIP3    H254571   2.346   4.611   1.020 -0.5064 -0.4609 -0.8150
10126TIP3   OH254572   2.132   0.169   2.040  0.2228 -0.3890  0.1095
10126TIP3    H154573   2.063   0.234   2.033  0.2726 -0.2280  1.0145
10126TIP3    H254574   2.193   0.191   1.969  0.8223  1.2590  1.0968
10127TIP3   OH254575   5.670   0.833   0.671  0.0534 -0.0036  0.1005
10127TIP3    H154576   5.604   0.902   0.670 -0.3511 -0.3790 -1.1145
10127TIP3    H254577   5.640   0.772   0.739  1.3906  1.8722  2.5125
10128TIP3   OH254578   2.756   2.682   2.277 -0.2930 -0.4736 -0.6554
10128TIP3    H154579   2.686   2.665   2.215 -0.8544 -1.8823  0.3240
10128TIP3    H254580   2.784   2.596   2.307 -0.1422  0.1626  1.1670
10129TIP3   OH254581   1.393   4.377   1.104  0.1445 -0.4257 -0.0493
10129TIP3    H154582   1.339   4.319   1.157  1.5834 -0.7696  1.0784
10129TIP3    H254583   1.346   4.461   1.105 -0.2770 -0.6674  1.0544
10130TIP3   OH254584   6.911   0.253   2.048 -0.3392 -0.2747  0.5514
10130TIP3    H154585   6.900   0.165   2.012 -2.1170 -0.6926  2.0150
10130TIP3    H254586   7.003   0.256   2.076  0.4691 -0.7056 -1.8409
10131TIP3   OH254587   6.152   7.020   2.598 -0.1436  0.1362 -0.2288
10131TIP3    H154588   6.215   7.059   2.537 -0.4941 -0.2715 -0.8666
10131TIP3    H254589   6.070   7.067   2.580 -0.2226  0.0830 -0.0035
10132TIP3   OH254590   4.704   2.912   0.608  0.1184  0.1123 -0.4672
10132TIP3    H154591   4.750   2.905   0.692 -0.6617 -0.0940 -0.0468
10132TIP3    H254592   4.727   2.832   0.561  2.1278  1.1187 -1.2710
10133TIP3   OH254593   1.410   6.635   1.845  0.2861  0.2343  0.0026
10133TIP3    H154594   1.345   6.644   1.914  1.7674  1.2821  1.3304
10133TIP3    H254595   1.494   6.627   1.891  1.0816 -2.0102 -1.6079
10134TIP3   OH254596   7.283   0.853   1.167 -0.0240  0.4600 -0.1203
10134TIP3    H154597   7.378   0.843   1.176 -0.0558  0.1011 -0.1684
10134TIP3    H254598   7.251   0.860   1.257 -0.0658 -0.5097 -0.0548
10135TIP3   OH254599   0.519   0.387   2.024  0.3175 -0.3303  0.3879
10135TIP3    H154600   0.460   0.326   2.068 -0.0914 -0.7381 -0.6958
10135TIP3    H254601   0.522   0.463   2.082 -1.9942  0.0778  0.0734
10136TIP3   OH254602   6.657   3.372   1.000  0.2123  0.2468 -0.3249
10136TIP3    H154603   6.710   3.437   0.954  1.2264 -0.5028 -0.2492
10136TIP3    H254604   6.626   3.417   1.078  0.8057  0.6853 -0.3389
10137TIP3   OH254605   2.957   7.417   2.456  0.2323 -0.5676 -0.2053
10137TIP3    H154606   2.971   7.438   2.364 -1.1788  0.1060 -0.2813
10137TIP3    H254607   3.001   7.332   2.468  3.6333  0.9574 -0.5691
10138TIP3   OH254608   4.422   0.295   3.201  0.1493 -0.6144  0.6992
10138TIP3    H154609   4.354   0.343   3.249  0.2762 -0.1777  0.4461
10138TIP3    H254610   4.492   0.359   3.189 -1.3439  0.4945 -3.3821
10139TIP3   OH254611   4.135   6.757   1.027  0.1814  0.1485  0.6844
10139TIP3    H154612   4.044   6.785   1.022  0.3213  0.8475  1.6931
10139TIP3    H254613   4.175   6.791   0.947 -0.9526 -2.3213 -1.0609
10140TIP3   OH254614   1.905   5.295   2.057 -0.3766 -0.2444 -0.1345
10140TIP3    H154615   1.929   5.364   2.119  1.2568 -1.3613  0.5712
10140TIP3    H254616   1.973   5.300   1.990  0.3024 -1.7163  0.4099
10141TIP3   OH254617   6.294   7.266   0.478  0.3707 -0.6827  0.5521
10141TIP3    H154618   6.274   7.353   0.445  1.5539 -0.5327  0.1598
10141TIP3    H254619   6.221   7.211   0.448 -0.2365  0.1109  0.5598
10142TIP3   OH254620   5.644   1.385   1.116  0.4983 -0.1215 -0.2422
10142TIP3    H154621   5.693   1.465   1.134 -0.1719  0.3265 -0.3416
10142TIP3    H254622   5.677   1.321   1.179 -0.7180  0.9685  1.6033
10143TIP3   OH254623   6.665   2.842   1.165 -0.1573  0.3046  0.2481
10143TIP3    H154624   6.660   2.748   1.144 -1.3746  0.6669 -1.2719
10143TIP3    H254625   6.577   2.864   1.195 -0.3513  1.2690 -0.9545
10144TIP3   OH254626   3.228   1.239   1.513 -0.0302  0.1519  0.4245
10144TIP3    H154627   3.299   1.184   1.546  0.2231 -0.3677 -0.8944
10144TIP3    H254628   3.180   1.266   1.591  0.8309 -0.5834  1.2376
10145TIP3   OH254629   4.159   6.686   2.519 -0.0584  0.3853  0.3215
10145TIP3    H154630   4.115   6.619   2.467  0.2284  1.2828 -1.1283
10145TIP3    H254631   4.199   6.637   2.592 -1.7641 -0.6952  0.5804
10146TIP3   OH254632   7.479   2.063   2.173 -0.2152  0.1367 -0.3950
10146TIP3    H154633   7.458   2.156   2.178 -0.2453  0.1026  0.2833
10146TIP3    H254634   7.542   2.056   2.101 -0.2972  0.6656 -0.5212
10147TIP3   OH254635   4.283   6.121   0.986 -0.0577  0.1821 -0.2014
10147TIP3    H154636   4.324   6.182   1.048 -0.5615  1.1533 -0.8014
10147TIP3    H254637   4.238   6.058   1.041 -1.1135  1.4504  0.4436
10148TIP3   OH254638   3.686   4.452   3.146 -0.2467  0.3046  0.4647
10148TIP3    H154639   3.700   4.412   3.060  2.0001  0.0929  0.8499
10148TIP3    H254640   3.699   4.545   3.131 -1.5692  0.4800  0.2924
10149TIP3   OH254641   0.428   7.320   1.559  0.2125 -0.1707 -0.1916
10149TIP3    H154642   0.367   7.341   1.630  0.5955  0.6502 -0.0916
10149TIP3    H254643   0.401   7.376   1.486  0.7390  0.0859 -0.1965
10150TIP3   OH254644   2.813   3.368   0.782 -0.1985 -0.1004 -0.2361
10150TIP3    H154645   2.726   3.375   0.821  0.4161  0.4701  1.1173
10150TIP3    H254646   2.804   3.408   0.696 -1.2946 -0.1506 -0.1637
10151TIP3   OH254647   1.826   3.791   0.734  0.2817  0.3858  0.4108
10151TIP3    H154648   1.777   3.757   0.808 -2.6717  0.7947 -1.1814
10151TIP3    H254649   1.828   3.886   0.748 -1.0203  0.5502 -0.3847
10152TIP3   OH254650   7.053   0.120   2.360  0.5124  1.0467 -0.1860
10152TIP3    H154651   6.994   0.055   2.321 -0.2345  1.4285  0.2756
10152TIP3    H254652   7.004   0.154   2.435  0.9872  1.9796 -0.2924
10153TIP3   OH254653   4.788   3.644   1.514 -0.4414  0.2555 -0.0072
10153TIP3    H154654   4.727   3.708   1.477  0.4210  0.5115 -1.0242
10153TIP3    H254655   4.842   3.696   1.574 -1.8242 -0.1550  1.6616
10154TIP3   OH254656   1.789   5.204   0.935  0.0251 -0.5772  0.1941
10154TIP3    H154657   1.876   5.164   0.934 -0.1224 -0.8959 -0.0103
10154TIP3    H254658   1.744   5.161   1.009  0.1370 -0.2052  0.4801
10155TIP3   OH254659   0.528   6.325   1.604 -0.2555  0.1111 -0.2685
10155TIP3    H154660   0.515   6.419   1.614 -0.2466 -0.0458  1.4831
10155TIP3    H254661   0.551   6.314   1.512 -0.5204  1.7814 -0.5719
10156TIP3   OH254662   5.755   2.086   1.344 -0.0752  0.0427  0.9175
10156TIP3    H154663   5.842   2.055   1.319 -0.1560  0.9292 -0.5909
10156TIP3    H254664   5.698   2.058   1.272 -0.7042  0.9643  1.0409
10157TIP3   OH254665   1.892   7.453   0.466 -0.0945 -0.4208  0.0411
10157TIP3    H154666   1.849   7.513   0.405  0.9640 -0.6072 -0.9136
10157TIP3    H254667   1.914   7.507   0.542 -1.1072 -0.1099  0.1361
10158TIP3   OH254668   2.793   2.476   1.747 -0.6531  0.1938 -0.7288
10158TIP3    H154669   2.787   2.453   1.840 -1.2884 -0.9901 -1.0406
10158TIP3    H254670   2.862   2.420   1.712  0.6078  1.6722 -0.6969
10159TIP3   OH254671   3.164   4.702   2.331  0.3546  0.4561  0.4118
10159TIP3    H154672   3.241   4.716   2.386  0.8166 -0.6693  0.0645
10159TIP3    H254673   3.126   4.789   2.321  1.0240  0.8758  1.3994
10160TIP3   OH254674   5.407   6.377   3.267  0.3446 -0.0078  0.0009
10160TIP3    H154675   5.348   6.302   3.278  0.1510  0.2380  0.6461
10160TIP3    H254676   5.350   6.447   3.234 -0.2798  0.9823  2.9480
10161TIP3   OH254677   0.539   2.607   1.947  0.3440  0.0492  0.0300
10161TIP3    H154678   0.607   2.668   1.920  0.0607  0.1245 -0.5337
10161TIP3    H254679   0.571   2.521   1.919 -0.0323  0.1488 -0.7290
10162TIP3   OH254680   2.084   2.290   1.180 -1.0964  0.1081 -0.7632
10162TIP3    H154681   2.057   2.359   1.240 -0.2565 -0.4799  0.3423
10162TIP3    H254682   2.004   2.243   1.158 -1.5161  0.7925 -0.6985
10163TIP3   OH254683   3.447   3.881   2.599 -0.2475  0.3771  0.7851
10163TIP3    H154684   3.495   3.826   2.660  0.6170  0.6233  0.3458
10163TIP3    H254685   3.453   3.834   2.515 -1.1942  0.1703  0.8235
10164TIP3   OH254686   5.669   1.579   2.470  0.6658 -0.5115 -0.2796
10164TIP3    H154687   5.704   1.643   2.533  1.1581 -1.6316  0.6162
10164TIP3    H254688   5.583   1.614   2.446  0.5647  0.0597  0.8563
10165TIP3   OH254689   7.330   1.944   0.543 -0.5404  0.6147  0.2750
10165TIP3    H154690   7.300   1.862   0.503 -0.5279 -0.2400  1.9525
10165TIP3    H254691   7.304   2.012   0.480 -0.6208 -0.6437 -1.1182
10166TIP3   OH254692   3.102   5.369   1.175 -0.2251  0.6707  0.2446
10166TIP3    H154693   3.189   5.406   1.163 -0.1328  0.2750 -0.3292
10166TIP3    H254694   3.044   5.426   1.124  0.1798 -1.0705 -2.3814
10167TIP3   OH254695   1.561   3.149   2.069  0.3715 -0.4179 -0.1770
10167TIP3    H154696   1.595   3.144   2.159  0.0971  0.8310  0.0059
10167TIP3    H254697   1.473   3.113   2.075  0.5113 -0.7474 -0.0411
10168TIP3   OH254698   2.606   0.224   3.158 -0.5802  0.6318 -0.6031
10168TIP3    H154699   2.608   0.311   3.198  0.9620  0.4206 -0.1846
10168TIP3    H254700   2.514   0.197   3.166 -1.0061  2.0696 -0.4279
10169TIP3   OH254701   4.443   1.863   2.405 -0.5282  0.1757  0.0722
10169TIP3    H154702   4.464   1.955   2.425 -0.3741  0.2212 -0.3003
10169TIP3    H254703   4.404   1.830   2.486 -0.6818  0.5987  0.1755
10170TIP3   OH254704   1.378   4.292   2.462 -0.0607  0.1285 -0.0838
10170TIP3    H154705   1.361   4.247   2.545 -1.3198  0.3573 -0.2051
10170TIP3    H254706   1.433   4.367   2.487 -1.1385  0.6917  0.6948
10171TIP3   OH254707   6.345   3.648   0.522 -0.1438 -0.5616 -0.3844
10171TIP3    H154708   6.350   3.597   0.603  0.9937  0.8287  0.4598
10171TIP3    H254709   6.307   3.732   0.549  0.9606  0.1949 -1.1309
10172TIP3   OH254710   5.888   6.558   1.284  0.0740  0.1203  0.4342
10172TIP3    H154711   5.932   6.477   1.258  0.1552  0.0247  0.8675
10172TIP3    H254712   5.800   6.550   1.246 -0.5557 -1.0257  2.0045
10173TIP3   OH254713   0.547   4.631   0.978 -0.6174 -0.0099  0.0585
10173TIP3    H154714   0.482   4.637   1.048 -0.3868  1.2620  0.1887
10173TIP3    H254715   0.567   4.722   0.956  2.4474 -0.2638  1.2735
10174TIP3   OH254716   1.656   0.321   2.461  0.2510  0.5653  0.1060
10174TIP3    H154717   1.588   0.326   2.528 -2.0999 -1.8130 -1.8377
10174TIP3    H254718   1.716   0.253   2.493 -1.3687 -1.2401 -0.4620
10175TIP3   OH254719   5.972   5.989   3.152  0.3216 -0.7092 -0.0112
10175TIP3    H154720   6.044   5.951   3.203  0.1853 -1.1346 -0.1265
10175TIP3    H254721   5.914   5.915   3.136  0.5084 -0.6451 -1.0278
10176TIP3   OH254722   3.465   2.665   2.063  0.0368 -0.0396  0.4034
10176TIP3    H154723   3.485   2.744   2.114  1.8125  0.2536 -0.6761
10176TIP3    H254724   3.533   2.603   2.089  1.8893  0.5794 -2.5133
10177TIP3   OH254725   2.699   5.608   1.531  0.4063 -0.0576 -0.2039
10177TIP3    H154726   2.733   5.646   1.612  1.2091  0.2037 -0.6427
10177TIP3    H254727   2.777   5.596   1.477  0.1271 -2.0511 -0.2118
10178TIP3   OH254728   4.836   0.129   3.436 -0.0215  0.6884 -0.6095
10178TIP3    H154729   4.797   0.216   3.434 -0.9606  0.3116  0.3587
10178TIP3    H254730   4.913   0.139   3.493 -0.5196  0.7446  0.0688
10179TIP3   OH254731   4.848   5.158   2.387 -0.4334  0.7979  0.3555
10179TIP3    H154732   4.823   5.139   2.297 -0.4808 -1.7830  0.8392
10179TIP3    H254733   4.859   5.253   2.389 -0.6056  0.9549 -2.3037
10180TIP3   OH254734   3.294   6.377   1.296  0.1629  0.1902 -0.1955
10180TIP3    H154735   3.226   6.440   1.319 -0.6874 -0.0223 -2.0127
10180TIP3    H254736   3.275   6.300   1.350 -0.4149  0.5029  0.0551
10181TIP3   OH254737   5.657   4.785   0.710 -0.1272 -0.1447 -0.0834
10181TIP3    H154738   5.731   4.842   0.727 -0.5776  0.2258  0.7085
10181TIP3    H254739   5.663   4.717   0.778 -0.8919  0.2804  0.4254
10182TIP3   OH254740   3.142   6.011   3.479 -0.1897 -0.5539  0.1212
10182TIP3    H154741   3.174   6.037   3.393 -0.3138  0.6814  0.4265
10182TIP3    H254742   3.167   6.084   3.537  0.3074 -1.5601  1.2239
10183TIP3   OH254743   0.324   2.359   1.873  0.0619 -0.2928  0.0605
10183TIP3    H154744   0.382   2.417   1.825 -1.0237  1.2837  0.5648
10183TIP3    H254745   0.371   2.338   1.953  0.2937  0.2321  0.0635
10184TIP3   OH254746   6.103   0.756   1.493 -0.5477 -0.3049 -0.7726
10184TIP3    H154747   6.169   0.794   1.435  1.5222 -0.0233  1.5765
10184TIP3    H254748   6.029   0.817   1.490  1.0580  1.7632 -0.2325
10185TIP3   OH254749   6.188   4.713   2.067  0.1225 -0.3584  0.3769
10185TIP3    H154750   6.210   4.711   2.160 -1.2526  1.9289  0.8284
10185TIP3    H254751   6.224   4.796   2.036 -0.5707 -0.4822 -0.8184
10186TIP3   OH254752   1.385   7.313   0.847  0.0394 -0.2888  0.1887
10186TIP3    H154753   1.353   7.345   0.762 -0.0600 -0.8060  0.0313
10186TIP3    H254754   1.467   7.269   0.826 -0.1690 -0.7354  0.3120
10187TIP3   OH254755   7.147   0.764   0.672 -0.6115 -0.3658 -0.2402
10187TIP3    H154756   7.104   0.700   0.615 -2.4239  0.8955 -0.3527
10187TIP3    H254757   7.173   0.713   0.749 -0.4313 -1.5772 -1.0693
10188TIP3   OH254758   6.052   0.260   2.948  0.2439 -0.1896  0.1592
10188TIP3    H154759   6.068   0.194   2.880  1.4211 -0.3386  0.5672
10188TIP3    H254760   5.967   0.235   2.985 -0.3437 -0.2053 -1.1258
10189TIP3   OH254761   3.923   5.386   1.071  0.1192 -0.0596 -0.2926
10189TIP3    H154762   3.937   5.383   0.977 -0.8791 -1.0383 -0.4292
10189TIP3    H254763   3.890   5.474   1.088 -2.5711 -0.7940 -1.3097
10190TIP3   OH254764   0.345   0.242   1.565 -0.0782  0.3960 -0.4335
10190TIP3    H154765   0.364   0.270   1.475 -0.2561 -1.4738 -1.0883
10190TIP3    H254766   0.257   0.206   1.561  0.4618 -1.0443  0.1570
10191TIP3   OH254767   2.510   6.515   1.515 -0.0804 -0.2975 -0.0360
10191TIP3    H154768   2.596   6.506   1.556  0.2010  1.2035 -0.2351
10191TIP3    H254769   2.449   6.518   1.588  0.1303 -0.5175  0.1498
10192TIP3   OH254770   2.224   3.309   2.597  0.0826 -1.3170 -0.5176
10192TIP3    H154771   2.151   3.367   2.575  0.1557 -1.5530 -1.4208
10192TIP3    H254772   2.185   3.239   2.649  0.1973  0.1857  1.7513
10193TIP3   OH254773   2.676   3.878   1.799 -0.7403 -0.8081 -0.3810
10193TIP3    H154774   2.718   3.860   1.883  1.7247 -1.6270 -1.6779
10193TIP3    H254775   2.685   3.972   1.787  0.1339 -0.8758 -0.3082
10194TIP3   OH254776   5.697   0.527   1.796  0.0388  0.0860 -0.2393
10194TIP3    H154777   5.752   0.450   1.783 -0.1871 -0.0438 -0.4446
10194TIP3    H254778   5.740   0.596   1.744 -0.6339 -0.3265 -1.3890
10195TIP3   OH254779   5.761   2.621   1.756  0.3469  0.1809  0.1256
10195TIP3    H154780   5.766   2.655   1.667  0.4744  0.0976  0.0995
10195TIP3    H254781   5.714   2.688   1.805  0.3879  0.2851  0.0237
10196TIP3   OH254782   2.980   6.710   2.319  0.0476  0.5674 -0.3371
10196TIP3    H154783   3.054   6.754   2.278  0.4539 -1.0560 -1.4263
10196TIP3    H254784   2.993   6.617   2.300 -0.7829 -0.0716  1.8642
10197TIP3   OH254785   5.837   4.606   2.571  0.4731  0.4985  0.5579
10197TIP3    H154786   5.893   4.543   2.616  0.4705  0.4678  0.5185
10197TIP3    H254787   5.880   4.691   2.584 -0.3438  0.7321  1.9775
10198TIP3   OH254788   2.720   5.321   3.076  0.3769  0.2682 -0.2308
10198TIP3    H154789   2.792   5.385   3.072 -0.4277  1.1900 -0.2137
10198TIP3    H254790   2.692   5.324   3.168 -0.4485  0.7870 -0.4898
10199TIP3   OH254791   6.665   7.009   2.545 -0.4000  0.1052 -0.0375
10199TIP3    H154792   6.636   6.984   2.633  1.7575  0.3954  0.8314
10199TIP3    H254793   6.725   7.081   2.560 -0.4980  0.5975 -1.8392
10200TIP3   OH254794   0.732   6.545   2.166  0.1718 -0.1132 -0.0839
10200TIP3    H154795   0.763   6.620   2.218  1.3025 -0.1145 -0.7343
10200TIP3    H254796   0.679   6.494   2.228 -0.6599  1.2322  0.3591
10201TIP3   OH254797   1.383   4.904   2.667  0.4427  0.5502 -0.2821
10201TIP3    H154798   1.339   4.989   2.673  1.1293  0.9139 -0.3364
10201TIP3    H254799   1.466   4.923   2.623  0.4966 -0.1889 -0.5123
10202TIP3   OH254800   0.467   4.084   3.340  0.2206  0.5139 -0.3541
10202TIP3    H154801   0.426   4.145   3.278 -1.0462  0.0791  0.0228
10202TIP3    H254802   0.463   4.128   3.424 -3.0137 -0.9626  0.4390
10203TIP3   OH254803   3.325   1.587   1.523  0.0986  0.0863 -0.4346
10203TIP3    H154804   3.386   1.518   1.550  0.7647 -0.2515 -2.6395
10203TIP3    H254805   3.356   1.665   1.571  0.3747 -0.7352  0.7772
10204TIP3   OH254806   3.252   2.270   0.790 -0.0211 -0.6417 -0.2731
10204TIP3    H154807   3.158   2.255   0.794  0.3908 -3.7782  0.3762
10204TIP3    H254808   3.278   2.239   0.703  0.6066 -1.4882  0.1975
10205TIP3   OH254809   7.484   5.292   1.687 -0.3292  0.6327 -0.6106
10205TIP3    H154810   7.423   5.268   1.757  0.0273  1.7189  0.0959
10205TIP3    H254811   7.475   5.387   1.679 -0.2992  0.5433 -1.9974
10206TIP3   OH254812   3.348   0.097   2.336 -0.0073 -0.2631 -0.2172
10206TIP3    H154813   3.317   0.007   2.347  0.3989 -0.3223  0.5023
10206TIP3    H254814   3.299   0.147   2.401  0.3590 -0.1074 -0.0605
10207TIP3   OH254815   6.066   4.243   0.983  0.4700 -0.0665 -0.5586
10207TIP3    H154816   6.067   4.206   1.071  0.4745  0.9530 -0.1085
10207TIP3    H254817   5.979   4.223   0.950  0.6027 -0.8008 -0.4806
10208TIP3   OH254818   0.592   5.068   1.324  0.5349 -0.3831 -0.0379
10208TIP3    H154819   0.592   5.143   1.384  0.2627 -0.3580 -0.0725
10208TIP3    H254820   0.586   4.991   1.382  0.0762 -0.3521 -0.0434
10209TIP3   OH254821   5.674   2.403   2.692  0.0165  0.9697 -0.1175
10209TIP3    H154822   5.581   2.396   2.713  0.5757  0.1904  2.4965
10209TIP3    H254823   5.708   2.469   2.751  1.2942  0.6062 -0.3992
10210TIP3   OH254824   5.555   2.224   0.947 -0.6748 -0.1205  0.6288
10210TIP3    H154825   5.479   2.228   0.889 -0.4246  0.1533  0.3213
10210TIP3    H254826   5.592   2.312   0.944  0.1653 -0.4817  0.0979
10211TIP3   OH254827   1.623   6.561   1.987 -0.0491  0.0733  0.3590
10211TIP3    H154828   1.573   6.495   2.036  0.2967  0.4624  1.2734
10211TIP3    H254829   1.658   6.619   2.055  1.4524 -0.0556 -0.2687
10212TIP3   OH254830   5.336   3.155   2.513  0.0971 -0.0059  0.2327
10212TIP3    H154831   5.340   3.230   2.572 -0.0531  0.0265  0.2029
10212TIP3    H254832   5.408   3.169   2.452 -0.2253  0.3647 -0.0680
10213TIP3   OH254833   3.109   6.896   0.612 -0.5134  0.4328 -0.3755
10213TIP3    H154834   3.187   6.843   0.600 -0.5099  0.3449  0.0057
10213TIP3    H254835   3.133   6.959   0.680 -0.3184  1.3315 -1.2567
10214TIP3   OH254836   4.988   0.656   2.118  0.0775  0.3153 -0.1419
10214TIP3    H154837   4.968   0.684   2.029 -0.4835  0.8898  0.1570
10214TIP3    H254838   4.902   0.639   2.158  0.3748 -1.5387 -0.2058
10215TIP3   OH254839   5.412   7.019   2.299  0.1992  0.1595 -0.1891
10215TIP3    H154840   5.445   6.960   2.367 -0.2434  1.9076  1.6286
10215TIP3    H254841   5.480   7.086   2.292 -1.0381  1.5605  0.6608
10216TIP3   OH254842   7.177   3.718   2.542  0.5829  0.1401 -0.2422
10216TIP3    H154843   7.212   3.629   2.528  2.6593  0.8005  0.3527
10216TIP3    H254844   7.173   3.727   2.637 -2.4870 -0.2869 -0.2194
10217TIP3   OH254845   3.683   7.148   1.779 -0.0168 -0.4627 -0.5397
10217TIP3    H154846   3.631   7.222   1.808 -0.4517 -0.6991 -0.7045
10217TIP3    H254847   3.753   7.140   1.844 -0.2170 -0.1779 -0.2900
10218TIP3   OH254848   2.346   2.979   1.546  0.3215 -0.4702 -0.0409
10218TIP3    H154849   2.273   3.028   1.584 -1.3634 -1.3265 -1.9971
10218TIP3    H254850   2.397   3.045   1.499  0.4318  0.0349  0.7714
10219TIP3   OH254851   5.539   4.900   2.023  0.2337 -0.5322 -0.4458
10219TIP3    H154852   5.524   4.994   2.018 -0.3630 -0.5878  0.1461
10219TIP3    H254853   5.571   4.876   1.936 -2.7252 -0.3382 -1.7107
10220TIP3   OH254854   3.750   0.290   2.875 -0.6594 -0.3270 -0.1022
10220TIP3    H154855   3.812   0.320   2.942  2.1587 -1.0309 -2.2526
10220TIP3    H254856   3.779   0.202   2.853 -1.5616 -0.1437 -2.1971
10221TIP3   OH254857   5.299   1.029   0.825  0.1307  0.1618  0.0947
10221TIP3    H154858   5.214   1.018   0.867 -0.3414  2.4758 -0.1204
10221TIP3    H254859   5.362   0.993   0.888 -0.8567  0.1047  1.0800
10222TIP3   OH254860   5.414   0.359   2.398 -0.7007  0.0811  0.1228
10222TIP3    H154861   5.458   0.443   2.403 -1.9349  0.7216  0.7774
10222TIP3    H254862   5.474   0.302   2.350  0.2771  1.2472 -0.0591
10223TIP3   OH254863   2.348   2.095   3.091  0.1571  0.0602 -0.2432
10223TIP3    H154864   2.277   2.080   3.154 -1.5553 -1.0764 -2.2930
10223TIP3    H254865   2.408   2.021   3.105  0.1978  0.2343  0.5426
10224TIP3   OH254866   7.266   4.272   2.936 -0.7230 -0.3484 -0.1830
10224TIP3    H154867   7.195   4.306   2.990  0.3799 -0.4703  1.4424
10224TIP3    H254868   7.252   4.177   2.935  0.3907 -0.5861  1.7252
10225TIP3   OH254869   4.393   3.275   0.934 -0.1411  0.2958  0.2345
10225TIP3    H154870   4.355   3.324   1.007  0.5617  0.4244  0.5259
10225TIP3    H254871   4.363   3.322   0.856  0.4335  1.1486  0.5054
10226TIP3   OH254872   3.212   4.649   1.469 -0.2233  0.1752  0.0586
10226TIP3    H154873   3.169   4.584   1.414 -1.4907 -0.1470  1.3937
10226TIP3    H254874   3.182   4.630   1.558  2.1237  0.3920  0.9687
10227TIP3   OH254875   5.519   0.463   2.681  0.2272  0.3499 -0.7588
10227TIP3    H154876   5.452   0.505   2.735  0.6609  0.1400 -0.0322
10227TIP3    H254877   5.491   0.371   2.675  1.1048 -0.0503  0.6733
10228TIP3   OH254878   5.716   0.865   1.724  0.1709  0.1766  0.2880
10228TIP3    H154879   5.659   0.937   1.750 -0.6843 -0.3476 -0.1003
10228TIP3    H254880   5.780   0.858   1.795  1.3169  2.3851 -0.4292
10229TIP3   OH254881   0.264   6.996   0.804  0.9481 -0.3606 -0.3494
10229TIP3    H154882   0.327   6.934   0.840 -0.2387 -1.4935 -0.1712
10229TIP3    H254883   0.318   7.069   0.774  2.3801 -1.4574 -0.5599
10230TIP3   OH254884   4.260   0.465   1.136  0.5215 -0.0292 -0.2121
10230TIP3    H154885   4.195   0.463   1.207  2.0328 -2.3962  1.2466
10230TIP3    H254886   4.340   0.497   1.178  1.0041  0.2331 -1.2999
10231TIP3   OH254887   2.427   3.293   2.929 -0.1671 -0.6668  0.6588
10231TIP3    H154888   2.508   3.311   2.976 -0.2551 -0.2678  0.6614
10231TIP3    H254889   2.384   3.225   2.981 -0.0961 -0.4824  0.9643
10232TIP3   OH254890   3.590   3.137   0.433 -0.2247 -0.3278 -0.0355
10232TIP3    H154891   3.654   3.066   0.423  0.2324  0.2381 -1.3653
10232TIP3    H254892   3.641   3.217   0.421 -1.1491  0.1444 -0.9724
10233TIP3   OH254893   6.927   3.522   1.783  0.1239 -0.1306 -0.7134
10233TIP3    H154894   6.965   3.463   1.718 -0.8544 -1.3344 -0.2162
10233TIP3    H254895   6.833   3.504   1.781 -0.0496  0.5627  0.2941
10234TIP3   OH254896   0.732   0.230   2.699  0.2727  0.3896  0.1243
10234TIP3    H154897   0.794   0.227   2.626  2.4595 -0.3635  1.9051
10234TIP3    H254898   0.665   0.293   2.671  0.8172 -0.1201 -2.6295
10235TIP3   OH254899   4.584   1.012   2.569  0.1657  0.4162 -0.1423
10235TIP3    H154900   4.645   0.942   2.593 -0.0132  0.4398  0.3948
10235TIP3    H254901   4.531   1.025   2.647 -0.5143  0.4114 -0.5973
10236TIP3   OH254902   6.504   4.533   1.810  0.0302  0.0438 -0.0231
10236TIP3    H154903   6.428   4.589   1.795  1.1432  2.0718  1.4253
10236TIP3    H254904   6.518   4.489   1.726  0.5542  3.8296 -2.1348
10237TIP3   OH254905   7.232   1.957   1.008  0.5642 -0.3813 -0.2197
10237TIP3    H154906   7.314   1.929   1.048  0.5434 -0.4641 -0.2344
10237TIP3    H254907   7.165   1.904   1.050  0.7552 -2.0643 -1.8804
10238TIP3   OH254908   5.040   4.308   0.367  0.6525 -0.5781 -0.2364
10238TIP3    H154909   5.079   4.359   0.437  1.2835  0.8204 -1.5660
10238TIP3    H254910   5.108   4.302   0.300 -0.3556 -0.7768 -1.2765
10239TIP3   OH254911   1.267   6.404   0.353 -0.3997 -0.2793  0.1622
10239TIP3    H154912   1.217   6.453   0.289  0.9427 -0.4014 -1.0237
10239TIP3    H254913   1.329   6.467   0.389  1.6667 -1.0937 -1.7217
10240TIP3   OH254914   6.710   6.889   3.151 -0.0118 -0.0786 -0.4064
10240TIP3    H154915   6.767   6.965   3.161 -0.1357  0.4105 -2.9381
10240TIP3    H254916   6.665   6.903   3.068 -2.4156 -1.3959  0.5703
10241TIP3   OH254917   1.007   6.362   1.612  0.2234  0.1202 -0.2296
10241TIP3    H154918   0.948   6.403   1.675  1.8066  0.1109  1.3394
10241TIP3    H254919   1.050   6.435   1.567  1.0109  0.1931  0.6041
10242TIP3   OH254920   3.141   4.653   1.734 -0.3547 -0.2464 -0.3436
10242TIP3    H154921   3.055   4.694   1.722 -0.6780 -0.5862  0.7339
10242TIP3    H254922   3.170   4.682   1.820  0.7837  0.1421 -0.8292
10243TIP3   OH254923   4.950   1.238   2.784  0.1087 -0.9163 -0.1568
10243TIP3    H154924   4.945   1.315   2.727 -1.7345 -1.3756 -0.6797
10243TIP3    H254925   4.868   1.240   2.833 -0.3693 -2.9998 -0.7975
10244TIP3   OH254926   3.044   2.532   2.628  0.3034  1.0340  0.7125
10244TIP3    H154927   2.992   2.563   2.554  0.0494 -1.3315 -0.1569
10244TIP3    H254928   2.980   2.496   2.689  0.6894  1.1266  1.1818
10245TIP3   OH254929   6.068   5.801   1.066 -0.1068 -0.3828  0.0574
10245TIP3    H154930   6.048   5.715   1.102 -0.3003 -0.2132  0.3532
10245TIP3    H254931   6.132   5.783   0.997  0.1748 -0.7214  0.3999
10246TIP3   OH254932   6.435   3.132   1.720 -0.2212 -0.2292 -0.1162
10246TIP3    H154933   6.371   3.068   1.690  1.2445 -1.7082 -0.2524
10246TIP3    H254934   6.500   3.136   1.650  0.9929 -0.4649  0.9437
10247TIP3   OH254935   5.691   3.906   1.344  0.5438 -0.3295  0.1451
10247TIP3    H154936   5.600   3.900   1.315  1.0141  0.7313 -1.7692
10247TIP3    H254937   5.704   3.999   1.364  1.1280 -0.5169  0.6649
10248TIP3   OH254938   3.133   4.951   1.860  0.0857 -0.1277 -0.0233
10248TIP3    H154939   3.168   4.875   1.907  0.6214 -0.9648 -1.6880
10248TIP3    H254940   3.207   4.983   1.808 -0.4286  0.8894 -0.1502
10249TIP3   OH254941   1.088   1.397   3.085  0.7689 -0.0938 -0.2072
10249TIP3    H154942   1.051   1.466   3.030  1.7820  0.4021 -0.2708
10249TIP3    H254943   1.020   1.329   3.087 -1.1371  1.7087  1.4909
10250TIP3   OH254944   7.155   4.318   2.355  0.7316  0.3839  0.6923
10250TIP3    H154945   7.148   4.255   2.283  2.7942  0.8102  0.0537
10250TIP3    H254946   7.249   4.322   2.374  0.5078  2.3445  1.5768
10251TIP3   OH254947   0.625   7.355   0.712  0.1931  0.2279 -0.1468
10251TIP3    H154948   0.696   7.314   0.763  0.4684 -0.3932 -1.0024
10251TIP3    H254949   0.665   7.375   0.628 -0.1491  1.6288  0.0055
10252TIP3   OH254950   0.693   3.423   1.700  0.3513 -0.2769 -0.1980
10252TIP3    H154951   0.744   3.472   1.635 -1.7761  1.4341 -0.7323
10252TIP3    H254952   0.656   3.491   1.756  0.4208 -1.6064  1.5163
10253TIP3   OH254953   6.617   5.009   2.105 -0.2695 -0.6249  0.3564
10253TIP3    H154954   6.624   4.926   2.151  1.4375  0.6776  2.6717
10253TIP3    H254955   6.707   5.031   2.080 -0.7621  0.2452 -0.7497
10254TIP3   OH254956   6.442   2.373   2.357  0.1320  0.4807  0.0777
10254TIP3    H154957   6.409   2.424   2.283  1.9816  4.2492  1.6234
10254TIP3    H254958   6.371   2.376   2.422  0.3806  1.5231  0.3162
10255TIP3   OH254959   2.727   0.097   1.189 -0.5781 -0.7284 -0.5554
10255TIP3    H154960   2.681   0.014   1.194 -0.0595 -1.0087 -0.3436
10255TIP3    H254961   2.818   0.076   1.209 -0.5819  0.0134  0.2972
10256TIP3   OH254962   2.744   3.039   2.269 -0.4149  0.0323  0.0125
10256TIP3    H154963   2.651   3.019   2.260 -0.3584  0.2816 -1.3430
10256TIP3    H254964   2.785   2.999   2.192  0.5694  0.1330  0.4634
10257TIP3   OH254965   0.376   7.342   2.112 -0.0291  0.3279  0.3700
10257TIP3    H154966   0.345   7.391   2.188 -0.9951  0.5223 -0.1408
10257TIP3    H254967   0.427   7.270   2.149  1.4054  1.6605  1.1397
10258TIP3   OH254968   4.351   6.439   0.836 -0.0037 -0.7258  0.2870
10258TIP3    H154969   4.343   6.348   0.864  0.1488 -0.7900  0.1256
10258TIP3    H254970   4.445   6.458   0.844 -0.2250 -0.1200  1.7536
10259TIP3   OH254971   1.811   0.469   2.764 -0.8674 -0.3093  0.2983
10259TIP3    H154972   1.766   0.552   2.778  1.2090  1.3574 -2.1446
10259TIP3    H254973   1.885   0.471   2.824  0.8761  1.1002 -1.7389
10260TIP3   OH254974   1.785   6.720   2.655  0.3186  0.7000  0.3112
10260TIP3    H154975   1.702   6.672   2.657  0.8227 -0.4002 -2.0259
10260TIP3    H254976   1.774   6.789   2.721 -1.4934 -0.8898  1.7960
10261TIP3   OH254977   4.194   5.267   0.654  0.3259  0.1084  0.2856
10261TIP3    H154978   4.215   5.338   0.715  0.5472 -1.1506  1.7279
10261TIP3    H254979   4.275   5.216   0.649  0.3120  0.1879 -1.1004
10262TIP3   OH254980   2.980   0.430   1.942  0.1192  0.4134  0.1122
10262TIP3    H154981   2.892   0.468   1.944  0.3664  0.9920  0.5003
10262TIP3    H254982   3.039   0.506   1.937  0.6292  0.0883  0.9162
10263TIP3   OH254983   0.534   5.669   1.033 -0.1168 -0.2673 -0.0795
10263TIP3    H154984   0.492   5.749   1.064 -0.4672 -0.3389 -0.3603
10263TIP3    H254985   0.486   5.598   1.075  0.1306 -0.3363  0.0928
10264TIP3   OH254986   1.682   4.443   1.841  0.2788 -0.4859  0.2399
10264TIP3    H154987   1.635   4.524   1.860  0.6745  0.2997 -1.9244
10264TIP3    H254988   1.771   4.459   1.872  0.4773  0.1049 -0.6117
10265TIP3   OH254989   3.849   1.386   3.163  0.1026  0.5269 -0.1287
10265TIP3    H154990   3.897   1.407   3.083 -1.0245 -0.3749 -1.0710
10265TIP3    H254991   3.763   1.359   3.133 -0.0816 -0.6585  1.3381
10266TIP3   OH254992   0.186   5.212   0.900 -0.4422  0.3046 -0.2300
10266TIP3    H154993   0.163   5.121   0.878 -0.2504 -0.4363  2.3355
10266TIP3    H254994   0.242   5.240   0.827 -0.2866 -1.7131 -0.9693
10267TIP3   OH254995   4.609   5.892   2.695 -0.3641  0.0207  0.2612
10267TIP3    H154996   4.676   5.960   2.686 -1.3790  0.8878 -1.0929
10267TIP3    H254997   4.575   5.904   2.784  0.5003  0.2890  0.5695
10268TIP3   OH254998   4.897   5.889   1.213  0.1235  0.0934 -0.0983
10268TIP3    H154999   4.894   5.985   1.216  1.9631  0.1987 -0.5322
10268TIP3    H255000   4.941   5.869   1.131 -0.2882 -1.1389 -0.0345
10269TIP3   OH255001   4.865   7.355   0.818  0.6259  0.1475  0.0572
10269TIP3    H155002   4.811   7.432   0.837  2.4617  1.2142  1.3401
10269TIP3    H255003   4.914   7.340   0.899  2.5372 -0.4897 -1.1520
10270TIP3   OH255004   0.151   2.132   1.054  0.2704 -0.1099 -0.6978
10270TIP3    H155005   0.170   2.049   1.011  1.4943  0.1046 -0.6133
10270TIP3    H255006   0.059   2.148   1.036 -0.2166 -1.8906  0.0007
10271TIP3   OH255007   5.841   6.881   1.898  0.0791 -0.0435  0.2052
10271TIP3    H155008   5.895   6.941   1.950  0.1650 -0.8245  1.0460
10271TIP3    H255009   5.846   6.798   1.946 -1.2768 -0.3233 -0.1112
10272TIP3   OH255010   3.701   4.886   2.582  0.4048  0.2488 -0.4821
10272TIP3    H155011   3.781   4.862   2.628  1.0804  0.5226 -1.4832
10272TIP3    H255012   3.725   4.961   2.528 -0.6702  0.6854 -0.3893
10273TIP3   OH255013   5.323   2.397   1.822  0.2237 -0.7897 -0.1637
10273TIP3    H155014   5.253   2.384   1.758 -0.0270 -1.2279  0.2016
10273TIP3    H255015   5.391   2.444   1.773 -0.4708 -0.0264 -0.4207
10274TIP3   OH255016   0.221   5.450   1.104 -0.0593  0.0229 -0.2746
10274TIP3    H155017   0.220   5.367   1.056 -0.3840 -0.3795  0.4266
10274TIP3    H255018   0.305   5.450   1.150 -1.0860 -1.0838  1.7209
10275TIP3   OH255019   0.717   4.565   2.406  0.1915 -0.2065 -0.3738
10275TIP3    H155020   0.779   4.622   2.451  0.1432  0.1042 -0.6973
10275TIP3    H255021   0.762   4.538   2.326  0.0385 -0.2484 -0.4469
10276TIP3   OH255022   1.777   1.287   1.346  0.1814  0.6625  0.8152
10276TIP3    H155023   1.781   1.192   1.360 -1.2439  0.5429  0.5875
10276TIP3    H255024   1.845   1.323   1.402  0.0149 -0.4211  1.7414
10277TIP3   OH255025   7.034   3.699   0.740 -0.2226  0.2603  0.0058
10277TIP3    H155026   6.975   3.676   0.668 -0.1018  0.6082 -0.2059
10277TIP3    H255027   7.069   3.785   0.716 -0.0828  0.3210  0.4168
10278TIP3   OH255028   3.757   5.146   0.932  0.4826  0.4301 -0.4712
10278TIP3    H155029   3.823   5.120   0.866  0.7298  0.1015 -0.0995
10278TIP3    H255030   3.724   5.230   0.901 -0.8788 -0.6420 -2.1235
10279TIP3   OH255031   4.728   2.723   1.189 -0.1285 -0.3615 -0.0798
10279TIP3    H155032   4.737   2.818   1.178  0.1475 -0.3044  0.5918
10279TIP3    H255033   4.765   2.686   1.109  0.8184  0.0706  0.1432
10280TIP3   OH255034   1.236   1.668   1.001 -0.5417 -0.1994 -0.6622
10280TIP3    H155035   1.175   1.651   0.929 -1.0192 -1.2831 -0.0329
10280TIP3    H255036   1.220   1.759   1.025 -1.5760 -0.3207 -0.8305
10281TIP3   OH255037   1.185   5.015   1.458  0.1445  0.0737  0.4028
10281TIP3    H155038   1.175   5.009   1.363 -1.0764 -1.4527  0.5883
10281TIP3    H255039   1.204   5.108   1.474  0.4398  0.3449 -1.3250
10282TIP3   OH255040   3.160   7.316   1.309 -0.2537 -0.5550 -0.3778
10282TIP3    H155041   3.130   7.332   1.219  1.8088  0.7136 -0.9138
10282TIP3    H255042   3.173   7.221   1.313 -0.5144 -0.6488 -1.3798
10283TIP3   OH255043   2.383   0.178   1.886  0.9399  0.1796  0.4100
10283TIP3    H155044   2.399   0.134   1.970  3.0026  0.8960  0.4477
10283TIP3    H255045   2.470   0.199   1.853  0.1192  1.1435 -1.2672
10284TIP3   OH255046   5.885   3.800   2.361 -0.1171  0.1867 -0.1015
10284TIP3    H155047   5.858   3.875   2.308 -0.4503 -0.6038 -1.1013
10284TIP3    H255048   5.809   3.742   2.360 -0.0275  0.0279  1.0421
10285TIP3   OH255049   2.091   5.976   2.216 -0.3995  0.0351 -0.3549
10285TIP3    H155050   2.050   5.966   2.302  0.3653  2.3417  0.3450
10285TIP3    H255051   2.026   6.025   2.165 -0.4532 -0.4951 -0.8024
10286TIP3   OH255052   1.637   7.478   0.926  0.1678 -0.7354  0.6214
10286TIP3    H155053   1.611   7.561   0.886  2.8930 -0.0098  0.1871
10286TIP3    H255054   1.607   7.411   0.865 -1.5091 -0.0910  0.6722
10287TIP3   OH255055   5.566   5.277   2.402  0.7068 -0.2472  0.0789
10287TIP3    H155056   5.504   5.263   2.330  0.6621 -0.7332  0.2078
10287TIP3    H255057   5.542   5.363   2.437 -0.6343 -0.8880  0.8362
10288TIP3   OH255058   0.746   1.135   2.121 -0.0770 -0.0867 -0.0741
10288TIP3    H155059   0.762   1.142   2.026  0.5079 -0.0192  0.0243
10288TIP3    H255060   0.782   1.217   2.157 -0.3910 -0.0670  0.1953
10289TIP3   OH255061   2.695   5.839   2.266 -0.2238 -0.1929 -0.1796
10289TIP3    H155062   2.789   5.825   2.254 -0.2564  1.1940 -2.8437
10289TIP3    H255063   2.654   5.781   2.203 -1.1893 -0.7248  0.9054
10290TIP3   OH255064   0.726   4.049   1.665  0.0768 -0.4878 -0.2594
10290TIP3    H155065   0.798   3.994   1.694 -0.3867 -0.5351  0.8866
10290TIP3    H255066   0.743   4.066   1.573  0.1244 -2.7128 -0.7096
10291TIP3   OH255067   4.561   0.363   2.203  0.2969 -0.4197 -0.1840
10291TIP3    H155068   4.510   0.335   2.126 -1.2913  0.5899  0.4477
10291TIP3    H255069   4.623   0.292   2.218 -0.4974 -1.4092 -1.3869
10292TIP3   OH255070   6.405   6.277   0.756  0.3921  0.2263  0.0830
10292TIP3    H155071   6.405   6.289   0.851 -0.0890  1.0494 -0.0129
10292TIP3    H255072   6.496   6.254   0.736  0.0628 -2.0897  0.9691
10293TIP3   OH255073   0.692   1.006   2.566 -0.1403 -0.3258 -0.1082
10293TIP3    H155074   0.744   1.085   2.579  0.9020 -0.9034 -0.6043
10293TIP3    H255075   0.691   0.963   2.651  1.4495 -1.0224 -0.3967
10294TIP3   OH255076   0.394   0.083   0.470  0.4561 -0.0716  0.1893
10294TIP3    H155077   0.347   0.142   0.411  0.4069 -1.1985 -0.9333
10294TIP3    H255078   0.325   0.025   0.504  0.7212 -0.4108  0.1479
10295TIP3   OH255079   4.605   6.421   1.114 -0.2922 -0.4418  0.8226
10295TIP3    H155080   4.512   6.401   1.103 -0.3463  0.7548 -1.5884
10295TIP3    H255081   4.607   6.489   1.182 -1.0694 -1.1863  1.6020
10296TIP3   OH255082   0.918   1.766   0.414  0.2123 -0.0413 -0.2102
10296TIP3    H155083   0.971   1.796   0.339  1.5574  0.7800  1.0041
10296TIP3    H255084   0.860   1.839   0.433 -0.8664 -0.6494 -1.0636
10297TIP3   OH255085   5.418   4.373   1.313 -0.4694  0.1783  0.0730
10297TIP3    H155086   5.335   4.330   1.296 -0.2671 -0.3380  0.3404
10297TIP3    H255087   5.447   4.406   1.228 -0.0602 -1.2717 -0.3838
10298TIP3   OH255088   3.554   5.476   3.256 -0.0819  0.1983 -0.3340
10298TIP3    H155089   3.626   5.413   3.262 -1.4160 -1.2551  1.0406
10298TIP3    H255090   3.572   5.524   3.175  2.5962  0.1324  0.1142
10299TIP3   OH255091   1.166   2.158   2.634 -0.3465  0.7423  0.1096
10299TIP3    H155092   1.077   2.141   2.665 -0.3277 -1.8217 -0.9194
10299TIP3    H255093   1.217   2.173   2.713 -1.1357 -0.9928  1.0171
10300TIP3   OH255094   2.201   1.582   2.230 -0.2232  0.0802 -0.5918
10300TIP3    H155095   2.186   1.677   2.225  0.7393  0.2981  0.3255
10300TIP3    H255096   2.113   1.544   2.230 -0.6139  0.9634 -1.1326
10301TIP3   OH255097   3.214   2.687   0.853  0.3485 -0.3965 -0.3604
10301TIP3    H155098   3.282   2.626   0.882 -0.8608 -1.3152  0.6198
10301TIP3    H255099   3.210   2.753   0.921 -1.0825 -1.4423  0.6282
10302TIP3   OH255100   6.907   1.407   0.452  0.0520  0.3552 -0.5625
10302TIP3    H155101   6.863   1.491   0.459  0.4712  0.4656  1.3376
10302TIP3    H255102   6.842   1.343   0.483  0.1996  0.1513 -0.6694
10303TIP3   OH255103   5.351   7.086   3.197 -0.2074  0.7222  0.3704
10303TIP3    H155104   5.419   7.105   3.132  0.4647 -0.4405  0.7106
10303TIP3    H255105   5.390   7.020   3.255 -2.4374 -1.9528 -0.9013
10304TIP3   OH255106   1.116   0.052   1.797  0.7688 -0.5196 -0.0057
10304TIP3    H155107   1.172   0.032   1.872 -1.6349  1.3662  2.4949
10304TIP3    H255108   1.029   0.063   1.835 -0.9335 -1.1505 -3.3800
10305TIP3   OH255109   4.625   3.315   3.035  0.0787 -0.4840  0.1041
10305TIP3    H155110   4.620   3.237   3.090 -2.8879 -0.1354  0.4981
10305TIP3    H255111   4.603   3.283   2.947  0.0046 -0.2641  0.0438
10306TIP3   OH255112   6.777   2.111   0.785  0.1146 -0.5112 -0.0515
10306TIP3    H155113   6.688   2.142   0.800  0.7039  2.0398 -1.2008
10306TIP3    H255114   6.825   2.137   0.864  0.1315 -0.5650 -0.0443
10307TIP3   OH255115   5.335   4.080   2.005  0.1138  0.0222  0.0513
10307TIP3    H155116   5.389   4.151   2.039 -0.8277  1.5014 -1.3626
10307TIP3    H255117   5.246   4.115   2.006 -0.5366 -1.5384  0.2635
10308TIP3   OH255118   5.562   1.887   2.573 -0.3486  0.2895 -0.8557
10308TIP3    H155119   5.580   1.978   2.551 -1.1963  1.2560  1.9956
10308TIP3    H255120   5.477   1.869   2.533 -1.4058  1.6749  0.5961
10309TIP3   OH255121   1.463   2.344   0.681 -0.0800  0.0784 -0.0544
10309TIP3    H155122   1.405   2.387   0.743  0.9217 -0.4130  1.2755
10309TIP3    H255123   1.528   2.410   0.658 -1.3045  0.7399 -1.8171
10310TIP3   OH255124   0.875   2.397   0.811 -0.4000  0.8462  0.2255
10310TIP3    H155125   0.869   2.375   0.903  0.5626  0.2146  0.1569
10310TIP3    H255126   0.949   2.458   0.806 -0.3496  0.7580 -0.1381
10311TIP3   OH255127   3.571   1.616   1.378 -0.3521  0.2571 -0.5200
10311TIP3    H155128   3.645   1.572   1.336 -1.0585 -0.9363 -0.5616
10311TIP3    H255129   3.545   1.558   1.449 -0.2359  1.4596  0.5566
10312TIP3   OH255130   0.800   4.874   2.735 -0.2576 -0.1473  0.4119
10312TIP3    H155131   0.725   4.884   2.677 -0.4946  0.8785  0.8644
10312TIP3    H255132   0.876   4.883   2.677 -0.4654 -1.0897 -0.0302
10313TIP3   OH255133   3.351   0.872   3.041  0.2475 -0.6024  0.0840
10313TIP3    H155134   3.292   0.948   3.045  2.0023  0.8605 -0.6339
10313TIP3    H255135   3.295   0.800   3.012 -1.1434  0.7900 -0.8403
10314TIP3   OH255136   6.376   7.451   1.562  0.4125  0.5816 -0.3344
10314TIP3    H155137   6.381   7.463   1.657  0.6965  1.3358 -0.4416
10314TIP3    H255138   6.340   7.362   1.551 -0.4998  0.8336  0.4820
10315TIP3   OH255139   3.957   1.200   0.603  0.5281 -0.1068 -0.5075
10315TIP3    H155140   3.924   1.251   0.528 -2.1916 -1.2587 -0.2185
10315TIP3    H255141   3.956   1.262   0.676 -2.1903 -0.2819 -0.2840
10316TIP3   OH255142   6.583   6.564   3.102  0.3204  0.1870 -0.5061
10316TIP3    H155143   6.513   6.499   3.108  2.0041 -1.5569  2.3192
10316TIP3    H255144   6.566   6.624   3.175  2.3796 -1.0642  1.1239
10317TIP3   OH255145   6.757   2.419   0.880 -0.4314  0.1452 -0.4299
10317TIP3    H155146   6.726   2.451   0.796 -0.8797  0.7443 -0.0459
10317TIP3    H255147   6.847   2.454   0.887  1.1808 -3.1529 -2.3843
10318TIP3   OH255148   2.291   6.898   1.454 -0.3643  0.4422  0.1391
10318TIP3    H155149   2.353   6.962   1.488 -0.9022  0.8053  0.4527
10318TIP3    H255150   2.344   6.837   1.403  0.0650  1.5323 -0.7464
10319TIP3   OH255151   5.839   1.074   1.004  0.5081 -0.1580  0.2644
10319TIP3    H155152   5.766   1.128   0.973 -1.0531  0.7080  4.7546
10319TIP3    H255153   5.798   0.995   1.039  1.6098  0.2653  2.7568
10320TIP3   OH255154   3.621   5.806   0.695  0.1498  0.0178  0.0190
10320TIP3    H155155   3.644   5.898   0.704  0.1746 -0.0364  0.5347
10320TIP3    H255156   3.700   5.759   0.720  0.7698 -0.1504 -2.0207
10321TIP3   OH255157   1.701   6.135   1.731  0.3051 -0.1394 -0.3584
10321TIP3    H155158   1.725   6.121   1.639 -0.2476  1.6962 -0.8335
10321TIP3    H255159   1.744   6.064   1.778  3.6712  0.8335 -1.6075
10322TIP3   OH255160   7.444   3.932   2.757 -0.0795 -1.1193  0.3159
10322TIP3    H155161   7.497   4.010   2.771 -1.0596 -0.5203  0.8659
10322TIP3    H255162   7.435   3.925   2.662  0.2142 -0.6942  0.2568
10323TIP3   OH255163   0.113   2.979   1.967 -0.1769  0.0834 -0.0285
10323TIP3    H155164   0.034   3.018   2.004 -0.5681 -0.1420 -0.6078
10323TIP3    H255165   0.174   2.973   2.041 -1.2195 -1.1024  0.7878
10324TIP3   OH255166   0.730   5.148   0.675 -0.4552 -0.1489  0.1083
10324TIP3    H155167   0.806   5.103   0.712  0.3274  1.1349  0.0973
10324TIP3    H255168   0.703   5.209   0.744  0.4110  1.5636 -1.0124
10325TIP3   OH255169   5.089   7.553   0.812  0.6687  0.2334  0.0738
10325TIP3    H155170   5.105   7.545   0.907 -0.3673 -1.4127  0.1459
10325TIP3    H255171   4.995   7.542   0.802  0.8255 -0.1296 -1.1934
10326TIP3   OH255172   0.774   3.297   1.170  0.1869  0.2215  0.1299
10326TIP3    H155173   0.762   3.338   1.255  1.3498 -0.5266  0.6785
10326TIP3    H255174   0.685   3.274   1.142 -0.7266  4.2447 -0.8817
10327TIP3   OH255175   0.821   4.016   0.438  0.2157 -0.6075 -0.5099
10327TIP3    H155176   0.750   4.081   0.436 -0.1554 -1.0227 -0.8930
10327TIP3    H255177   0.789   3.943   0.385  0.7961 -0.9402 -0.4124
10328TIP3   OH255178   6.515   7.476   2.506 -0.3538 -0.3718  0.3478
10328TIP3    H155179   6.545   7.423   2.432  0.8092 -0.6926  1.0183
10328TIP3    H255180   6.446   7.424   2.547  0.5659 -1.2653  0.8162
10329TIP3   OH255181   7.398   2.054   2.819  0.0292  0.4103 -0.2451
10329TIP3    H155182   7.323   2.112   2.807  1.2973  2.5353  1.3562
10329TIP3    H255183   7.389   2.021   2.909 -0.2236 -1.2988 -0.8549
10330TIP3   OH255184   6.195   2.674   1.227 -0.2616 -0.3241 -0.6891
10330TIP3    H155185   6.168   2.600   1.172 -1.5102 -1.1190  0.9465
10330TIP3    H255186   6.215   2.635   1.312  1.3644  0.9307 -0.4376
10331TIP3   OH255187   1.874   0.519   1.859  0.6521 -0.2265 -0.0440
10331TIP3    H155188   1.921   0.601   1.847 -2.2315  1.5341 -0.4082
10331TIP3    H255189   1.901   0.465   1.785  0.4809  1.5770 -1.5175
10332TIP3   OH255190   6.348   5.505   2.533  0.0026 -0.2763 -0.0633
10332TIP3    H155191   6.411   5.504   2.605  0.7387  1.1085 -0.6416
10332TIP3    H255192   6.383   5.443   2.470  0.2084 -0.3167  0.0878
10333TIP3   OH255193   7.552   0.441   0.955  0.4254 -0.0172  0.0552
10333TIP3    H155194   7.647   0.430   0.968  0.2387 -1.2192  0.4999
10333TIP3    H255195   7.529   0.515   1.011  0.9121 -0.4446  0.8393
10334TIP3   OH255196   6.459   5.287   2.409 -0.8482  0.0582  0.1027
10334TIP3    H155197   6.390   5.227   2.379  0.2751 -1.2979  0.1038
10334TIP3    H255198   6.481   5.255   2.497  0.2465  0.0364 -0.1719
10335TIP3   OH255199   0.063   7.007   2.989  0.4787  0.0531 -0.2882
10335TIP3    H155200   0.019   6.960   3.060  0.2685  1.4660  0.5742
10335TIP3    H255201  -0.008   7.030   2.929  0.2110  1.0661  0.3712
10336TIP3   OH255202   6.809   4.384   0.902  0.1695 -0.1923 -0.3975
10336TIP3    H155203   6.782   4.441   0.974  2.0293 -0.1267  0.3102
10336TIP3    H255204   6.894   4.350   0.929  0.7851 -0.4131 -2.4130
10337TIP3   OH255205   5.167   0.951   1.236 -0.0850  0.5481 -0.3022
10337TIP3    H155206   5.256   0.935   1.268 -0.4330  1.7741  1.4089
10337TIP3    H255207   5.144   1.037   1.271 -1.7830  0.4525 -1.1009
10338TIP3   OH255208   1.780   5.305   1.789 -0.2793 -0.1294 -0.2634
10338TIP3    H155209   1.810   5.350   1.867 -1.5818 -0.6104  0.5449
10338TIP3    H255210   1.697   5.348   1.767 -0.2874 -0.4835 -0.9470
10339TIP3   OH255211   4.290   0.624   0.351  0.6800  0.4179 -0.1188
10339TIP3    H155212   4.335   0.554   0.304 -0.0996  1.2501 -2.2250
10339TIP3    H255213   4.207   0.585   0.379  0.1747  0.5232 -1.4348
10340TIP3   OH255214   5.728   6.279   3.333 -0.0563  0.1449  0.3459
10340TIP3    H155215   5.679   6.260   3.412  0.2293  0.1384  0.5243
10340TIP3    H255216   5.814   6.309   3.364  0.2540 -0.3917  0.0364
10341TIP3   OH255217   0.240   0.508   1.071 -0.2480 -0.0238 -0.3021
10341TIP3    H155218   0.277   0.563   1.140 -1.6405  0.2433  0.2471
10341TIP3    H255219   0.312   0.496   1.009  0.6610  0.7396  0.5798
10342TIP3   OH255220   6.629   6.620   1.626 -0.1619 -0.2624  0.5980
10342TIP3    H155221   6.601   6.709   1.605 -0.0194 -0.5374 -0.8705
10342TIP3    H255222   6.567   6.590   1.693 -1.1950  0.3705 -0.0470
10343TIP3   OH255223   3.815   2.414   0.643 -0.4618  0.1439 -0.1394
10343TIP3    H155224   3.816   2.424   0.738 -0.1628 -0.7722 -0.0350
10343TIP3    H255225   3.766   2.333   0.628 -0.8867  0.5200 -0.7878
10344TIP3   OH255226   2.875   7.209   2.034 -0.4986 -0.4342 -0.5852
10344TIP3    H155227   2.794   7.198   2.084 -0.9874  0.2811 -1.1964
10344TIP3    H255228   2.919   7.282   2.076  0.7140 -1.9106  0.8483
10345TIP3   OH255229   3.567   1.383   1.886  0.3403  0.2056 -0.1337
10345TIP3    H155230   3.526   1.316   1.939 -0.1152  0.1695 -0.5242
10345TIP3    H255231   3.656   1.351   1.871  0.2614 -0.1006  0.0482
10346TIP3   OH255232   1.921   1.465   2.280  0.1979 -0.0641 -0.2297
10346TIP3    H155233   1.872   1.384   2.295  1.1322 -0.4413  0.9831
10346TIP3    H255234   1.862   1.535   2.308  0.7589 -0.5848  2.5162
10347TIP3   OH255235   5.267   1.769   1.877 -0.0844 -0.4658 -0.7163
10347TIP3    H155236   5.194   1.723   1.836 -2.0815  1.6332  0.1984
10347TIP3    H255237   5.318   1.803   1.805 -0.3848 -1.4208 -1.3972
10348TIP3   OH255238   6.612   6.991   0.466 -0.1049  0.3306 -0.5351
10348TIP3    H155239   6.611   6.895   0.456 -0.1763  0.2561  0.1121
10348TIP3    H255240   6.701   7.010   0.495  0.2296  0.5827 -1.7015
10349TIP3   OH255241   4.907   2.055   2.332  0.5234  0.4445  0.0173
10349TIP3    H155242   4.813   2.050   2.313  0.1597 -1.0669  1.8370
10349TIP3    H255243   4.945   2.101   2.257 -1.4148 -0.5263 -1.6547
10350TIP3   OH255244   1.370   4.696   2.149  0.1239 -0.3386 -0.0252
10350TIP3    H155245   1.385   4.658   2.236 -1.0525 -0.3039  0.2168
10350TIP3    H255246   1.307   4.636   2.108  0.8322 -0.4662 -0.9362
10351TIP3   OH255247   6.867   4.049   2.195 -0.0346  0.0921 -0.1974
10351TIP3    H155248   6.788   4.029   2.244 -0.5765 -0.1808 -1.1567
10351TIP3    H255249   6.910   3.964   2.183 -0.4821 -0.0142 -1.1435
10352TIP3   OH255250   3.470   1.356   0.782  0.4672  0.3040 -0.2425
10352TIP3    H155251   3.553   1.325   0.745  0.4448 -0.8890  0.6512
10352TIP3    H255252   3.491   1.375   0.874 -0.1412  0.4477 -0.1320
10353TIP3   OH255253   1.675   5.898   2.158 -0.5240 -0.4810  0.0527
10353TIP3    H155254   1.653   5.958   2.229 -0.8737 -0.9435  0.3413
10353TIP3    H255255   1.634   5.815   2.183 -0.2458 -0.7768 -0.4557
10354TIP3   OH255256   0.131   3.800   2.553 -0.2544  0.4144 -0.2236
10354TIP3    H155257   0.202   3.861   2.571 -0.0934  0.9761 -2.4332
10354TIP3    H255258   0.053   3.855   2.548 -0.2436  0.3463 -1.3847
10355TIP3   OH255259   6.240   5.307   1.083  0.0160  0.1120 -0.0674
10355TIP3    H155260   6.332   5.292   1.105  0.0301  1.0918  0.6393
10355TIP3    H255261   6.211   5.227   1.040  0.9974 -0.4929  0.3761
10356TIP3   OH255262   0.075   0.303   2.889 -0.0558 -0.2920 -0.7185
10356TIP3    H155263   0.158   0.335   2.925  0.5665 -2.0904 -0.4489
10356TIP3    H255264   0.016   0.301   2.964 -0.8035  2.2271 -1.1517
10357TIP3   OH255265   6.415   3.322   1.901  0.3186 -0.0314  0.0741
10357TIP3    H155266   6.415   3.273   1.819 -1.7764  0.1815 -0.1176
10357TIP3    H255267   6.326   3.357   1.908  1.1726  2.0903  1.1941
10358TIP3   OH255268   5.745   2.081   0.811  0.0732 -0.1327 -0.3333
10358TIP3    H155269   5.676   2.140   0.840  0.1018 -0.8227  1.2226
10358TIP3    H255270   5.823   2.136   0.805  0.4405 -0.2238  2.5331
10359TIP3   OH255271   6.631   4.712   1.555 -0.7662  0.4065  0.1669
10359TIP3    H155272   6.715   4.754   1.575 -0.4395 -0.3222  0.3602
10359TIP3    H255273   6.602   4.753   1.474  0.6126 -0.5200 -0.8454
10360TIP3   OH255274   0.429   6.043   2.030 -0.4283 -0.4103  0.1839
10360TIP3    H155275   0.467   6.126   2.003  0.1939 -0.5665  0.5529
10360TIP3    H255276   0.357   6.028   1.969  0.0519 -0.0701 -0.4722
10361TIP3   OH255277   6.529   3.832   0.646 -0.3691  0.2279 -0.2983
10361TIP3    H155278   6.528   3.755   0.703  0.8374  1.2067  1.1408
10361TIP3    H255279   6.439   3.864   0.648 -0.2893  0.4655  1.4634
10362TIP3   OH255280   5.333   5.242   2.257 -0.0809  0.0873  0.2243
10362TIP3    H155281   5.246   5.203   2.248 -0.5424  0.7250  1.6865
10362TIP3    H255282   5.348   5.286   2.173 -1.2665  0.1800  0.0388
10363TIP3   OH255283   1.974   0.774   2.579  0.0801 -0.1296  0.3900
10363TIP3    H155284   1.951   0.719   2.654  2.8863 -0.0288  1.4651
10363TIP3    H255285   2.028   0.844   2.617  2.4483 -0.6197 -1.7908
10364TIP3   OH255286   7.050   0.635   3.136 -0.2705 -0.4692 -0.0934
10364TIP3    H155287   7.007   0.640   3.050  0.3292 -1.1448 -0.4467
10364TIP3    H255288   7.065   0.541   3.149 -0.4440 -0.3803  0.8034
10365TIP3   OH255289   7.221   2.349   1.147  0.7847 -0.2357 -0.3927
10365TIP3    H155290   7.276   2.402   1.089  0.8808  0.4201  0.2876
10365TIP3    H255291   7.282   2.291   1.192  1.2352  1.6712  1.6668
10366TIP3   OH255292   3.588   4.857   1.394 -0.3376 -0.1308 -0.9111
10366TIP3    H155293   3.653   4.888   1.457 -0.5760 -0.4522 -0.5038
10366TIP3    H255294   3.536   4.793   1.443 -1.1580  0.3485 -1.1390
10367TIP3   OH255295   4.114   1.851   2.434  0.1814 -0.4121 -0.3592
10367TIP3    H155296   4.187   1.853   2.496 -0.0939 -1.8607  0.0457
10367TIP3    H255297   4.139   1.914   2.366  0.8532  0.6095  0.7939
10368TIP3   OH255298   3.523   4.112   1.310 -0.0367  0.1132 -0.1579
10368TIP3    H155299   3.478   4.194   1.329 -2.8370 -1.2554 -0.4821
10368TIP3    H255300   3.557   4.083   1.395 -1.6815  0.1279  0.5291
10369TIP3   OH255301   2.775   6.794   2.134 -0.0842  0.9572  0.1504
10369TIP3    H155302   2.838   6.784   2.205  0.0881  1.9296  0.1523
10369TIP3    H255303   2.699   6.834   2.175 -1.3624 -1.6114  0.4742
10370TIP3   OH255304   2.885   6.499   2.115  0.0768 -0.4522 -0.2690
10370TIP3    H155305   2.825   6.449   2.060 -0.8914  0.6617 -0.2733
10370TIP3    H255306   2.834   6.577   2.141  0.9191 -0.3576  1.1935
10371TIP3   OH255307   3.825   1.447   1.559 -0.0303  0.1832 -1.1703
10371TIP3    H155308   3.833   1.508   1.632 -0.0119  1.4588 -2.2056
10371TIP3    H255309   3.912   1.407   1.552 -0.2683 -0.6056  0.0221
10372TIP3   OH255310   0.179   6.776   2.303  0.3984  0.0142 -0.2932
10372TIP3    H155311   0.233   6.813   2.373  1.7387 -1.1536 -0.6455
10372TIP3    H255312   0.101   6.831   2.300  0.4433  0.2785  1.9087
10373TIP3   OH255313   5.687   1.778   1.335  0.7536  0.4086  0.0150
10373TIP3    H155314   5.620   1.781   1.266  1.2630 -0.3028 -0.5291
10373TIP3    H255315   5.742   1.854   1.318  0.0030  1.0816  0.5543
10374TIP3   OH255316   1.829   4.221   2.802 -0.5851 -0.1073 -0.7491
10374TIP3    H155317   1.815   4.171   2.883  0.5636  0.4788 -0.1664
10374TIP3    H255318   1.826   4.312   2.829  0.2652  0.0898 -1.2785
10375TIP3   OH255319   4.847   7.536   1.590 -0.3594 -0.2165  0.4336
10375TIP3    H155320   4.881   7.517   1.677 -1.3574  2.0682  1.3943
10375TIP3    H255321   4.902   7.607   1.557 -2.0535  1.2664  0.6615
10376TIP3   OH255322   5.488   5.892   2.278  0.2503  0.3577  0.3038
10376TIP3    H155323   5.473   5.812   2.328 -1.2833  1.5982  1.9228
10376TIP3    H255324   5.404   5.913   2.238  0.1134  2.1110  1.3900
10377TIP3   OH255325   5.681   5.285   2.700 -0.3346  0.0535  0.0020
10377TIP3    H155326   5.655   5.273   2.791 -3.2394  2.1925 -0.3987
10377TIP3    H255327   5.638   5.213   2.653 -0.4017  0.0263  0.1045
10378TIP3   OH255328   1.417   3.120   2.800 -0.2987 -0.3878  0.5831
10378TIP3    H155329   1.322   3.121   2.810 -0.2098 -0.6257  1.6629
10378TIP3    H255330   1.450   3.150   2.885  0.5988 -1.0728  0.4933
10379TIP3   OH255331   3.287   4.913   1.236  0.1647 -0.1693 -0.1075
10379TIP3    H155332   3.364   4.968   1.221  0.4951 -0.7993 -0.8049
10379TIP3    H255333   3.213   4.970   1.217  0.4240  0.6604  1.2728
10380TIP3   OH255334   2.490   2.028   0.552 -0.6793 -0.1757  0.0773
10380TIP3    H155335   2.571   2.010   0.601  0.0216 -1.0178 -1.3212
10380TIP3    H255336   2.485   1.957   0.488 -1.8960  0.5341 -0.6491
10381TIP3   OH255337   1.479   4.943   2.113 -0.2545  0.0973  0.0940
10381TIP3    H155338   1.574   4.954   2.114 -0.2314 -0.1103  0.4480
10381TIP3    H255339   1.466   4.849   2.121 -0.4974  0.1816  0.7485
10382TIP3   OH255340   7.512   2.953   2.201 -0.2086 -0.5583 -0.0206
10382TIP3    H155341   7.561   3.004   2.265 -1.8710  0.4707  0.5118
10382TIP3    H255342   7.569   2.879   2.180  1.5920  0.6299  0.4311
10383TIP3   OH255343   5.084   0.630   1.636 -0.3762 -0.1986 -0.1766
10383TIP3    H155344   5.050   0.625   1.725  1.1073 -0.3844  0.4025
10383TIP3    H255345   5.106   0.722   1.625 -1.3431 -0.0073 -0.6862
10384TIP3   OH255346   5.260   4.886   1.164 -0.0709 -0.2986 -0.5906
10384TIP3    H155347   5.318   4.961   1.161 -1.1743  0.7065  1.2033
10384TIP3    H255348   5.241   4.866   1.072  2.1866  0.0214 -1.1655
10385TIP3   OH255349   7.339   0.250   1.149 -0.0981 -0.3919 -0.1678
10385TIP3    H155350   7.388   0.309   1.092 -0.9781  0.9587  0.4180
10385TIP3    H255351   7.383   0.166   1.141 -0.0792 -0.2179 -2.7146
10386TIP3   OH255352   3.916   4.432   2.755 -0.1166  0.1502  0.0889
10386TIP3    H155353   3.986   4.410   2.817 -0.9101 -1.5057  0.4562
10386TIP3    H255354   3.836   4.403   2.798 -0.8975  0.8157 -0.8766
10387TIP3   OH255355   1.983   3.057   0.631  0.2596 -0.2452  0.3731
10387TIP3    H155356   1.975   3.048   0.726  4.3302  2.3292  1.2194
10387TIP3    H255357   1.907   3.107   0.604  0.3289  1.2793  2.8027
10388TIP3   OH255358   4.216   4.991   2.830  0.0584  0.1382  0.9500
10388TIP3    H155359   4.184   5.076   2.862 -1.1434 -0.1411  0.5376
10388TIP3    H255360   4.309   4.991   2.853  0.1414  1.6654  0.7576
10389TIP3   OH255361   2.754   3.773   1.301 -0.4637 -0.5234 -0.0201
10389TIP3    H155362   2.688   3.757   1.234  1.3834 -0.4725 -1.9811
10389TIP3    H255363   2.761   3.868   1.307 -0.7811 -0.5238  0.4447
10390TIP3   OH255364   6.013   5.572   2.070  0.4553 -0.3433  0.0862
10390TIP3    H155365   6.062   5.566   1.988 -0.3811 -0.1982 -0.4345
10390TIP3    H255366   6.053   5.505   2.126  0.5544 -0.9464 -0.6903
10391TIP3   OH255367   4.684   1.458   0.760  0.0995  0.4297 -0.7383
10391TIP3    H155368   4.626   1.475   0.686 -1.0337 -0.3094 -0.0652
10391TIP3    H255369   4.625   1.432   0.831  1.3466 -2.8684 -0.7136
10392TIP3   OH255370   3.547   6.119   1.495  0.2349  0.8944 -0.5172
10392TIP3    H155371   3.482   6.082   1.555 -0.9779  1.0125 -1.7116
10392TIP3    H255372   3.586   6.192   1.544 -1.0327  1.2594 -0.0008
10393TIP3   OH255373   1.502   4.511   3.705 -0.0312  0.2994 -0.6938
10393TIP3    H155374   1.534   4.440   3.648 -1.3369 -0.6462 -0.2869
10393TIP3    H255375   1.582   4.550   3.740  0.7336 -0.9615 -0.9358
10394TIP3   OH255376   2.667   6.080   2.096  0.1269  0.0694 -0.3530
10394TIP3    H155377   2.608   6.051   2.027  3.2196 -1.1173 -2.7045
10394TIP3    H255378   2.676   6.005   2.154 -0.8796  0.3669  0.2029
10395TIP3   OH255379   5.960   2.832   1.651 -0.0512 -0.5750 -0.2403
10395TIP3    H155380   5.904   2.852   1.726  0.5265  4.2981 -0.7562
10395TIP3    H255381   5.899   2.826   1.577 -0.2266  0.8691 -0.2344
10396TIP3   OH255382   6.615   2.738   3.432  0.0171  0.6134  0.0740
10396TIP3    H155383   6.546   2.760   3.495  0.8541  1.8595  0.6009
10396TIP3    H255384   6.640   2.649   3.455 -0.8375  0.4466  0.4146
10397TIP3   OH255385   2.529   5.165   3.311  0.0704 -0.3349  0.1961
10397TIP3    H155386   2.558   5.256   3.316  0.3894 -0.4455  0.3489
10397TIP3    H255387   2.505   5.152   3.219 -1.7661  0.4554  0.5067
10398TIP3   OH255388   5.488   1.863   1.723 -0.7311  0.3160 -0.7290
10398TIP3    H155389   5.531   1.803   1.661  1.0065  2.2352 -1.4964
10398TIP3    H255390   5.470   1.941   1.672 -0.0516  1.6475  0.9759
10399TIP3   OH255391   1.944   6.611   0.392 -1.1230 -0.2994  0.5377
10399TIP3    H155392   1.977   6.531   0.432  2.0388 -0.0653 -1.2958
10399TIP3    H255393   2.020   6.669   0.387 -2.7389  1.8935 -0.4442
10400TIP3   OH255394   0.353   6.403   1.150  0.1109 -0.1376 -0.2416
10400TIP3    H155395   0.326   6.459   1.223 -0.8572  0.2203 -0.8689
10400TIP3    H255396   0.421   6.346   1.188  0.1585  0.5517  0.7389
10401TIP3   OH255397   5.882   2.285   1.096 -0.2969 -0.5458 -0.0490
10401TIP3    H155398   5.897   2.326   1.182  0.9935  0.6481 -0.8003
10401TIP3    H255399   5.838   2.352   1.045 -0.0694 -0.8547 -0.6610
10402TIP3   OH255400   1.074   5.840   1.843  0.1801  0.6216  0.2382
10402TIP3    H155401   1.002   5.778   1.832  0.1192  0.9692 -1.6545
10402TIP3    H255402   1.051   5.891   1.921 -1.0719  0.0059  0.2891
10403TIP3   OH255403   5.853   0.729   2.108 -0.6700  0.1114  0.8440
10403TIP3    H155404   5.886   0.758   2.193 -1.9311  0.4450  1.2406
10403TIP3    H255405   5.760   0.748   2.110 -0.4090  2.2482 -1.4719
10404TIP3   OH255406   0.533   2.069   2.270  0.0481 -0.4605  0.5316
10404TIP3    H155407   0.540   2.081   2.364 -1.1540 -0.7710  0.6785
10404TIP3    H255408   0.538   1.974   2.258  0.1769 -0.4236  0.2857
10405TIP3   OH255409   0.998   2.848   3.074 -0.0594  0.5177  0.1173
10405TIP3    H155410   0.939   2.795   3.021 -0.2420  0.7826  0.0559
10405TIP3    H255411   0.977   2.939   3.050 -1.3563  0.7377  1.8678
10406TIP3   OH255412   2.785   2.380   1.278  0.0594  0.4951  0.2368
10406TIP3    H155413   2.701   2.345   1.310 -0.0357 -0.8809 -1.3887
10406TIP3    H255414   2.771   2.393   1.184  2.1668 -1.4344 -0.4157
10407TIP3   OH255415   4.326   3.411   1.654 -0.0289 -0.0656  0.0482
10407TIP3    H155416   4.269   3.445   1.723  1.3712  2.1375  0.2416
10407TIP3    H255417   4.381   3.346   1.697  0.7874  1.2404  1.0877
10408TIP3   OH255418   6.110   3.916   2.525 -0.1172 -0.0004  0.9011
10408TIP3    H155419   6.046   3.883   2.463 -1.7840  1.5372  1.7216
10408TIP3    H255420   6.159   3.982   2.476 -0.0238 -0.2652  0.6370
10409TIP3   OH255421   1.244   1.124   2.156 -0.0878  0.1913  0.2012
10409TIP3    H155422   1.310   1.056   2.145 -0.2820  0.0813 -0.3361
10409TIP3    H255423   1.294   1.204   2.172  0.1756  0.0954 -0.1245
10410TIP3   OH255424   3.678   0.271   1.716 -0.3413  0.0782  0.2482
10410TIP3    H155425   3.688   0.264   1.811  1.4791  1.0438  0.1790
10410TIP3    H255426   3.728   0.197   1.681  0.3554  0.6457  0.0244
10411TIP3   OH255427   1.960   1.492   2.612 -0.0908 -0.0736  0.2078
10411TIP3    H155428   1.902   1.558   2.650 -0.3901 -1.2323  1.9105
10411TIP3    H255429   1.903   1.419   2.591  0.4904 -0.4995  0.0788
10412TIP3   OH255430   6.824   0.522   0.740 -0.1466  0.1391  0.2050
10412TIP3    H155431   6.738   0.480   0.745  0.8304 -1.8704  1.3819
10412TIP3    H255432   6.870   0.473   0.672  0.9320 -0.5664  1.4021
10413TIP3   OH255433   4.679   7.511   2.405 -0.8623 -0.0755  0.2321
10413TIP3    H155434   4.757   7.539   2.453 -0.0295 -1.2380 -0.3771
10413TIP3    H255435   4.702   7.425   2.369 -0.6838  1.4636 -3.9115
10414TIP3   OH255436   6.647   6.937   2.284 -0.0828  0.2582  0.3740
10414TIP3    H155437   6.731   6.894   2.267 -0.1249  0.5965 -0.7679
10414TIP3    H255438   6.644   6.947   2.379  1.0969  0.1045  0.4412
10415TIP3   OH255439   0.730   2.087   0.769 -0.4602  0.2971 -0.2113
10415TIP3    H155440   0.729   1.991   0.774  1.2049  0.2072 -0.8954
10415TIP3    H255441   0.755   2.115   0.856 -1.5010  0.1573  0.1495
10416TIP3   OH255442   0.929   4.013   2.468  0.5518  0.9998 -0.9089
10416TIP3    H155443   0.976   3.968   2.399  1.0329  1.9343 -1.2049
10416TIP3    H255444   0.997   4.041   2.530  0.3706  2.0756 -1.1772
10417TIP3   OH255445   3.897   3.793   0.865  0.0731  0.2932  0.6547
10417TIP3    H155446   3.936   3.834   0.788 -0.5588 -0.0356  0.1541
10417TIP3    H255447   3.921   3.851   0.937  1.8963 -0.1461  0.4526
10418TIP3   OH255448   4.393   7.343   0.488  0.6505 -0.8263  0.1289
10418TIP3    H155449   4.442   7.306   0.562  0.5614 -0.4632  0.3764
10418TIP3    H255450   4.308   7.300   0.492  0.3703 -0.2412  0.7212
10419TIP3   OH255451   7.062   0.564   0.896  0.4023  0.6150 -0.3012
10419TIP3    H155452   7.010   0.575   0.816  0.8087  1.5207 -0.4437
10419TIP3    H255453   7.109   0.482   0.883 -1.0718 -0.2934 -0.1185
10420TIP3   OH255454   5.056   3.381   2.105 -0.3982  0.0176  0.5219
10420TIP3    H155455   5.057   3.433   2.186 -1.0830 -0.9261  1.1562
10420TIP3    H255456   5.036   3.445   2.036  0.6164  0.9040  1.0276
10421TIP3   OH255457   6.135   5.869   2.035 -0.4765 -0.5196  0.5653
10421TIP3    H155458   6.097   5.945   2.080 -1.1607 -0.2210 -0.4910
10421TIP3    H255459   6.060   5.811   2.020 -0.1811 -0.8086  0.1987
10422TIP3   OH255460   1.674   6.422   1.728 -0.7112 -0.4772 -0.0139
10422TIP3    H155461   1.693   6.464   1.813  2.3297 -0.3521 -0.6348
10422TIP3    H255462   1.683   6.328   1.745  1.5454 -0.3927 -0.4520
10423TIP3   OH255463   5.148   1.184   1.603 -0.6895 -0.5190 -0.2051
10423TIP3    H155464   5.142   1.257   1.665 -0.9850  0.1999 -1.0486
10423TIP3    H255465   5.209   1.215   1.536  0.5780 -1.7624  0.3378
10424TIP3   OH255466   3.814   5.164   0.546  0.4125  0.0964  0.4538
10424TIP3    H155467   3.791   5.080   0.506  0.0923 -0.5369  1.9093
10424TIP3    H255468   3.733   5.192   0.590  0.0036  1.9955 -1.3429
10425TIP3   OH255469   5.727   3.103   1.647 -0.1125 -0.1204  0.2004
10425TIP3    H155470   5.643   3.064   1.624  0.0094 -0.3500  0.1438
10425TIP3    H255471   5.772   3.035   1.697  0.4938 -0.4154 -0.7166
10426TIP3   OH255472   5.466   1.373   1.660 -0.3577  0.1383  0.2081
10426TIP3    H155473   5.499   1.342   1.744 -0.0806  0.1279  0.0961
10426TIP3    H255474   5.391   1.429   1.682 -0.8498 -0.5799  0.4181
10427TIP3   OH255475   3.255   5.990   0.772 -0.1982 -0.3318  0.1785
10427TIP3    H155476   3.221   6.053   0.708 -1.3957 -0.6505  0.4791
10427TIP3    H255477   3.184   5.980   0.835 -0.0891 -2.0866  0.0558
10428TIP3   OH255478   4.524   2.470   2.437  0.2852 -0.2468  0.3154
10428TIP3    H155479   4.559   2.508   2.517 -0.7163  0.5098  0.4181
10428TIP3    H255480   4.429   2.468   2.451  0.0964 -0.1470 -0.8250
10429TIP3   OH255481   6.074   0.790   0.922  0.1926  0.1181  0.0722
10429TIP3    H155482   6.161   0.780   0.962  0.7542 -0.4143 -1.2127
10429TIP3    H255483   6.018   0.818   0.994  1.0438 -1.2825  1.3490
10430TIP3   OH255484   7.408   2.203   0.422 -0.3341  0.1302  0.3345
10430TIP3    H155485   7.436   2.221   0.511 -1.0493 -0.5864  0.7179
10430TIP3    H255486   7.443   2.275   0.370  1.1398 -0.0932  0.9836
10431TIP3   OH255487   6.520   2.963   2.425 -1.0752  0.0436 -0.3356
10431TIP3    H155488   6.495   2.957   2.517  0.7875 -1.3358  0.1196
10431TIP3    H255489   6.488   2.882   2.386 -3.5750  1.4394 -1.4263
10432TIP3   OH255490   5.786   4.891   1.616  0.2882  0.0185  0.2842
10432TIP3    H155491   5.713   4.893   1.554  0.8510 -0.9944 -0.4302
10432TIP3    H255492   5.817   4.982   1.618 -1.4709  0.6385  1.2182
10433TIP3   OH255493   4.950   2.410   1.302 -0.1370 -0.2843 -0.8673
10433TIP3    H155494   5.017   2.351   1.336  0.3842 -0.4742 -2.1462
10433TIP3    H255495   4.959   2.490   1.353  0.3687 -0.6702 -0.3384
10434TIP3   OH255496   2.574   1.932   2.887 -0.4810  0.0579 -0.8732
10434TIP3    H155497   2.612   2.019   2.878  0.4317 -0.3088 -0.6689
10434TIP3    H255498   2.603   1.901   2.973 -2.0695  0.1465 -0.2735
10435TIP3   OH255499   0.015   1.098   3.026 -0.0688  0.3170  0.7934
10435TIP3    H155500  -0.028   1.044   3.093  0.7223  0.0430  1.0916
10435TIP3    H255501   0.108   1.092   3.047  0.5395 -2.1329 -2.0147
10436TIP3   OH255502   4.900   3.878   1.273 -0.0865  0.2179  0.3081
10436TIP3    H155503   4.813   3.858   1.307 -0.5067  0.0015 -0.8548
10436TIP3    H255504   4.935   3.943   1.334 -0.6186 -0.4723  1.3984
10437TIP3   OH255505   6.770   0.128   1.375 -0.0998 -0.3492  0.2470
10437TIP3    H155506   6.824   0.136   1.296  0.4620  0.1688  0.6768
10437TIP3    H255507   6.767   0.216   1.411 -0.5228 -0.5447  0.6988
10438TIP3   OH255508   0.800   5.137   2.521  0.0497  0.5571 -0.1021
10438TIP3    H155509   0.722   5.124   2.467  0.6571  0.9905 -1.1212
10438TIP3    H255510   0.861   5.069   2.493  0.4410  0.9044 -0.1152
10439TIP3   OH255511   3.196   3.966   2.225  0.2512  0.3223 -0.2626
10439TIP3    H155512   3.198   3.894   2.288 -1.8145  1.0703  0.7758
10439TIP3    H255513   3.213   3.925   2.140 -0.5229 -1.3493  0.3549
   7.56682   7.56682  30.00000
