Title
55513
    1DOPE     N    1   0.060   1.825   2.822  0.0063 -0.1836 -0.0339
    1DOPE   HN1    2   0.152   1.858   2.855  0.2376  0.6766 -1.4634
    1DOPE   HN2    3  -0.018   1.874   2.870  0.1613  0.1936 -0.1623
    1DOPE   HN3    4   0.053   1.722   2.832 -1.9339 -0.3428 -2.0650
    1DOPE   C12    5   0.043   1.846   2.673  0.2242  0.1192  0.5056
    1DOPE  H12A    6   0.127   1.793   2.623 -1.8130 -1.2039 -1.7414
    1DOPE  H12B    7   0.036   1.955   2.652  0.0553  0.1096  0.5128
    1DOPE   C11    8  -0.077   1.763   2.615  0.0162  0.1132  0.4743
    1DOPE  H11A    9  -0.089   1.783   2.507 -0.6980 -3.1422 -0.1483
    1DOPE  H11B   10  -0.170   1.807   2.656 -0.8773  0.9190 -2.2436
    1DOPE     P   11  -0.170   1.523   2.651 -0.4644 -0.2222  0.2471
    1DOPE   O13   12  -0.222   1.535   2.788  1.1569 -0.2382  0.5125
    1DOPE   O14   13  -0.120   1.386   2.610 -0.0855 -0.5681  0.1213
    1DOPE   O11   14  -0.278   1.571   2.552  0.5040  0.7290  0.2947
    1DOPE   O12   15  -0.057   1.626   2.641 -0.2797 -0.0642 -0.0807
    1DOPE    C1   16  -0.270   1.560   2.412 -0.6115 -0.5144  0.1211
    1DOPE    HA   17  -0.169   1.527   2.382 -0.2594 -1.1027  1.8599
    1DOPE    HB   18  -0.285   1.660   2.365  1.7878  0.3477  1.0185
    1DOPE    C2   19  -0.364   1.453   2.370  0.1868 -0.8684 -0.1423
    1DOPE    HS   20  -0.325   1.356   2.408  1.7924 -0.3066 -0.2862
    1DOPE   O21   21  -0.354   1.446   2.231  0.0060  0.6549 -0.4261
    1DOPE   C21   22  -0.420   1.340   2.188 -0.0324 -0.1784 -1.0763
    1DOPE   O22   23  -0.455   1.243   2.257  0.1237 -0.4533 -0.1500
    1DOPE   C22   24  -0.454   1.368   2.040  0.1042 -0.2695 -0.8238
    1DOPE   H2R   25  -0.363   1.390   1.981  2.8307  0.2127  3.1336
    1DOPE   H2S   26  -0.534   1.445   2.036 -1.5880 -2.0124 -3.0906
    1DOPE    C3   27  -0.506   1.488   2.422  0.4915 -0.2905  0.3595
    1DOPE    HX   28  -0.503   1.465   2.531 -2.2417 -0.2112  0.5046
    1DOPE    HY   29  -0.579   1.424   2.368  1.3665 -2.0314  1.1565
    1DOPE   O31   30  -0.534   1.634   2.409  0.1623  0.2120  0.3502
    1DOPE   C31   31  -0.583   1.678   2.293  0.3138 -0.7343 -0.6071
    1DOPE   O32   32  -0.605   1.606   2.197 -0.0648  0.4459 -0.4918
    1DOPE   C32   33  -0.597   1.832   2.299  0.1744 -0.3105 -0.6259
    1DOPE   H2X   34  -0.672   1.857   2.377  0.2660 -0.4261 -0.5011
    1DOPE   H2Y   35  -0.496   1.874   2.321  0.4210  1.3553 -4.1817
    1DOPE   C23   36  -0.530   1.246   1.985  0.1170 -0.0634  0.5646
    1DOPE   H3R   37  -0.617   1.263   1.918 -0.8114  0.9707  1.9811
    1DOPE   H3S   38  -0.568   1.190   2.073 -0.7938  0.1230  0.2940
    1DOPE   C24   39  -0.438   1.146   1.911 -0.0887 -0.7491 -0.5072
    1DOPE   H4R   40  -0.457   1.036   1.911  1.1909 -1.0251  1.1795
    1DOPE   H4S   41  -0.342   1.160   1.966 -1.7043  2.4056  1.8551
    1DOPE   C25   42  -0.424   1.196   1.764  0.6843 -0.0461 -0.0331
    1DOPE   H5R   43  -0.413   1.307   1.764  1.0544  0.0059  2.7823
    1DOPE   H5S   44  -0.521   1.179   1.714 -0.0931  1.6508  0.7925
    1DOPE   C26   45  -0.308   1.139   1.679 -0.4717  0.0092 -0.1767
    1DOPE   H6R   46  -0.309   1.030   1.697 -1.0816 -0.1803 -1.2313
    1DOPE   H6S   47  -0.215   1.185   1.718 -1.4229  1.1446  0.8145
    1DOPE   C27   48  -0.316   1.152   1.527 -0.2140 -0.2723 -0.0057
    1DOPE   H7R   49  -0.299   1.260   1.504  0.4932 -0.6786 -1.5117
    1DOPE   H7S   50  -0.420   1.137   1.493 -1.0857  1.7502  1.5223
    1DOPE   C28   51  -0.217   1.066   1.447  0.8007  0.3974 -0.1643
    1DOPE   H8R   52  -0.120   1.062   1.500  1.5754  2.8434 -1.2446
    1DOPE   H8S   53  -0.206   1.126   1.354 -2.4565 -1.9097 -2.2687
    1DOPE   C29   54  -0.262   0.930   1.400  0.2916  0.4150 -0.1593
    1DOPE   H9R   55  -0.248   0.850   1.474 -1.1675 -1.0352 -1.3966
    1DOPE  C210   56  -0.307   0.894   1.285 -0.0622  0.0325  0.6544
    1DOPE  H10R   57  -0.327   0.788   1.263  2.5088 -0.2372 -0.7766
    1DOPE  C211   58  -0.341   0.981   1.167 -0.7660 -0.0503  0.6579
    1DOPE  H11R   59  -0.332   1.091   1.182  0.5174  0.2007 -1.4775
    1DOPE  H11S   60  -0.445   0.962   1.132 -0.4502  0.0661 -0.3963
    1DOPE  C212   61  -0.252   0.959   1.036 -0.1035  0.1322  0.2056
    1DOPE  H12R   62  -0.277   0.856   1.002  0.2905 -0.3061  1.2244
    1DOPE  H12S   63  -0.146   0.952   1.069 -0.2985 -0.8877  0.6581
    1DOPE  C213   64  -0.267   1.062   0.936 -0.2054 -0.2054 -0.0895
    1DOPE  H13R   65  -0.222   1.152   0.982  0.3762 -1.9043  2.9448
    1DOPE  H13S   66  -0.375   1.074   0.912 -0.2360  0.9892  0.5884
    1DOPE  C214   67  -0.205   1.020   0.804  0.3688 -0.0995  0.1990
    1DOPE  H14R   68  -0.251   0.923   0.775 -1.1565  0.3189  1.0832
    1DOPE  H14S   69  -0.098   0.992   0.816  0.1910 -0.7124  0.4211
    1DOPE  C215   70  -0.229   1.122   0.692  0.0188  0.2666  0.2156
    1DOPE  H15R   71  -0.160   1.210   0.690  0.6103 -0.1716 -2.5205
    1DOPE  H15S   72  -0.333   1.158   0.701  0.5699  2.3492 -0.9012
    1DOPE  C216   73  -0.216   1.070   0.547 -0.5427 -0.0431 -0.6797
    1DOPE  H16R   74  -0.240   0.962   0.542  0.1988 -0.1714 -1.6046
    1DOPE  H16S   75  -0.114   1.065   0.504  0.0102  3.3594 -0.0643
    1DOPE  C217   76  -0.308   1.151   0.453  0.7674  0.6348  0.4249
    1DOPE  H17R   77  -0.296   1.259   0.476 -2.4955  0.7077  2.4400
    1DOPE  H17S   78  -0.413   1.117   0.463  0.6996  0.6351 -0.2039
    1DOPE  C218   79  -0.273   1.129   0.305 -0.5070 -0.2896  0.2426
    1DOPE  H18R   80  -0.289   1.026   0.267  0.1958 -1.0259  1.8732
    1DOPE  H18S   81  -0.164   1.149   0.295 -0.6592  0.3384 -0.2619
    1DOPE  H18T   82  -0.319   1.212   0.247 -1.5887  2.5871  4.6864
    1DOPE   C33   83  -0.639   1.894   2.163  0.1205 -0.2989  0.5376
    1DOPE   H3X   84  -0.697   1.988   2.180  0.8231 -0.1136  2.0681
    1DOPE   H3Y   85  -0.710   1.824   2.114  2.5493 -1.9472 -0.8614
    1DOPE   C34   86  -0.521   1.905   2.066 -0.0832 -0.4406 -0.4098
    1DOPE   H4X   87  -0.452   1.965   2.129 -1.3459 -1.8595  2.5120
    1DOPE   H4Y   88  -0.491   1.800   2.049 -0.9859 -1.0589  1.6047
    1DOPE   C35   89  -0.549   1.965   1.928 -0.1184 -0.4252 -0.1543
    1DOPE   H5X   90  -0.452   1.994   1.882 -0.0314 -0.4757 -0.0031
    1DOPE   H5Y   91  -0.603   2.061   1.942 -1.7389 -1.5329  1.6905
    1DOPE   C36   92  -0.615   1.876   1.823 -0.1355  0.6899 -0.2688
    1DOPE   H6X   93  -0.710   1.844   1.870  1.0507 -0.2649  1.6142
    1DOPE   H6Y   94  -0.552   1.786   1.805  1.4746  1.9609 -1.3277
    1DOPE   C37   95  -0.635   1.946   1.689 -0.0699 -0.2188 -0.1113
    1DOPE   H7X   96  -0.676   2.045   1.718 -0.7043 -0.4097 -0.3475
    1DOPE   H7Y   97  -0.537   1.954   1.638 -1.0524 -0.9779 -2.2230
    1DOPE   C38   98  -0.724   1.870   1.596 -0.4633  0.0290  0.2152
    1DOPE   H8X   99  -0.816   1.853   1.656 -0.7846  0.2831 -0.1980
    1DOPE   H8Y  100  -0.690   1.766   1.575  0.0331  0.1293  0.5242
    1DOPE   C39  101  -0.775   1.955   1.480  0.5932 -1.0252 -0.0120
    1DOPE   H9X  102  -0.870   2.008   1.491  0.0745 -2.2027  1.4600
    1DOPE  C310  103  -0.724   1.962   1.353  0.4252  0.6360  0.8562
    1DOPE  H10X  104  -0.764   2.040   1.286  0.5330  0.4398  0.5571
    1DOPE  C311  105  -0.596   1.901   1.302 -0.5489 -0.2608 -0.0546
    1DOPE  H11X  106  -0.513   1.951   1.356 -1.0702 -0.3317  0.8355
    1DOPE  H11Y  107  -0.592   1.792   1.324  0.6499 -0.3972 -0.8188
    1DOPE  C312  108  -0.562   1.910   1.152  0.8074 -0.2274  0.8853
    1DOPE  H12X  109  -0.464   1.860   1.139  1.0212 -0.2992  2.5357
    1DOPE  H12Y  110  -0.550   2.018   1.128 -1.3018  0.2057  1.6058
    1DOPE  C313  111  -0.662   1.855   1.051 -0.1333 -0.5419  0.0722
    1DOPE  H13X  112  -0.689   1.748   1.067 -0.6207 -0.4696 -0.2432
    1DOPE  H13Y  113  -0.757   1.913   1.058  0.1127  0.0675 -1.2642
    1DOPE  C314  114  -0.615   1.870   0.899  0.3073  0.3482  0.0866
    1DOPE  H14X  115  -0.506   1.848   0.910  0.4638  1.0056 -0.1096
    1DOPE  H14Y  116  -0.615   1.976   0.866 -0.3088  0.3829  0.1914
    1DOPE  C315  117  -0.673   1.764   0.800  0.5882  0.2387  0.8703
    1DOPE  H15X  118  -0.783   1.782   0.793  0.9793  3.0604  0.6231
    1DOPE  H15Y  119  -0.665   1.664   0.848 -1.0947 -1.3767 -1.9664
    1DOPE  C316  120  -0.609   1.768   0.662  0.9526  1.3638 -0.8548
    1DOPE  H16X  121  -0.499   1.753   0.668  0.5976 -1.3002  2.5757
    1DOPE  H16Y  122  -0.631   1.868   0.619 -0.7324  2.1064  1.5247
    1DOPE  C317  123  -0.671   1.662   0.577  0.1259 -0.4507 -0.2066
    1DOPE  H17X  124  -0.625   1.567   0.614 -0.1341 -0.0321  1.2684
    1DOPE  H17Y  125  -0.782   1.663   0.585  0.0807  2.4303 -0.3651
    1DOPE  C318  126  -0.634   1.684   0.430 -0.3899 -0.4466  0.0548
    1DOPE  H18X  127  -0.700   1.763   0.386  1.3438  0.7047 -0.5721
    1DOPE  H18Y  128  -0.528   1.715   0.424 -0.7616  0.6916 -1.1034
    1DOPE  H18Z  129  -0.640   1.590   0.371 -3.5032 -0.1139 -0.3478
    2DOPE     N  130   0.339   1.452   2.570  0.0250 -0.3788 -0.2798
    2DOPE   HN1  131   0.290   1.380   2.627 -0.6085 -0.9232 -1.4841
    2DOPE   HN2  132   0.423   1.413   2.523  0.3877  1.1696 -0.9682
    2DOPE   HN3  133   0.367   1.521   2.643  0.2659 -0.1075 -0.6290
    2DOPE   C12  134   0.257   1.526   2.471 -0.4681 -0.0011  0.5672
    2DOPE  H12A  135   0.153   1.537   2.507 -1.0872  1.6142 -1.5074
    2DOPE  H12B  136   0.252   1.452   2.389  1.8989  0.4157 -0.0183
    2DOPE   C11  137   0.332   1.655   2.414  0.2864 -0.3380 -0.3333
    2DOPE  H11A  138   0.268   1.697   2.334  0.0295 -1.8990 -0.9857
    2DOPE  H11B  139   0.437   1.639   2.379  1.0198  2.2911  0.4875
    2DOPE     P  140   0.416   1.877   2.543  0.4357 -0.1367  0.3346
    2DOPE   O13  141   0.553   1.849   2.577  0.7422 -1.0151  0.1653
    2DOPE   O14  142   0.348   1.969   2.629  0.0397  0.2882  0.2235
    2DOPE   O11  143   0.428   1.926   2.394  0.2678 -0.3805 -0.1435
    2DOPE   O12  144   0.332   1.746   2.526 -0.4208  0.5333 -0.1911
    2DOPE    C1  145   0.426   2.076   2.388  0.0670  0.9719 -0.2583
    2DOPE    HA  146   0.515   2.124   2.433 -0.1651  1.6819 -0.5444
    2DOPE    HB  147   0.336   2.111   2.443 -0.4222 -0.9901  0.2937
    2DOPE    C2  148   0.406   2.142   2.251 -0.6126  0.0239 -0.1035
    2DOPE    HS  149   0.343   2.232   2.269  0.0824  0.2596  1.2476
    2DOPE   O21  150   0.331   2.055   2.165 -0.5156 -0.5059 -0.2416
    2DOPE   C21  151   0.207   2.045   2.187 -0.0768 -0.3188  1.2712
    2DOPE   O22  152   0.143   2.095   2.279  0.7058 -0.2300  1.1736
    2DOPE   C22  153   0.143   1.936   2.088  0.3026  0.4667 -0.2825
    2DOPE   H2R  154   0.207   1.845   2.087  0.8240  0.8091  0.8446
    2DOPE   H2S  155   0.143   1.985   1.988  0.5766 -0.0971 -0.5661
    2DOPE    C3  156   0.529   2.179   2.175  0.8957  0.0184 -0.3945
    2DOPE    HX  157   0.583   2.095   2.127  2.2029  0.2932  0.5634
    2DOPE    HY  158   0.592   2.224   2.254 -3.2542  3.1055  1.6035
    2DOPE   O31  159   0.494   2.286   2.083  0.8497  0.0953 -0.2313
    2DOPE   C31  160   0.490   2.260   1.949 -0.8305 -0.4716 -0.7290
    2DOPE   O32  161   0.536   2.156   1.902 -0.1484  0.0880  0.1270
    2DOPE   C32  162   0.427   2.369   1.871 -0.8116  0.4847 -0.4603
    2DOPE   H2X  163   0.360   2.411   1.949  0.8200 -1.2378  2.0247
    2DOPE   H2Y  164   0.502   2.442   1.834 -1.5123  1.2359 -0.3985
    2DOPE   C23  165   0.001   1.899   2.135  0.4651 -0.3050  0.5663
    2DOPE   H3R  166  -0.045   1.995   2.165  0.0378 -0.6457  1.0270
    2DOPE   H3S  167   0.008   1.831   2.223  0.7864 -0.2450  0.5873
    2DOPE   C24  168  -0.096   1.846   2.028 -0.1478 -0.2272  0.2870
    2DOPE   H4R  169  -0.098   1.915   1.940  0.8177 -0.6017 -0.0437
    2DOPE   H4S  170  -0.196   1.856   2.074  0.6193  1.4751  1.7113
    2DOPE   C25  171  -0.060   1.705   1.973  0.3775 -0.0729  0.3516
    2DOPE   H5R  172  -0.035   1.637   2.058  2.2781 -0.2668 -0.3228
    2DOPE   H5S  173   0.032   1.720   1.912  0.7238  0.7759  1.0629
    2DOPE   C26  174  -0.173   1.640   1.901  0.8561 -0.0897  0.1674
    2DOPE   H6R  175  -0.268   1.634   1.958  0.1089  2.6464 -0.6462
    2DOPE   H6S  176  -0.143   1.539   1.866 -0.3660 -0.2081 -0.6088
    2DOPE   C27  177  -0.203   1.732   1.771  0.6420  0.2153 -0.5417
    2DOPE   H7R  178  -0.114   1.737   1.704  0.4359  0.6914 -0.7814
    2DOPE   H7S  179  -0.237   1.833   1.801  0.3036 -0.2552  0.7256
    2DOPE   C28  180  -0.312   1.651   1.692  0.1191  0.3504  0.5456
    2DOPE   H8R  181  -0.402   1.639   1.755 -2.2816 -1.2875 -2.8717
    2DOPE   H8S  182  -0.270   1.549   1.678 -0.4636  0.2971 -1.0266
    2DOPE   C29  183  -0.345   1.733   1.568  0.4373 -0.1202 -0.6600
    2DOPE   H9R  184  -0.369   1.838   1.587  0.4748 -0.1528 -0.4313
    2DOPE  C210  185  -0.324   1.694   1.436 -0.3847  0.1126 -1.3167
    2DOPE  H10R  186  -0.358   1.764   1.358  1.1594  1.8888 -0.4752
    2DOPE  C211  187  -0.265   1.562   1.385  0.2978  0.2577 -0.2091
    2DOPE  H11R  188  -0.298   1.485   1.459 -2.1813  0.9982 -0.4250
    2DOPE  H11S  189  -0.155   1.548   1.379  0.8363  2.4376  2.6644
    2DOPE  C212  190  -0.321   1.525   1.246 -0.2988  0.6143 -0.2800
    2DOPE  H12R  191  -0.428   1.557   1.244 -0.1762  1.0225 -0.4296
    2DOPE  H12S  192  -0.322   1.414   1.243  1.5842  0.5332  0.6127
    2DOPE  C213  193  -0.231   1.576   1.129 -0.1468  0.4339  0.1383
    2DOPE  H13R  194  -0.141   1.511   1.137 -0.4741 -0.0160  0.2030
    2DOPE  H13S  195  -0.210   1.684   1.141 -0.4693  1.0429 -3.5369
    2DOPE  C214  196  -0.294   1.524   0.995  1.4137 -0.1148 -0.8129
    2DOPE  H14R  197  -0.399   1.558   0.990  0.9302 -1.2961  0.5777
    2DOPE  H14S  198  -0.294   1.413   1.003  1.9580  0.0184  2.7595
    2DOPE  C215  199  -0.210   1.562   0.873 -0.9320  0.1973 -0.3632
    2DOPE  H15R  200  -0.117   1.502   0.863 -1.2010 -0.1082 -1.1019
    2DOPE  H15S  201  -0.177   1.669   0.869 -0.0692 -0.1002 -3.1338
    2DOPE  C216  202  -0.281   1.544   0.742  0.3399 -0.7495  0.8246
    2DOPE  H16R  203  -0.375   1.602   0.731  0.8978 -0.1881 -1.5685
    2DOPE  H16S  204  -0.299   1.439   0.710  2.7874 -0.0798 -3.5522
    2DOPE  C217  205  -0.197   1.602   0.629  0.1693 -0.2323  0.9325
    2DOPE  H17R  206  -0.101   1.547   0.637  0.3292  0.3300  4.4891
    2DOPE  H17S  207  -0.173   1.705   0.663  3.9563 -0.5020 -0.4678
    2DOPE  C218  208  -0.264   1.587   0.493 -0.6277 -0.2530 -0.0847
    2DOPE  H18R  209  -0.210   1.641   0.411 -0.9614 -0.5112 -0.4797
    2DOPE  H18S  210  -0.369   1.617   0.513 -0.2133  0.7325  0.7111
    2DOPE  H18T  211  -0.272   1.483   0.455  1.1629  0.0186 -1.3417
    2DOPE   C33  212   0.339   2.311   1.757  0.0565  0.2989  0.1497
    2DOPE   H3X  213   0.270   2.391   1.725 -0.8130 -0.3385  0.3937
    2DOPE   H3Y  214   0.279   2.222   1.786  0.3147 -0.2273 -0.8875
    2DOPE   C34  215   0.410   2.289   1.628 -0.5129 -0.1941 -0.2912
    2DOPE   H4X  216   0.459   2.378   1.583  1.3013 -1.1395 -0.2630
    2DOPE   H4Y  217   0.480   2.206   1.652 -0.9443 -0.8092 -1.1360
    2DOPE   C35  218   0.316   2.247   1.519 -0.2742 -0.1781 -0.5056
    2DOPE   H5X  219   0.222   2.307   1.520  0.5161  1.1321  0.9387
    2DOPE   H5Y  220   0.282   2.144   1.542  0.8491 -0.5769 -0.5775
    2DOPE   C36  221   0.379   2.256   1.376 -0.7162  0.1002 -0.5498
    2DOPE   H6X  222   0.479   2.209   1.393 -1.5954 -2.1048 -1.1338
    2DOPE   H6Y  223   0.399   2.360   1.341  2.3157  0.4292  1.6953
    2DOPE   C37  224   0.301   2.188   1.264  0.4184  0.6834  0.3282
    2DOPE   H7X  225   0.265   2.093   1.309  1.5661 -0.2522 -0.6694
    2DOPE   H7Y  226   0.206   2.245   1.254  0.1948  0.7070  2.2364
    2DOPE   C38  227   0.377   2.178   1.139  0.6752  0.3945  0.4079
    2DOPE   H8X  228   0.477   2.133   1.156  0.7205  0.2697 -0.1621
    2DOPE   H8Y  229   0.383   2.278   1.091 -0.8211 -0.3104 -1.3978
    2DOPE   C39  230   0.310   2.084   1.036 -0.0256  0.5760  0.4770
    2DOPE   H9X  231   0.337   1.978   1.042 -0.6385  0.2495 -1.8160
    2DOPE  C310  232   0.258   2.119   0.917  0.5218 -0.1779 -0.4994
    2DOPE  H10X  233   0.206   2.041   0.858 -0.7761 -0.8823  1.4706
    2DOPE  C311  234   0.236   2.257   0.858  0.4700  0.8332 -0.3672
    2DOPE  H11X  235   0.140   2.249   0.802 -0.3118 -5.2166  1.1531
    2DOPE  H11Y  236   0.220   2.338   0.932  0.4436  1.0653 -0.6251
    2DOPE  C312  237   0.348   2.301   0.762 -0.1238  0.5163 -0.1389
    2DOPE  H12X  238   0.387   2.222   0.694  1.5287  0.0201  1.3009
    2DOPE  H12Y  239   0.437   2.330   0.822 -0.0719 -2.0279  1.1444
    2DOPE  C313  240   0.320   2.421   0.670  0.6610  0.1867  1.0768
    2DOPE  H13X  241   0.234   2.392   0.606 -0.0904  0.5315  1.8985
    2DOPE  H13Y  242   0.295   2.515   0.724  0.4442  1.2312 -0.7855
    2DOPE  C314  243   0.424   2.446   0.566 -0.2518 -0.6073  0.1037
    2DOPE  H14X  244   0.460   2.354   0.515 -2.1564 -0.6874 -1.2288
    2DOPE  H14Y  245   0.516   2.489   0.611  1.5638 -3.5994 -0.4873
    2DOPE  C315  246   0.389   2.544   0.459  0.2674 -0.1644 -0.0805
    2DOPE  H15X  247   0.402   2.643   0.507 -1.0662 -0.0507  0.0811
    2DOPE  H15Y  248   0.284   2.531   0.426  0.7229 -0.2853 -1.5716
    2DOPE  C316  249   0.485   2.541   0.340  0.2026 -0.3108 -0.3822
    2DOPE  H16X  250   0.450   2.475   0.258  1.4044 -0.5975 -0.6836
    2DOPE  H16Y  251   0.585   2.516   0.382  0.0742  2.7425  2.0477
    2DOPE  C317  252   0.508   2.683   0.278 -0.0825  0.2250 -0.0207
    2DOPE  H17X  253   0.412   2.731   0.247 -0.5165  0.7354  2.0184
    2DOPE  H17Y  254   0.542   2.751   0.358  2.6025 -2.4996  1.3247
    2DOPE  C318  255   0.610   2.694   0.169  0.6366 -0.0300 -0.3673
    2DOPE  H18X  256   0.583   2.784   0.109 -0.6583 -0.2097 -0.0908
    2DOPE  H18Y  257   0.709   2.724   0.209  0.7359 -0.2862 -0.4191
    2DOPE  H18Z  258   0.603   2.604   0.105 -0.0054 -1.4504  1.5882
    3DOPE     N  259  -2.179   1.682   2.019 -0.6819 -0.1543 -0.1447
    3DOPE   HN1  260  -2.240   1.711   1.939  0.3932 -0.2059 -1.0170
    3DOPE   HN2  261  -2.113   1.759   2.044  1.1443 -1.3935 -0.9045
    3DOPE   HN3  262  -2.119   1.608   1.977 -0.2050  0.0962  0.0888
    3DOPE   C12  263  -2.254   1.634   2.141  0.6181  0.3294  0.4333
    3DOPE  H12A  264  -2.217   1.535   2.175  0.5401 -0.0931 -0.6786
    3DOPE  H12B  265  -2.360   1.616   2.111  0.7684 -0.9598  0.6064
    3DOPE   C11  266  -2.259   1.749   2.243  0.3767  0.4249 -0.4515
    3DOPE  H11A  267  -2.297   1.707   2.339 -0.0555  2.7445  0.4513
    3DOPE  H11B  268  -2.325   1.826   2.197  0.3898  0.8309  0.2128
    3DOPE     P  269  -2.101   1.935   2.352  0.1188  0.2065  0.4920
    3DOPE   O13  270  -2.073   1.895   2.491 -0.1424 -0.1001  0.0715
    3DOPE   O14  271  -2.224   2.020   2.328  0.2029 -0.1160  0.1680
    3DOPE   O11  272  -1.978   2.005   2.285 -0.1157 -0.4122 -0.3204
    3DOPE   O12  273  -2.128   1.796   2.274  0.2693 -0.2336 -0.0845
    3DOPE    C1  274  -1.976   2.136   2.231  0.4618 -0.3960 -0.0796
    3DOPE    HA  275  -1.873   2.178   2.238  0.5548 -0.6146 -0.1497
    3DOPE    HB  276  -2.028   2.203   2.304  1.0105 -1.0967  0.9760
    3DOPE    C2  277  -2.031   2.132   2.084  0.5702 -0.4812 -1.2642
    3DOPE    HS  278  -2.127   2.079   2.095  0.2033  0.4945  0.6559
    3DOPE   O21  279  -1.927   2.073   2.004 -0.1431  0.0628  0.3377
    3DOPE   C21  280  -1.918   1.942   1.986  0.1270 -0.4201 -0.2411
    3DOPE   O22  281  -1.991   1.857   2.042 -1.3579  0.0183  0.1089
    3DOPE   C22  282  -1.796   1.913   1.895 -0.1147 -0.4376  0.0153
    3DOPE   H2R  283  -1.742   1.835   1.954 -1.1694 -1.3276 -0.1484
    3DOPE   H2S  284  -1.733   2.002   1.877  1.2241 -1.3382  0.0606
    3DOPE    C3  285  -2.077   2.273   2.031  0.0415  0.0818 -0.1665
    3DOPE    HX  286  -1.997   2.349   2.046 -1.2293  0.9953  2.8667
    3DOPE    HY  287  -2.162   2.308   2.094 -0.8661  2.0914 -2.3738
    3DOPE   O31  288  -2.128   2.255   1.897 -0.0394 -0.9288 -0.0828
    3DOPE   C31  289  -2.258   2.243   1.878 -0.1073  0.7291 -0.0042
    3DOPE   O32  290  -2.345   2.247   1.964 -0.6067 -0.4996  0.0410
    3DOPE   C32  291  -2.288   2.206   1.735 -0.2001 -0.8378  0.3921
    3DOPE   H2X  292  -2.382   2.261   1.714  0.4027  1.3118  2.8125
    3DOPE   H2Y  293  -2.205   2.246   1.672  1.3875 -2.3653  1.4216
    3DOPE   C23  294  -1.833   1.863   1.750 -0.2332 -0.1168  0.6199
    3DOPE   H3R  295  -1.902   1.929   1.693  0.3795 -1.5350 -1.9085
    3DOPE   H3S  296  -1.887   1.766   1.759 -1.1226  0.3261  0.1634
    3DOPE   C24  297  -1.713   1.870   1.649  0.3648  0.3861  0.3983
    3DOPE   H4R  298  -1.626   1.816   1.692  0.8198  0.9109  0.1440
    3DOPE   H4S  299  -1.680   1.976   1.641 -0.1352  0.5084 -0.1625
    3DOPE   C25  300  -1.752   1.822   1.502  0.1317 -0.0682 -0.5826
    3DOPE   H5R  301  -1.838   1.884   1.471  0.2034  1.0029  1.2169
    3DOPE   H5S  302  -1.762   1.711   1.510  2.5094 -0.2316  4.8271
    3DOPE   C26  303  -1.633   1.842   1.407  0.7967  0.7068  0.0570
    3DOPE   H6R  304  -1.541   1.786   1.435  0.8318  0.3613 -0.7158
    3DOPE   H6S  305  -1.608   1.949   1.419  0.3833  0.5823  2.3805
    3DOPE   C27  306  -1.668   1.805   1.260  0.5644  0.1662 -0.1563
    3DOPE   H7R  307  -1.769   1.846   1.234  0.1147 -0.6810  0.2114
    3DOPE   H7S  308  -1.663   1.694   1.256  1.1571  0.1686  0.4104
    3DOPE   C28  309  -1.566   1.861   1.160 -0.2534  0.6198 -0.2608
    3DOPE   H8R  310  -1.467   1.813   1.170 -1.0336 -0.6461  1.9997
    3DOPE   H8S  311  -1.547   1.963   1.200 -0.8205  0.5912  0.0918
    3DOPE   C29  312  -1.616   1.888   1.016 -0.0946  0.2148 -0.0478
    3DOPE   H9R  313  -1.723   1.875   0.991  0.4916  0.6152 -3.2260
    3DOPE  C210  314  -1.547   1.917   0.904 -0.5664  0.2934 -0.3885
    3DOPE  H10R  315  -1.600   1.955   0.815 -3.1193 -0.8727  0.5665
    3DOPE  C211  316  -1.399   1.915   0.901 -0.0904  0.0735 -0.8502
    3DOPE  H11R  317  -1.375   1.925   1.009  0.6169 -0.0151 -0.9963
    3DOPE  H11S  318  -1.352   1.997   0.843 -0.2681  1.3449  0.7254
    3DOPE  C212  319  -1.364   1.777   0.841 -0.2676 -0.4421  0.8147
    3DOPE  H12R  320  -1.428   1.701   0.890 -1.7957 -0.8538 -1.6119
    3DOPE  H12S  321  -1.256   1.768   0.862  0.0947  0.8834 -0.3001
    3DOPE  C213  322  -1.387   1.779   0.688  0.8478 -0.4413 -0.3068
    3DOPE  H13R  323  -1.306   1.844   0.646  0.5817  0.1740  0.1252
    3DOPE  H13S  324  -1.486   1.821   0.662  1.4465  0.2837 -1.5290
    3DOPE  C214  325  -1.375   1.645   0.629  0.0859  0.6219 -0.0061
    3DOPE  H14R  326  -1.461   1.587   0.666 -2.0048  2.1727 -2.1370
    3DOPE  H14S  327  -1.280   1.600   0.667 -0.5158  1.2945  2.4720
    3DOPE  C215  328  -1.364   1.640   0.475  0.8462  0.0595  0.3918
    3DOPE  H15R  329  -1.445   1.697   0.424 -1.3101 -3.7703 -0.9466
    3DOPE  H15S  330  -1.380   1.532   0.450  3.4736 -0.2928 -0.1074
    3DOPE  C216  331  -1.217   1.664   0.429 -0.0540 -0.0667 -0.2390
    3DOPE  H16R  332  -1.150   1.597   0.487 -1.9123 -1.9454 -0.1416
    3DOPE  H16S  333  -1.202   1.772   0.450 -1.8301  0.5269 -1.7205
    3DOPE  C217  334  -1.207   1.639   0.275  0.3465 -0.0885  0.4199
    3DOPE  H17R  335  -1.118   1.691   0.234 -1.6663  2.0509 -1.5065
    3DOPE  H17S  336  -1.293   1.679   0.218  0.2825 -0.7019  0.0735
    3DOPE  C218  337  -1.184   1.491   0.234 -0.4907  1.0362  0.4299
    3DOPE  H18R  338  -1.096   1.444   0.281 -0.7297 -0.0627 -0.2029
    3DOPE  H18S  339  -1.176   1.479   0.124  0.2204  1.5764  0.4168
    3DOPE  H18T  340  -1.270   1.429   0.268  0.3306  0.9386  2.4360
    3DOPE   C33  341  -2.322   2.054   1.703 -0.5726  0.2849 -0.0296
    3DOPE   H3X  342  -2.407   2.039   1.773 -1.4330  1.0976 -0.8653
    3DOPE   H3Y  343  -2.232   1.998   1.738 -0.4984 -1.7400 -3.0510
    3DOPE   C34  344  -2.361   2.021   1.561 -0.4860  0.0966  0.1518
    3DOPE   H4X  345  -2.427   1.931   1.556  0.1166 -0.3797  0.5297
    3DOPE   H4Y  346  -2.406   2.114   1.522 -0.0501 -1.5197 -5.0959
    3DOPE   C35  347  -2.231   2.003   1.476  0.2985 -0.1964  0.0625
    3DOPE   H5X  348  -2.153   1.931   1.507  2.0573 -0.1231 -3.5975
    3DOPE   H5Y  349  -2.181   2.103   1.475 -1.3629  0.6952  1.2292
    3DOPE   C36  350  -2.277   1.988   1.333 -0.2543 -0.2259 -0.1130
    3DOPE   H6X  351  -2.345   2.073   1.312  1.2533  0.5768 -2.1189
    3DOPE   H6Y  352  -2.342   1.899   1.331  0.2610 -0.6670  1.6381
    3DOPE   C37  353  -2.159   1.990   1.232  0.4079  0.2996  0.1299
    3DOPE   H7X  354  -2.099   2.081   1.250  2.8425 -1.4307  1.3715
    3DOPE   H7Y  355  -2.097   1.899   1.246  0.4663 -0.3650 -3.4952
    3DOPE   C38  356  -2.200   1.977   1.080  0.2166  0.6605  0.2900
    3DOPE   H8X  357  -2.255   1.881   1.082  0.8023  0.3321  0.8725
    3DOPE   H8Y  358  -2.110   1.971   1.014  0.4771 -0.9288  0.7685
    3DOPE   C39  359  -2.287   2.089   1.039 -0.5324  0.2857 -0.2064
    3DOPE   H9X  360  -2.320   2.148   1.126  0.7805 -0.1013  0.5802
    3DOPE  C310  361  -2.314   2.132   0.913 -0.4716  0.6380  0.4708
    3DOPE  H10X  362  -2.359   2.232   0.903 -2.6494 -0.4058 -1.2035
    3DOPE  C311  363  -2.277   2.056   0.783  0.0798  0.8292  0.0722
    3DOPE  H11X  364  -2.260   1.949   0.810  0.4191  1.0067  0.5754
    3DOPE  H11Y  365  -2.364   2.057   0.714  1.3798  0.3991 -1.6579
    3DOPE  C312  366  -2.157   2.113   0.711  0.0535 -0.4911  0.5258
    3DOPE  H12X  367  -2.077   2.123   0.787  0.7492 -1.2521 -0.0853
    3DOPE  H12Y  368  -2.174   2.217   0.675 -0.5589 -1.0317 -0.8043
    3DOPE  C313  369  -2.109   2.023   0.591  0.1356  0.3058  0.1855
    3DOPE  H13X  370  -2.000   2.043   0.578  0.0144  0.5198 -0.5049
    3DOPE  H13Y  371  -2.135   1.918   0.616 -1.3553  0.8938  1.2238
    3DOPE  C314  372  -2.195   2.041   0.464  0.4526 -0.2740 -0.3104
    3DOPE  H14X  373  -2.201   2.148   0.437 -0.6977 -0.0255  0.8566
    3DOPE  H14Y  374  -2.297   2.003   0.487  0.7887 -0.0659  1.7419
    3DOPE  C315  375  -2.141   1.947   0.353  0.0438  0.2379  0.1608
    3DOPE  H15X  376  -2.170   1.847   0.391 -0.3297  0.2095 -0.1997
    3DOPE  H15Y  377  -2.030   1.962   0.353  0.1849 -0.5072  1.9056
    3DOPE  C316  378  -2.201   1.961   0.217  0.6068  0.6763 -0.4181
    3DOPE  H16X  379  -2.310   1.944   0.228  0.8027 -1.4388 -1.2209
    3DOPE  H16Y  380  -2.171   1.879   0.149  0.9379 -0.5540  1.1536
    3DOPE  C317  381  -2.195   2.105   0.160 -0.2154  0.7084  0.2061
    3DOPE  H17X  382  -2.235   2.176   0.236 -1.6089 -1.5437  1.7089
    3DOPE  H17Y  383  -2.090   2.141   0.164 -0.1343  0.7489 -1.5528
    3DOPE  C318  384  -2.247   2.122   0.016 -0.1433  0.6622 -0.0170
    3DOPE  H18X  385  -2.239   2.231  -0.009  0.5711  1.1288  2.0515
    3DOPE  H18Y  386  -2.193   2.059  -0.057 -1.5583 -1.1866  0.4706
    3DOPE  H18Z  387  -2.354   2.094   0.010 -0.3375  1.5081 -0.7942
    4DOPE     N  388  -0.033   0.573   2.422  1.1221  0.2224 -0.5027
    4DOPE   HN1  389  -0.012   0.490   2.482 -0.2207  0.5894  0.5402
    4DOPE   HN2  390   0.030   0.578   2.340  1.1402 -0.7558 -0.5612
    4DOPE   HN3  391  -0.021   0.654   2.487 -0.6085  0.8941 -0.9458
    4DOPE   C12  392  -0.174   0.567   2.381  0.4214 -0.9976  0.1595
    4DOPE  H12A  393  -0.188   0.490   2.303 -0.0339 -1.5905  0.8136
    4DOPE  H12B  394  -0.198   0.671   2.350  1.8040 -0.5202  0.6286
    4DOPE   C11  395  -0.270   0.572   2.507  0.7874  0.1209  0.0406
    4DOPE  H11A  396  -0.375   0.588   2.473  0.7653 -0.0562  0.0254
    4DOPE  H11B  397  -0.246   0.665   2.562 -1.2767 -0.1630  1.5522
    4DOPE     P  398  -0.344   0.320   2.558  0.1908 -0.0741 -0.0327
    4DOPE   O13  399  -0.479   0.332   2.623 -0.3308  0.7509 -0.0440
    4DOPE   O14  400  -0.252   0.207   2.600  0.0159  0.0845  0.3346
    4DOPE   O11  401  -0.358   0.321   2.405 -0.2295 -0.4618  0.0527
    4DOPE   O12  402  -0.260   0.456   2.586 -0.1664 -0.3839 -0.0262
    4DOPE    C1  403  -0.418   0.203   2.349 -0.1793 -0.3881  0.3781
    4DOPE    HA  404  -0.511   0.175   2.404 -0.2697  1.0007  0.9713
    4DOPE    HB  405  -0.346   0.119   2.353  1.9293  1.3317 -0.0066
    4DOPE    C2  406  -0.452   0.240   2.196  0.5736  1.1029  1.2539
    4DOPE    HS  407  -0.493   0.150   2.146  2.8456  0.6517  0.0471
    4DOPE   O21  408  -0.335   0.285   2.132 -0.3652 -0.2199 -0.3001
    4DOPE   C21  409  -0.309   0.227   2.019  0.0046  0.2583  0.5721
    4DOPE   O22  410  -0.370   0.133   1.965  0.3560 -0.3721 -0.5395
    4DOPE   C22  411  -0.182   0.299   1.966  0.1622 -0.4709 -0.0332
    4DOPE   H2R  412  -0.098   0.264   2.030 -0.2007  0.9769  1.3089
    4DOPE   H2S  413  -0.193   0.406   1.994 -3.1375 -0.9176  0.8252
    4DOPE    C3  414  -0.544   0.364   2.196  0.0674  0.1693  0.1291
    4DOPE    HX  415  -0.497   0.449   2.250 -1.9380  0.7844  1.0006
    4DOPE    HY  416  -0.627   0.347   2.268 -0.0972 -0.8180 -0.2731
    4DOPE   O31  417  -0.594   0.401   2.061 -0.0481  0.0870  0.4774
    4DOPE   C31  418  -0.695   0.332   2.015 -0.3451  0.8396 -0.1458
    4DOPE   O32  419  -0.750   0.247   2.088  0.4287 -0.2266 -0.1936
    4DOPE   C32  420  -0.707   0.350   1.866  0.1001 -0.1878  0.0369
    4DOPE   H2X  421  -0.815   0.359   1.839  0.1301  0.4530  0.1253
    4DOPE   H2Y  422  -0.676   0.454   1.843  1.3314 -0.2102  1.4601
    4DOPE   C23  423  -0.148   0.270   1.820  0.6538  0.3200  1.0323
    4DOPE   H3R  424  -0.223   0.315   1.751  0.8673  0.0393  0.6085
    4DOPE   H3S  425  -0.139   0.160   1.810  0.6560  0.3846  0.1863
    4DOPE   C24  426  -0.015   0.333   1.788  0.0098 -0.6127  0.2620
    4DOPE   H4R  427   0.076   0.279   1.822  0.3818 -0.2431 -0.1271
    4DOPE   H4S  428  -0.017   0.436   1.831  0.7356  0.5143 -2.2032
    4DOPE   C25  429   0.004   0.356   1.638 -0.3175  0.3122 -0.0086
    4DOPE   H5R  430   0.009   0.464   1.613 -0.0069  0.5488  1.0316
    4DOPE   H5S  431  -0.086   0.309   1.593  2.2434 -3.0381 -2.1410
    4DOPE   C26  432   0.121   0.281   1.565 -1.1510 -0.3951  0.1311
    4DOPE   H6R  433   0.111   0.172   1.549 -0.8431 -0.4325  0.1729
    4DOPE   H6S  434   0.208   0.284   1.634 -1.0797 -1.3286  0.0955
    4DOPE   C27  435   0.159   0.363   1.438 -0.2374  0.2318  0.3957
    4DOPE   H7R  436   0.200   0.463   1.464  1.0620  0.2464 -1.4993
    4DOPE   H7S  437   0.073   0.375   1.369  0.1277  1.9532  0.1889
    4DOPE   C28  438   0.274   0.303   1.359 -0.0356  0.7196  0.1521
    4DOPE   H8R  439   0.361   0.314   1.427  0.5426 -1.1192 -0.2472
    4DOPE   H8S  440   0.282   0.373   1.273  1.2420  1.9871  1.2481
    4DOPE   C29  441   0.243   0.156   1.320 -0.3420 -1.2247 -0.5189
    4DOPE   H9R  442   0.253   0.090   1.407  2.3212 -0.1594  0.0669
    4DOPE  C210  443   0.212   0.107   1.195  0.1448 -0.4283  0.4025
    4DOPE  H10R  444   0.182   0.002   1.181 -0.6443 -0.1148 -0.3036
    4DOPE  C211  445   0.203   0.200   1.075  0.6835  0.1214 -0.6013
    4DOPE  H11R  446   0.155   0.296   1.103 -0.1217 -0.8965  1.7975
    4DOPE  H11S  447   0.128   0.160   1.003  1.8002  0.0216 -1.7331
    4DOPE  C212  448   0.335   0.221   1.011 -0.5401 -0.5236 -0.3935
    4DOPE  H12R  449   0.375   0.120   0.991  2.4874  0.3247  0.8735
    4DOPE  H12S  450   0.410   0.270   1.076 -2.7642  3.0507 -0.2098
    4DOPE  C213  451   0.325   0.292   0.876  0.0743 -0.0872  0.2780
    4DOPE  H13R  452   0.301   0.400   0.884  1.7999  0.5084 -1.6090
    4DOPE  H13S  453   0.246   0.259   0.806  0.7766  2.2635 -1.7772
    4DOPE  C214  454   0.461   0.297   0.799  0.9614 -0.1487 -0.3857
    4DOPE  H14R  455   0.503   0.195   0.795  1.1376 -0.0872 -0.1462
    4DOPE  H14S  456   0.532   0.364   0.853  2.0097 -0.7665 -0.9686
    4DOPE  C215  457   0.444   0.350   0.653 -0.0358  0.0821 -0.7131
    4DOPE  H15R  458   0.547   0.348   0.611  0.5048 -0.5739  0.5770
    4DOPE  H15S  459   0.408   0.455   0.648  0.4759  0.3522  0.6732
    4DOPE  C216  460   0.342   0.270   0.568 -0.0538  0.0906 -0.3560
    4DOPE  H16R  461   0.237   0.278   0.605 -0.3368 -1.9383 -0.5829
    4DOPE  H16S  462   0.362   0.161   0.567 -0.8888 -0.1121 -2.8051
    4DOPE  C217  463   0.342   0.307   0.415 -0.3646 -0.2300 -0.9519
    4DOPE  H17R  464   0.273   0.243   0.356 -0.4424 -0.9191 -0.1240
    4DOPE  H17S  465   0.447   0.289   0.383 -0.4839 -0.6575 -1.1129
    4DOPE  C218  466   0.302   0.449   0.390 -0.0875 -0.1136 -0.3186
    4DOPE  H18R  467   0.383   0.518   0.421  0.0965  0.7447 -2.5307
    4DOPE  H18S  468   0.210   0.479   0.445  0.1500 -1.6386  0.9769
    4DOPE  H18T  469   0.288   0.473   0.282 -1.3091  2.4028  0.3187
    4DOPE   C33  470  -0.631   0.250   1.772  0.0662  0.4741 -0.1212
    4DOPE   H3X  471  -0.652   0.145   1.802 -0.7856  0.3648 -1.0300
    4DOPE   H3Y  472  -0.520   0.258   1.777  0.0359  1.7606 -1.0353
    4DOPE   C34  473  -0.668   0.263   1.626  0.0965 -0.3400  0.7311
    4DOPE   H4X  474  -0.774   0.294   1.613  0.5569  1.0653  0.0472
    4DOPE   H4Y  475  -0.609   0.343   1.576  0.4577  0.5719  2.5571
    4DOPE   C35  476  -0.635   0.138   1.539  1.1791 -0.5309  0.2173
    4DOPE   H5X  477  -0.702   0.052   1.559  1.0692 -1.0414 -2.1318
    4DOPE   H5Y  478  -0.540   0.113   1.592  1.1160  0.4800  0.8344
    4DOPE   C36  479  -0.622   0.175   1.395  0.5518 -0.3090 -0.1333
    4DOPE   H6X  480  -0.616   0.083   1.334  1.6065  1.9422 -3.7974
    4DOPE   H6Y  481  -0.528   0.232   1.377  0.1880 -0.2611 -2.1467
    4DOPE   C37  482  -0.744   0.254   1.342 -0.0872  0.3698  0.4933
    4DOPE   H7X  483  -0.836   0.199   1.373 -0.7806 -0.1205 -2.2076
    4DOPE   H7Y  484  -0.746   0.354   1.390 -1.0968  0.3408  0.5388
    4DOPE   C38  485  -0.743   0.280   1.189 -0.0519  0.3117  0.0334
    4DOPE   H8X  486  -0.648   0.333   1.164 -0.6577  1.7879  0.7492
    4DOPE   H8Y  487  -0.824   0.352   1.165  0.9990  1.1008 -1.3115
    4DOPE   C39  488  -0.759   0.151   1.108 -0.0876 -0.5729 -0.0929
    4DOPE   H9X  489  -0.820   0.068   1.148  0.4534 -1.9076 -1.9132
    4DOPE  C310  490  -0.677   0.106   1.011  0.1531  0.4784  0.1943
    4DOPE  H10X  491  -0.720   0.017   0.963 -1.7261  0.3482  1.9896
    4DOPE  C311  492  -0.553   0.162   0.943  0.9577  0.2343  0.1161
    4DOPE  H11X  493  -0.500   0.230   1.013  0.8236  0.2000  0.2521
    4DOPE  H11Y  494  -0.490   0.073   0.925  0.9739  0.3503 -0.4334
    4DOPE  C312  495  -0.580   0.244   0.809 -0.2777  0.3170 -0.9921
    4DOPE  H12X  496  -0.480   0.285   0.782  0.2899 -0.1027  0.3694
    4DOPE  H12Y  497  -0.653   0.321   0.840  0.4386 -0.2707  2.6029
    4DOPE  C313  498  -0.644   0.174   0.685 -0.1055 -0.0495  0.0565
    4DOPE  H13X  499  -0.580   0.087   0.661  0.1693  1.1976 -4.9084
    4DOPE  H13Y  500  -0.745   0.137   0.715 -0.8943  0.9850 -1.1942
    4DOPE  C314  501  -0.648   0.257   0.553 -0.2090 -0.4461 -0.1533
    4DOPE  H14X  502  -0.547   0.255   0.507  0.2877  1.3142  0.7837
    4DOPE  H14Y  503  -0.661   0.366   0.570 -0.4471 -0.6684  1.2252
    4DOPE  C315  504  -0.751   0.205   0.452  0.3462  0.0015 -0.1724
    4DOPE  H15X  505  -0.834   0.167   0.515  0.9540  0.3959  0.9092
    4DOPE  H15Y  506  -0.705   0.121   0.395 -1.7444 -2.6128  1.7527
    4DOPE  C316  507  -0.778   0.299   0.338  0.2432  0.3411 -0.0107
    4DOPE  H16X  508  -0.682   0.299   0.281 -0.8706  0.3504 -1.9521
    4DOPE  H16Y  509  -0.796   0.400   0.380 -2.1465 -0.1231  0.2176
    4DOPE  C317  510  -0.911   0.276   0.273 -0.3589  0.1966 -0.5629
    4DOPE  H17X  511  -0.982   0.263   0.358 -2.0265 -1.8040 -2.1476
    4DOPE  H17Y  512  -0.938   0.373   0.225 -1.5806 -1.0234 -2.4694
    4DOPE  C318  513  -0.910   0.164   0.168 -0.0838 -0.5415 -0.3560
    4DOPE  H18X  514  -1.013   0.141   0.136  0.3963 -1.3728 -1.3902
    4DOPE  H18Y  515  -0.857   0.198   0.076 -0.3901  1.2888  0.0972
    4DOPE  H18Z  516  -0.861   0.070   0.202  2.5788  0.4981 -1.0672
    5DOPE     N  517  -2.333   0.961   2.121 -0.6875 -0.6156 -0.2497
    5DOPE   HN1  518  -2.405   0.899   2.079 -0.6266 -2.0491  1.6470
    5DOPE   HN2  519  -2.362   1.061   2.115  0.8998 -0.0062  1.3128
    5DOPE   HN3  520  -2.247   0.944   2.065 -1.0880  1.8021 -1.7521
    5DOPE   C12  521  -2.324   0.931   2.268 -0.5639  0.7890  0.5385
    5DOPE  H12A  522  -2.387   0.840   2.277 -0.0233  0.4089  0.5935
    5DOPE  H12B  523  -2.368   1.008   2.333 -2.1594  1.3160 -1.0876
    5DOPE   C11  524  -2.174   0.904   2.304  0.0068  0.2325  0.1941
    5DOPE  H11A  525  -2.152   0.798   2.282 -2.4538 -0.6001  1.4091
    5DOPE  H11B  526  -2.162   0.918   2.413 -1.3042  0.3410  0.3390
    5DOPE     P  527  -1.950   0.974   2.165  0.3244  0.3488 -0.1171
    5DOPE   O13  528  -1.861   0.884   2.239  0.1973  0.2538  0.2162
    5DOPE   O14  529  -1.897   1.103   2.115 -0.1893  0.3832  0.1902
    5DOPE   O11  530  -2.018   0.897   2.047  0.0520 -0.4308 -0.1533
    5DOPE   O12  531  -2.087   0.997   2.240 -0.8056 -0.0555 -0.1052
    5DOPE    C1  532  -2.000   0.763   2.010 -0.4409  0.6129 -0.1690
    5DOPE    HA  533  -2.084   0.710   1.961  0.0491 -0.1159 -0.2328
    5DOPE    HB  534  -1.979   0.705   2.102  1.1639  2.5734  0.7820
    5DOPE    C2  535  -1.884   0.755   1.907  0.8808 -0.5652 -0.1344
    5DOPE    HS  536  -1.790   0.759   1.966  1.7565 -2.4984 -1.3158
    5DOPE   O21  537  -1.901   0.873   1.817  0.0741  0.0729 -0.3826
    5DOPE   C21  538  -1.793   0.943   1.794  0.4827 -0.0612  0.5665
    5DOPE   O22  539  -1.688   0.929   1.854 -0.1250 -0.1334 -0.2995
    5DOPE   C22  540  -1.822   1.039   1.679  0.0165  0.6887 -0.0287
    5DOPE   H2R  541  -1.796   1.142   1.712  0.6202  0.1815  1.1165
    5DOPE   H2S  542  -1.932   1.040   1.660  0.1675  0.0966 -1.0151
    5DOPE    C3  543  -1.872   0.617   1.832  0.4987  0.3699 -0.4637
    5DOPE    HX  544  -1.971   0.579   1.798  0.5165  0.9259 -1.1404
    5DOPE    HY  545  -1.828   0.544   1.904 -1.2867  0.2363  0.5599
    5DOPE   O31  546  -1.804   0.642   1.703 -1.2171  0.1918 -0.1016
    5DOPE   C31  547  -1.672   0.634   1.699  0.0787 -0.3487 -0.5034
    5DOPE   O32  548  -1.606   0.621   1.799 -0.2834 -0.2274  0.4427
    5DOPE   C32  549  -1.614   0.661   1.562 -0.5321  0.1739  1.0781
    5DOPE   H2X  550  -1.699   0.699   1.502  0.7588  0.3570 -0.7215
    5DOPE   H2Y  551  -1.542   0.746   1.569 -0.7857  0.2497  3.4314
    5DOPE   C23  552  -1.753   1.008   1.544  0.7484 -0.2568  0.1729
    5DOPE   H3R  553  -1.730   0.901   1.530  1.1507  0.1301 -3.0351
    5DOPE   H3S  554  -1.661   1.071   1.538  0.2784  0.3347 -1.8741
    5DOPE   C24  555  -1.839   1.035   1.423 -0.2123 -0.1756  0.2800
    5DOPE   H4R  556  -1.863   1.144   1.420 -0.4487 -0.2399 -0.2437
    5DOPE   H4S  557  -1.933   0.976   1.427  0.1533 -0.7329  0.9192
    5DOPE   C25  558  -1.769   0.992   1.285  0.3433 -0.7158 -0.7001
    5DOPE   H5R  559  -1.780   0.883   1.265 -1.5513 -0.6253 -0.3540
    5DOPE   H5S  560  -1.660   1.009   1.276  0.6515 -2.9373 -1.8148
    5DOPE   C26  561  -1.833   1.059   1.161  0.1356 -0.4946  0.0340
    5DOPE   H6R  562  -1.801   1.165   1.155 -4.0409  1.1934  2.7381
    5DOPE   H6S  563  -1.944   1.057   1.171 -0.0141  0.5997 -1.1019
    5DOPE   C27  564  -1.797   0.981   1.026 -0.3556  0.4682 -0.0353
    5DOPE   H7R  565  -1.690   0.952   1.035 -1.0654 -1.8134  3.1618
    5DOPE   H7S  566  -1.795   1.042   0.934 -0.6297 -0.8987 -0.9763
    5DOPE   C28  567  -1.875   0.854   0.983 -0.4035 -0.2530  0.3647
    5DOPE   H8R  568  -1.897   0.793   1.074 -1.0703 -0.4422  0.0810
    5DOPE   H8S  569  -1.816   0.797   0.909 -0.7759  0.6118 -0.6198
    5DOPE   C29  570  -2.003   0.901   0.923  0.0037  0.2030 -0.2194
    5DOPE   H9R  571  -2.064   0.958   0.995 -0.5728 -1.7903  0.9575
    5DOPE  C210  572  -2.052   0.885   0.799  0.1686  0.0042  0.4011
    5DOPE  H10R  573  -2.147   0.934   0.772  0.1662  0.8484  1.8585
    5DOPE  C211  574  -1.974   0.816   0.685  0.4278  0.3189  0.2658
    5DOPE  H11R  575  -2.036   0.731   0.650  2.2163 -0.9479  0.0669
    5DOPE  H11S  576  -1.874   0.780   0.717  0.5502  0.6703  0.2883
    5DOPE  C212  577  -1.952   0.922   0.573  0.5559 -0.3624 -0.2050
    5DOPE  H12R  578  -1.879   0.881   0.500  0.9256  0.0838 -0.0859
    5DOPE  H12S  579  -1.913   1.014   0.620 -0.1553  0.3088 -0.8998
    5DOPE  C213  580  -2.078   0.955   0.495 -0.1305 -0.5230 -0.6900
    5DOPE  H13R  581  -2.151   1.000   0.566 -1.0334 -3.7436  0.5922
    5DOPE  H13S  582  -2.128   0.862   0.461 -0.9850 -0.5439  0.5828
    5DOPE  C214  583  -2.049   1.057   0.389 -0.1681 -0.8970  0.0482
    5DOPE  H14R  584  -1.991   1.006   0.309 -0.0084  1.0196 -1.1186
    5DOPE  H14S  585  -1.981   1.132   0.434 -0.2897  0.3739 -1.7942
    5DOPE  C215  586  -2.175   1.125   0.339  0.4037 -0.6392  0.1599
    5DOPE  H15R  587  -2.223   1.182   0.421 -2.0803 -1.8060 -0.3904
    5DOPE  H15S  588  -2.248   1.051   0.300  1.2188 -0.8933 -0.9477
    5DOPE  C216  589  -2.140   1.233   0.234  0.4230 -0.2135  0.1176
    5DOPE  H16R  590  -2.098   1.187   0.142  0.9779 -0.5007  0.5059
    5DOPE  H16S  591  -2.059   1.287   0.287  1.1527 -1.3037  0.1530
    5DOPE  C217  592  -2.258   1.328   0.195  0.2567  0.1670 -0.0861
    5DOPE  H17R  593  -2.298   1.379   0.286 -1.7545 -2.8094  0.8543
    5DOPE  H17S  594  -2.340   1.268   0.153 -1.8166  0.7821  2.7863
    5DOPE  C218  595  -2.203   1.430   0.089  0.5948  0.3106  0.5220
    5DOPE  H18R  596  -2.115   1.479   0.135  0.4248  0.0162  1.1678
    5DOPE  H18S  597  -2.286   1.504   0.079  1.2918  1.0283 -0.0554
    5DOPE  H18T  598  -2.150   1.385   0.002  1.3348  2.6743 -0.3256
    5DOPE   C33  599  -1.541   0.531   1.516 -1.1397  0.4187 -0.3797
    5DOPE   H3X  600  -1.606   0.441   1.522 -0.1919 -0.2408  0.4639
    5DOPE   H3Y  601  -1.456   0.516   1.587 -0.3495  1.8882 -0.9788
    5DOPE   C34  602  -1.486   0.535   1.370  0.2395 -0.4292  0.3825
    5DOPE   H4X  603  -1.430   0.630   1.360 -1.5026  0.6646  0.5133
    5DOPE   H4Y  604  -1.426   0.443   1.354  1.8003  0.3645  1.3915
    5DOPE   C35  605  -1.594   0.546   1.264  0.2414 -0.0814 -0.0664
    5DOPE   H5X  606  -1.664   0.628   1.289 -0.4079 -0.4895 -0.5206
    5DOPE   H5Y  607  -1.672   0.468   1.257 -0.6685  0.9583 -2.3788
    5DOPE   C36  608  -1.530   0.567   1.126  1.1694  0.5841  0.1205
    5DOPE   H6X  609  -1.498   0.468   1.088 -0.1483  0.6445 -1.2302
    5DOPE   H6Y  610  -1.446   0.640   1.133  2.5666 -1.0367  0.8502
    5DOPE   C37  611  -1.612   0.626   1.017  0.5712 -0.0992 -0.8103
    5DOPE   H7X  612  -1.697   0.558   0.999  0.4377 -1.2319  3.2195
    5DOPE   H7Y  613  -1.655   0.718   1.063 -0.1296 -1.0287  0.4317
    5DOPE   C38  614  -1.544   0.674   0.885  0.0713 -0.2421  0.2749
    5DOPE   H8X  615  -1.479   0.763   0.895 -1.3535  1.1395 -1.9833
    5DOPE   H8Y  616  -1.622   0.713   0.816  1.5855  2.1587 -0.1876
    5DOPE   C39  617  -1.470   0.560   0.816 -0.5117  0.5888  0.0946
    5DOPE   H9X  618  -1.367   0.549   0.852 -0.4080  1.6806  0.1645
    5DOPE  C310  619  -1.520   0.465   0.727 -0.3049 -0.2489 -0.8300
    5DOPE  H10X  620  -1.458   0.384   0.684  0.1324 -0.2508 -0.2076
    5DOPE  C311  621  -1.665   0.468   0.681  0.1607  0.5981 -0.2161
    5DOPE  H11X  622  -1.728   0.411   0.753 -3.2618  1.0947 -2.5995
    5DOPE  H11Y  623  -1.701   0.573   0.680 -1.0609  0.2211  1.0557
    5DOPE  C312  624  -1.684   0.405   0.540  0.4881  0.4420  0.0558
    5DOPE  H12X  625  -1.685   0.294   0.533 -3.5221  0.1684  1.8792
    5DOPE  H12Y  626  -1.591   0.432   0.487  0.5313 -1.7734 -1.1206
    5DOPE  C313  627  -1.809   0.456   0.476  0.6833 -0.0857  1.0592
    5DOPE  H13X  628  -1.891   0.408   0.533  1.0483  0.5434  2.1497
    5DOPE  H13Y  629  -1.822   0.565   0.494 -1.4068 -0.1464  0.2494
    5DOPE  C314  630  -1.806   0.437   0.318  0.3152 -0.3405 -0.4234
    5DOPE  H14X  631  -1.800   0.327   0.303 -1.3815 -0.3806 -1.0718
    5DOPE  H14Y  632  -1.717   0.485   0.273  0.7184 -0.7675 -0.0892
    5DOPE  C315  633  -1.925   0.482   0.238 -0.3352 -0.2127 -0.0276
    5DOPE  H15X  634  -2.016   0.418   0.248  0.1155 -1.1350 -1.5218
    5DOPE  H15Y  635  -1.915   0.467   0.128 -2.3473  2.7648 -0.7370
    5DOPE  C316  636  -1.970   0.629   0.259  0.8512  0.2144 -0.3222
    5DOPE  H16X  637  -1.875   0.683   0.235  0.2015  1.7010  0.3459
    5DOPE  H16Y  638  -1.993   0.635   0.367  0.6582  0.3626 -0.3710
    5DOPE  C317  639  -2.089   0.685   0.181 -0.1045  0.7920  0.3216
    5DOPE  H17X  640  -2.101   0.791   0.210 -0.5542  0.6047  0.8363
    5DOPE  H17Y  641  -2.061   0.684   0.074  0.3926 -1.1996  0.4387
    5DOPE  C318  642  -2.223   0.612   0.197  0.5080  0.4868  0.5845
    5DOPE  H18X  643  -2.215   0.507   0.162 -4.5653 -0.4974  1.6319
    5DOPE  H18Y  644  -2.246   0.621   0.305  0.4462  0.8360  0.5421
    5DOPE  H18Z  645  -2.304   0.668   0.145  0.9955  1.2004  0.5753
    6DOPE     N  646  -3.247   2.088   2.466  0.4967  0.3315 -0.1012
    6DOPE   HN1  647  -3.226   2.131   2.374  2.0569 -0.8753 -0.3635
    6DOPE   HN2  648  -3.322   2.016   2.463  0.3145  0.5293 -0.2710
    6DOPE   HN3  649  -3.267   2.168   2.528  1.1878 -0.3139  0.9859
    6DOPE   C12  650  -3.121   2.023   2.509 -0.2151  0.2315  0.0678
    6DOPE  H12A  651  -3.130   1.917   2.478 -2.3009  0.7224 -1.2335
    6DOPE  H12B  652  -3.116   2.046   2.617  0.1481 -0.7437  0.2628
    6DOPE   C11  653  -2.999   2.094   2.445  0.1815  0.1868 -0.5590
    6DOPE  H11A  654  -3.013   2.075   2.336 -0.2910 -0.8127 -0.3372
    6DOPE  H11B  655  -2.903   2.055   2.485  0.4048 -0.5062 -1.7099
    6DOPE     P  656  -2.887   2.311   2.556  0.0926 -0.2838 -0.3380
    6DOPE   O13  657  -2.831   2.212   2.650  0.4074  0.2961 -0.1673
    6DOPE   O14  658  -2.951   2.433   2.606  0.3930 -0.1323  0.3930
    6DOPE   O11  659  -2.781   2.336   2.443 -0.5128 -0.0393  0.1180
    6DOPE   O12  660  -3.002   2.233   2.474  0.6068  0.1719 -0.1883
    6DOPE    C1  661  -2.782   2.462   2.381 -0.5859 -1.0690 -0.0424
    6DOPE    HA  662  -2.678   2.480   2.345 -0.4706 -0.4426  0.5784
    6DOPE    HB  663  -2.799   2.556   2.438 -1.1026  0.6762 -2.8466
    6DOPE    C2  664  -2.870   2.461   2.256 -0.4586  0.5428 -0.2747
    6DOPE    HS  665  -2.972   2.459   2.299  0.2696 -1.4670  1.5503
    6DOPE   O21  666  -2.836   2.339   2.183  0.2318 -0.3818 -0.0845
    6DOPE   C21  667  -2.931   2.272   2.123  0.8975 -0.3641 -0.4429
    6DOPE   O22  668  -3.050   2.304   2.121  0.3193 -0.0640 -0.0420
    6DOPE   C22  669  -2.873   2.147   2.061  0.0631 -0.3130 -0.4293
    6DOPE   H2R  670  -2.954   2.104   1.998 -0.4482  0.5782 -0.4067
    6DOPE   H2S  671  -2.847   2.077   2.143 -0.2138 -0.0766 -0.1333
    6DOPE    C3  672  -2.865   2.586   2.158  0.2778  0.1464  0.1355
    6DOPE    HX  673  -2.764   2.590   2.112 -0.3577  0.2898 -1.2761
    6DOPE    HY  674  -2.874   2.681   2.216 -2.5017 -0.2495  0.4841
    6DOPE   O31  675  -2.964   2.585   2.050 -0.5705  0.4191 -0.5559
    6DOPE   C31  676  -3.086   2.628   2.075 -0.4324 -0.6432 -0.0784
    6DOPE   O32  677  -3.136   2.663   2.183 -0.5385  0.2021  0.6432
    6DOPE   C32  678  -3.157   2.633   1.939 -0.2749 -0.0825  0.3364
    6DOPE   H2X  679  -3.098   2.578   1.862 -2.0254 -0.0286 -1.1078
    6DOPE   H2Y  680  -3.249   2.573   1.953  0.0908 -0.4972  1.0280
    6DOPE   C23  681  -2.755   2.165   1.963  0.4690  0.4491  0.5451
    6DOPE   H3R  682  -2.702   2.069   1.941 -2.4242 -0.5742 -3.0356
    6DOPE   H3S  683  -2.680   2.242   1.991  0.6466  1.4301 -2.2624
    6DOPE   C24  684  -2.796   2.227   1.829  0.3495  0.8061  0.3847
    6DOPE   H4R  685  -2.872   2.306   1.846 -0.4464 -0.4754  3.3776
    6DOPE   H4S  686  -2.859   2.154   1.773 -0.7842  2.2427 -0.2828
    6DOPE   C25  687  -2.679   2.270   1.735  0.1922 -0.0016  0.2598
    6DOPE   H5R  688  -2.581   2.241   1.779  0.7220  1.2560 -0.0356
    6DOPE   H5S  689  -2.686   2.381   1.726 -1.6090 -0.1095 -0.0161
    6DOPE   C26  690  -2.685   2.217   1.588  0.0096 -0.1853 -0.1205
    6DOPE   H6R  691  -2.663   2.108   1.587  1.3914  0.0638  0.3284
    6DOPE   H6S  692  -2.609   2.272   1.529 -0.9533  0.8691 -0.4207
    6DOPE   C27  693  -2.825   2.249   1.532  0.2055 -0.1088 -0.1709
    6DOPE   H7R  694  -2.858   2.341   1.583  2.5923  0.4974  0.4119
    6DOPE   H7S  695  -2.900   2.168   1.545  0.2694 -0.0534  0.5882
    6DOPE   C28  696  -2.820   2.289   1.377  0.1896 -0.3916  0.4395
    6DOPE   H8R  697  -2.772   2.389   1.372 -1.9317  0.7615  1.6034
    6DOPE   H8S  698  -2.926   2.317   1.356  0.3531  1.2447  1.5335
    6DOPE   C29  699  -2.779   2.195   1.268 -0.9893 -0.0536 -0.1722
    6DOPE   H9R  700  -2.813   2.094   1.296 -0.1782 -0.2462  0.1457
    6DOPE  C210  701  -2.723   2.226   1.149 -0.7003 -0.7984 -0.4415
    6DOPE  H10R  702  -2.703   2.148   1.075  2.1633 -1.0337  0.4899
    6DOPE  C211  703  -2.667   2.353   1.095 -0.6769 -0.3962 -0.6302
    6DOPE  H11R  704  -2.557   2.337   1.093 -0.9695 -2.9297  0.3860
    6DOPE  H11S  705  -2.700   2.434   1.162  1.9094  1.5985 -1.5755
    6DOPE  C212  706  -2.713   2.372   0.951 -0.1813  0.0679 -0.0373
    6DOPE  H12R  707  -2.703   2.478   0.920 -2.8885  0.9854  1.8575
    6DOPE  H12S  708  -2.820   2.345   0.941 -0.4981  0.8210  1.0779
    6DOPE  C213  709  -2.646   2.281   0.850  0.3851 -0.0111  0.2491
    6DOPE  H13R  710  -2.673   2.176   0.872 -2.1262  0.3558 -0.8339
    6DOPE  H13S  711  -2.540   2.314   0.851 -0.1204  1.9376 -1.9946
    6DOPE  C214  712  -2.704   2.296   0.709 -0.4150 -0.6553  0.3211
    6DOPE  H14R  713  -2.680   2.399   0.673  0.8935 -0.7750  0.7799
    6DOPE  H14S  714  -2.814   2.287   0.706 -0.5027  0.3800 -0.0461
    6DOPE  C215  715  -2.644   2.205   0.601 -0.0006 -0.2654  0.0316
    6DOPE  H15R  716  -2.704   2.113   0.619 -2.4270  1.1873 -0.1694
    6DOPE  H15S  717  -2.537   2.195   0.628  0.6100 -0.5200 -2.2661
    6DOPE  C216  718  -2.662   2.243   0.461 -0.0954  0.1359 -0.1857
    6DOPE  H16R  719  -2.639   2.349   0.438 -1.2157  0.5847  0.7091
    6DOPE  H16S  720  -2.768   2.233   0.431 -0.2924 -0.6743  0.7234
    6DOPE  C217  721  -2.579   2.161   0.366 -0.5974 -0.2304 -0.4189
    6DOPE  H17R  722  -2.616   2.056   0.362  1.8364 -1.1312 -1.1206
    6DOPE  H17S  723  -2.476   2.148   0.405 -1.2549  1.6003  2.1889
    6DOPE  C218  724  -2.590   2.219   0.223  0.0061  0.8643  0.2359
    6DOPE  H18R  725  -2.556   2.153   0.141 -1.4788  3.6143 -2.7843
    6DOPE  H18S  726  -2.518   2.303   0.220  0.5949  0.3363 -1.4771
    6DOPE  H18T  727  -2.690   2.261   0.202 -0.4620 -0.6397 -0.6810
    6DOPE   C33  728  -3.189   2.779   1.893 -0.0549  0.3714 -0.0181
    6DOPE   H3X  729  -3.101   2.844   1.911  0.2638  0.3795 -1.5112
    6DOPE   H3Y  730  -3.270   2.822   1.956  1.2869  0.8655  1.4454
    6DOPE   C34  731  -3.226   2.780   1.746 -0.9880 -0.4419  0.9183
    6DOPE   H4X  732  -3.134   2.795   1.686 -1.0440 -1.6100  0.5198
    6DOPE   H4Y  733  -3.266   2.681   1.717  0.9656 -1.0566  0.1942
    6DOPE   C35  734  -3.317   2.890   1.703  0.7965 -0.8814  0.0854
    6DOPE   H5X  735  -3.297   2.990   1.749  0.2255  1.0695 -3.5323
    6DOPE   H5Y  736  -3.423   2.871   1.730 -0.3161  0.3265 -3.0087
    6DOPE   C36  737  -3.324   2.908   1.551  0.2877 -0.0132 -0.1892
    6DOPE   H6X  738  -3.351   2.809   1.509 -0.1478 -0.7486  1.7026
    6DOPE   H6Y  739  -3.225   2.938   1.512  1.1066 -3.3960 -1.0289
    6DOPE   C37  740  -3.440   2.995   1.517 -0.0580 -0.0667  0.1624
    6DOPE   H7X  741  -3.536   2.952   1.555 -1.3358  2.6021  0.1763
    6DOPE   H7Y  742  -3.429   3.091   1.571 -2.2737 -0.0002  0.5805
    6DOPE   C38  743  -3.456   3.017   1.367 -0.0552  0.1058  0.7526
    6DOPE   H8X  744  -3.554   3.061   1.338 -0.3095 -0.8891  0.0735
    6DOPE   H8Y  745  -3.457   2.916   1.321 -0.5280 -0.6910  2.4423
    6DOPE   C39  746  -3.352   3.095   1.291 -0.1504 -0.7209 -0.7931
    6DOPE   H9X  747  -3.319   3.191   1.332  0.9723 -1.4428  0.0564
    6DOPE  C310  748  -3.277   3.053   1.184  0.3789  1.0349 -0.0514
    6DOPE  H10X  749  -3.205   3.129   1.150 -0.3406  1.6696 -0.1839
    6DOPE  C311  750  -3.274   2.912   1.122 -0.3600 -0.4277 -0.2865
    6DOPE  H11X  751  -3.176   2.866   1.146 -1.4066 -2.7718 -0.2631
    6DOPE  H11Y  752  -3.350   2.842   1.163 -0.6975  0.1550  0.0927
    6DOPE  C312  753  -3.288   2.936   0.970 -0.0611 -0.1218  0.2113
    6DOPE  H12X  754  -3.229   3.026   0.941 -0.8045 -0.1682 -1.6167
    6DOPE  H12Y  755  -3.392   2.961   0.940  0.1281  0.9142  0.3685
    6DOPE  C313  756  -3.239   2.817   0.884 -0.4179  0.3316 -0.9215
    6DOPE  H13X  757  -3.130   2.803   0.899 -0.8253 -1.7868  0.5904
    6DOPE  H13Y  758  -3.288   2.729   0.930 -1.5739  0.7541 -1.3112
    6DOPE  C314  759  -3.270   2.836   0.736 -0.2336 -0.0097  0.4373
    6DOPE  H14X  760  -3.376   2.868   0.734 -0.9076 -2.0986 -0.6411
    6DOPE  H14Y  761  -3.263   2.740   0.680 -0.9574 -1.9617  3.4710
    6DOPE  C315  762  -3.187   2.938   0.664 -0.1344  0.1441  0.4615
    6DOPE  H15X  763  -3.080   2.932   0.694 -0.4613 -3.1902  1.3994
    6DOPE  H15Y  764  -3.227   3.040   0.680 -0.7383  0.4000 -2.1837
    6DOPE  C316  765  -3.193   2.921   0.513 -0.4597  1.0134 -0.0977
    6DOPE  H16X  766  -3.299   2.936   0.483 -0.1210  0.2177 -1.8490
    6DOPE  H16Y  767  -3.165   2.814   0.495 -1.6586  0.7738 -0.6099
    6DOPE  C317  768  -3.097   3.008   0.438 -0.3739 -0.4617  0.7110
    6DOPE  H17X  769  -3.112   3.115   0.464  2.6012 -0.1785  1.5988
    6DOPE  H17Y  770  -2.994   2.980   0.469 -0.1617 -1.4343 -0.7687
    6DOPE  C318  771  -3.106   2.983   0.291  0.1129  0.0377 -0.2546
    6DOPE  H18X  772  -3.210   3.001   0.257  0.4038  1.9680 -0.2576
    6DOPE  H18Y  773  -3.034   3.044   0.232 -0.1822  0.6645  0.0247
    6DOPE  H18Z  774  -3.081   2.877   0.274 -1.7526 -0.6939  1.2725
    7DOPE     N  775   0.203   2.702   2.653 -0.3532  0.5163 -0.4056
    7DOPE   HN1  776   0.264   2.684   2.735  0.7052  0.4415 -1.1873
    7DOPE   HN2  777   0.249   2.665   2.567  0.3162  0.5063 -0.0467
    7DOPE   HN3  778   0.187   2.803   2.634 -0.6042  0.3815 -0.9353
    7DOPE   C12  779   0.069   2.645   2.675 -0.2834  0.4757  0.3025
    7DOPE  H12A  780   0.056   2.638   2.785 -1.1424  1.2970  0.2671
    7DOPE  H12B  781   0.058   2.555   2.611  1.7872  1.1085 -1.0540
    7DOPE   C11  782  -0.032   2.752   2.630  0.2350 -0.2871 -0.2167
    7DOPE  H11A  783  -0.044   2.835   2.703 -0.3883  1.2755 -2.0174
    7DOPE  H11B  784  -0.134   2.709   2.617 -0.5175  1.2216  0.4642
    7DOPE     P  785  -0.104   2.864   2.397 -0.2072  0.0541  0.2350
    7DOPE   O13  786  -0.182   2.972   2.459  0.4294  0.1733  0.1105
    7DOPE   O14  787  -0.166   2.744   2.349  0.1008  0.1794 -0.0585
    7DOPE   O11  788  -0.016   2.919   2.279 -0.3395 -0.6099  0.1866
    7DOPE   O12  789  -0.001   2.815   2.502  0.4745  0.6037  0.7105
    7DOPE    C1  790   0.077   3.029   2.306  0.0173  0.7538 -0.3420
    7DOPE    HA  791   0.177   2.983   2.289  0.6641  1.2312  1.9080
    7DOPE    HB  792   0.067   3.087   2.400  1.3877 -0.4464  0.5984
    7DOPE    C2  793   0.057   3.136   2.195 -0.2387 -0.0408 -0.3975
    7DOPE    HS  794  -0.049   3.167   2.204 -0.2504  0.5205 -2.1508
    7DOPE   O21  795   0.082   3.087   2.066  0.3412 -0.3137  0.2052
    7DOPE   C21  796   0.007   3.143   1.970  0.6254  0.0173 -0.5385
    7DOPE   O22  797  -0.073   3.235   1.987  0.3987 -0.3817  0.1920
    7DOPE   C22  798   0.024   3.066   1.847  0.3356 -0.4183 -0.3310
    7DOPE   H2R  799  -0.050   2.983   1.846 -0.7921  0.5680 -1.1037
    7DOPE   H2S  800   0.128   3.026   1.839  0.6627  0.4282 -0.4491
    7DOPE    C3  801   0.148   3.271   2.226  0.6561 -0.4524 -0.2467
    7DOPE    HX  802   0.109   3.308   2.323  1.0292  1.6927 -0.8556
    7DOPE    HY  803   0.110   3.346   2.153 -0.1296 -1.0061 -0.4279
    7DOPE   O31  804   0.287   3.264   2.231  0.3541 -0.5362  0.0382
    7DOPE   C31  805   0.376   3.298   2.138  0.1042 -0.3818 -0.3410
    7DOPE   O32  806   0.354   3.354   2.038  0.3112 -0.1279 -0.0950
    7DOPE   C32  807   0.512   3.243   2.181 -0.3847 -0.5433 -0.3256
    7DOPE   H2X  808   0.537   3.294   2.277  0.2986 -0.5323 -0.5092
    7DOPE   H2Y  809   0.497   3.139   2.217 -0.1485 -0.1215  1.0586
    7DOPE   C23  810  -0.003   3.158   1.713 -0.7862 -0.2763 -0.4294
    7DOPE   H3R  811   0.072   3.241   1.711  0.2480 -1.1897 -0.2516
    7DOPE   H3S  812  -0.103   3.206   1.720 -0.3663  0.3791  2.7738
    7DOPE   C24  813   0.017   3.080   1.587 -1.0552 -0.6277  0.0714
    7DOPE   H4R  814  -0.053   2.994   1.593 -1.4797 -0.2686  0.3148
    7DOPE   H4S  815   0.116   3.029   1.596 -0.0948  1.2923  0.9542
    7DOPE   C25  816   0.023   3.158   1.456  0.1145  0.3125  0.8389
    7DOPE   H5R  817   0.085   3.248   1.473 -0.3640  0.7895  0.1055
    7DOPE   H5S  818  -0.081   3.191   1.434  0.4803 -0.4390 -2.6429
    7DOPE   C26  819   0.071   3.060   1.348 -0.5819  0.5989  0.6239
    7DOPE   H6R  820  -0.002   2.986   1.307 -0.0457  0.4681 -0.1044
    7DOPE   H6S  821   0.154   2.998   1.387  0.2153  0.8638 -0.5902
    7DOPE   C27  822   0.122   3.136   1.216  0.1644 -0.4386  0.1966
    7DOPE   H7R  823   0.207   3.198   1.252  0.0164 -0.7854  1.1742
    7DOPE   H7S  824   0.041   3.203   1.179 -1.0050 -1.4030  0.9138
    7DOPE   C28  825   0.176   3.049   1.104  0.0666  0.0568 -0.0016
    7DOPE   H8R  826   0.243   2.977   1.155  0.3506  0.2791 -0.0563
    7DOPE   H8S  827   0.248   3.103   1.040  1.2335 -2.0794 -0.5738
    7DOPE   C29  828   0.071   2.981   1.026 -0.3373  1.4007  0.2218
    7DOPE   H9R  829   0.028   2.897   1.083  1.1788  1.1006  0.9977
    7DOPE  C210  830   0.044   2.994   0.894  0.3676  0.0132  0.4296
    7DOPE  H10R  831  -0.048   2.944   0.860 -1.1524  2.2905  0.9412
    7DOPE  C211  832   0.112   3.088   0.799  1.1559 -0.1570  0.3562
    7DOPE  H11R  833   0.151   3.177   0.853 -2.4989  0.8688  1.6108
    7DOPE  H11S  834   0.048   3.117   0.713  2.2594  0.2121 -0.3531
    7DOPE  C212  835   0.227   3.009   0.731  1.2991  0.0085  0.6423
    7DOPE  H12R  836   0.198   2.914   0.682  0.6632  1.3932 -1.8561
    7DOPE  H12S  837   0.296   2.974   0.811  0.2011 -3.0539  0.3701
    7DOPE  C213  838   0.290   3.103   0.623 -0.0744 -0.5214 -0.2633
    7DOPE  H13R  839   0.324   3.199   0.667  2.9324 -1.1362 -1.0015
    7DOPE  H13S  840   0.211   3.138   0.555  0.0831  1.0234  0.3077
    7DOPE  C214  841   0.412   3.051   0.544 -0.6473  0.2799  0.1619
    7DOPE  H14R  842   0.371   2.954   0.507  3.6549 -1.5714 -0.3306
    7DOPE  H14S  843   0.499   3.040   0.612 -0.5485 -2.4615 -0.2857
    7DOPE  C215  844   0.450   3.155   0.441 -0.4673 -0.7002  0.4631
    7DOPE  H15R  845   0.478   3.245   0.499  0.6466 -1.0010  0.4177
    7DOPE  H15S  846   0.372   3.181   0.366 -0.0963 -3.9573 -1.2225
    7DOPE  C216  847   0.573   3.116   0.359  0.1692  0.0095  0.1766
    7DOPE  H16R  848   0.570   3.016   0.312  1.1495 -0.4481  1.0418
    7DOPE  H16S  849   0.667   3.106   0.417  2.1549  0.5333 -2.7165
    7DOPE  C217  850   0.597   3.211   0.244  0.6634  0.7983  0.5981
    7DOPE  H17R  851   0.630   3.303   0.296 -1.0876  0.7474  1.8916
    7DOPE  H17S  852   0.500   3.231   0.195  0.4348  0.4388  0.8979
    7DOPE  C218  853   0.708   3.162   0.155 -0.0325  0.2584  0.0857
    7DOPE  H18R  854   0.681   3.059   0.124 -1.6603  1.2418 -2.0751
    7DOPE  H18S  855   0.810   3.165   0.198  0.1319 -1.1270 -0.1838
    7DOPE  H18T  856   0.702   3.215   0.057 -0.8295 -1.5845 -0.9062
    7DOPE   C33  857   0.617   3.254   2.076 -0.8242 -0.4351 -1.0413
    7DOPE   H3X  858   0.717   3.224   2.115 -0.2652  0.7320 -1.5462
    7DOPE   H3Y  859   0.628   3.359   2.042  0.5805 -0.4750 -0.7900
    7DOPE   C34  860   0.604   3.154   1.958  0.7886 -0.1820  0.5994
    7DOPE   H4X  861   0.603   3.058   2.014  2.5701  0.2193  1.3809
    7DOPE   H4Y  862   0.510   3.164   1.899  0.6594 -0.1024  0.8168
    7DOPE   C35  863   0.718   3.166   1.859  0.2305 -0.2560 -0.0793
    7DOPE   H5X  864   0.813   3.138   1.910 -0.2011 -1.2806  0.1857
    7DOPE   H5Y  865   0.736   3.261   1.803 -1.0498 -0.2823 -0.5749
    7DOPE   C36  866   0.719   3.058   1.745  0.2346  0.0849  0.0484
    7DOPE   H6X  867   0.796   3.074   1.667 -2.6246 -1.2397 -3.3133
    7DOPE   H6Y  868   0.628   3.058   1.682  1.1207 -0.7148 -1.2730
    7DOPE   C37  869   0.742   2.915   1.798 -0.0267  0.1258 -0.1165
    7DOPE   H7X  870   0.847   2.894   1.827 -0.3577 -1.2260  0.1580
    7DOPE   H7Y  871   0.684   2.894   1.890 -0.0779  0.3716 -0.0930
    7DOPE   C38  872   0.697   2.812   1.694  0.4240 -1.4448 -0.1157
    7DOPE   H8X  873   0.593   2.847   1.679  0.6573 -0.5876  0.2025
    7DOPE   H8Y  874   0.683   2.709   1.734 -2.0054 -1.0869  0.0977
    7DOPE   C39  875   0.792   2.824   1.576  0.6155  0.1437 -0.5957
    7DOPE   H9X  876   0.899   2.808   1.595  1.5221  1.3404 -3.9748
    7DOPE  C310  877   0.755   2.838   1.447 -0.3216  0.2641  0.1093
    7DOPE  H10X  878   0.831   2.828   1.369 -0.9599 -0.2403 -0.4567
    7DOPE  C311  879   0.616   2.849   1.397  0.3686 -0.4020  0.4607
    7DOPE  H11X  880   0.543   2.865   1.480 -0.1659  2.2679 -0.4363
    7DOPE  H11Y  881   0.597   2.934   1.329  0.0283 -2.9794 -2.9549
    7DOPE  C312  882   0.578   2.733   1.314  0.3030  0.9243 -0.6351
    7DOPE  H12X  883   0.591   2.639   1.372 -1.4535 -0.0835 -1.7983
    7DOPE  H12Y  884   0.649   2.719   1.230 -0.4519 -0.8937 -1.0091
    7DOPE  C313  885   0.438   2.755   1.264  0.2639  0.0954  0.2428
    7DOPE  H13X  886   0.370   2.719   1.344  0.7181 -0.5090  0.3599
    7DOPE  H13Y  887   0.413   2.862   1.250 -3.0828 -0.5991  0.1575
    7DOPE  C314  888   0.407   2.677   1.134  0.6437  0.2012  0.1401
    7DOPE  H14X  889   0.305   2.633   1.124  1.3980 -1.7866  0.7060
    7DOPE  H14Y  890   0.468   2.584   1.125  0.0463 -0.3076  1.1781
    7DOPE  C315  891   0.429   2.759   0.999  0.2108 -0.4385  0.1979
    7DOPE  H15X  892   0.388   2.862   0.999 -1.5074 -1.0864 -0.6848
    7DOPE  H15Y  893   0.371   2.719   0.914  0.2818 -0.4082  0.1351
    7DOPE  C316  894   0.586   2.764   0.963  0.3174 -0.4000 -0.1394
    7DOPE  H16X  895   0.640   2.669   0.981  0.0578 -0.1706  2.0650
    7DOPE  H16Y  896   0.636   2.848   1.015 -0.5935  0.5097 -0.7063
    7DOPE  C317  897   0.597   2.799   0.809  0.1648  0.0378 -1.2205
    7DOPE  H17X  898   0.526   2.735   0.752 -2.5086 -0.3682  2.1791
    7DOPE  H17Y  899   0.557   2.903   0.804  0.4650  0.2482  0.3393
    7DOPE  C318  900   0.740   2.795   0.763 -0.4479  0.1695 -0.2782
    7DOPE  H18X  901   0.787   2.704   0.806 -1.4871 -0.2395  0.0129
    7DOPE  H18Y  902   0.730   2.803   0.653  0.0078  0.9737 -0.2683
    7DOPE  H18Z  903   0.798   2.884   0.797 -1.5095  0.7284  0.1305
    8DOPE     N  904   2.452  -2.222   2.639  0.7964 -0.0183 -0.0508
    8DOPE   HN1  905   2.422  -2.210   2.540 -0.4865  2.2445  0.5293
    8DOPE   HN2  906   2.370  -2.262   2.689  0.8209 -3.0488 -2.1716
    8DOPE   HN3  907   2.471  -2.127   2.677  3.5190 -0.6907  0.4304
    8DOPE   C12  908   2.567  -2.316   2.652 -0.6821 -0.2770 -0.5448
    8DOPE  H12A  909   2.519  -2.416   2.647  1.6326 -1.4356 -1.7016
    8DOPE  H12B  910   2.615  -2.293   2.749  0.9454 -0.2160 -1.3200
    8DOPE   C11  911   2.665  -2.300   2.542  0.2109 -0.8594  0.4310
    8DOPE  H11A  912   2.621  -2.318   2.442 -0.3432  3.2458 -0.2235
    8DOPE  H11B  913   2.742  -2.377   2.566  1.4158  0.7189  1.8839
    8DOPE     P  914   2.842  -2.156   2.428  0.3899 -0.0620 -0.4341
    8DOPE   O13  915   2.827  -2.257   2.325 -0.7414  0.0618 -0.1003
    8DOPE   O14  916   2.969  -2.162   2.504 -0.1754  1.1431  0.1227
    8DOPE   O11  917   2.814  -2.012   2.373  0.0565  0.2467  0.3211
    8DOPE   O12  918   2.716  -2.167   2.529  0.3560 -0.4080  0.3467
    8DOPE    C1  919   2.685  -1.964   2.342  0.5904 -0.2448 -0.1625
    8DOPE    HA  920   2.695  -1.854   2.326  0.8208  0.0147  1.5590
    8DOPE    HB  921   2.612  -1.971   2.426  0.5128  2.5982  0.1081
    8DOPE    C2  922   2.631  -2.026   2.211 -0.4864 -0.0370 -0.5410
    8DOPE    HS  923   2.610  -2.134   2.228  0.1280 -0.4208 -2.0440
    8DOPE   O21  924   2.733  -2.019   2.112 -0.0553 -0.3454 -0.3357
    8DOPE   C21  925   2.744  -2.117   2.025 -0.6476  0.0611  0.7412
    8DOPE   O22  926   2.677  -2.220   2.018 -0.1534  0.3985  0.3400
    8DOPE   C22  927   2.842  -2.064   1.918  0.2023 -0.1737  0.2896
    8DOPE   H2R  928   2.943  -2.066   1.965  0.2936  1.8237  0.2494
    8DOPE   H2S  929   2.815  -1.958   1.900 -2.1603 -0.8088 -0.2689
    8DOPE    C3  930   2.503  -1.963   2.156 -0.0353 -0.0788 -1.4632
    8DOPE    HX  931   2.522  -1.856   2.136 -0.9542  0.0559 -1.6812
    8DOPE    HY  932   2.433  -1.968   2.243  1.8573  1.0548  0.2118
    8DOPE   O31  933   2.452  -2.015   2.027 -0.1905  0.3772 -0.2038
    8DOPE   C31  934   2.370  -2.115   2.031 -0.7287 -0.8035  0.8553
    8DOPE   O32  935   2.303  -2.145   2.127 -0.3041  0.2245  0.2620
    8DOPE   C32  936   2.373  -2.199   1.899  0.3217  0.1616  0.1224
    8DOPE   H2X  937   2.472  -2.250   1.896  0.4921  0.5049 -0.2353
    8DOPE   H2Y  938   2.296  -2.279   1.907  0.0913  0.2993 -0.6831
    8DOPE   C23  939   2.844  -2.145   1.788 -0.8326 -0.0557  0.1418
    8DOPE   H3R  940   2.755  -2.121   1.727 -1.2945 -0.6017  0.5950
    8DOPE   H3S  941   2.854  -2.252   1.816  1.1164 -0.0412 -0.3389
    8DOPE   C24  942   2.979  -2.123   1.718 -0.1057  0.1288  0.0812
    8DOPE   H4R  943   3.066  -2.148   1.782  0.0367 -0.4459 -0.3292
    8DOPE   H4S  944   2.980  -2.012   1.716 -1.8374  0.1760  0.5575
    8DOPE   C25  945   2.984  -2.190   1.578 -0.5579  0.0840 -0.4060
    8DOPE   H5R  946   3.069  -2.147   1.520  1.8545  0.1719  2.8835
    8DOPE   H5S  947   2.889  -2.170   1.525 -1.4088 -3.8682 -0.6799
    8DOPE   C26  948   3.005  -2.335   1.596  0.5346 -0.4678 -0.7993
    8DOPE   H6R  949   2.909  -2.381   1.629  2.1538 -3.4213  0.1894
    8DOPE   H6S  950   3.078  -2.369   1.672  0.8671 -3.0209 -2.1421
    8DOPE   C27  951   3.051  -2.403   1.465 -0.1057 -0.1528 -0.7810
    8DOPE   H7R  952   3.061  -2.511   1.487  0.8096 -0.3235 -1.9008
    8DOPE   H7S  953   3.158  -2.373   1.454  0.0021 -0.0132  0.5140
    8DOPE   C28  954   2.970  -2.375   1.340 -0.4832 -0.7033  0.3812
    8DOPE   H8R  955   2.985  -2.268   1.314 -1.2658 -0.9672 -1.2546
    8DOPE   H8S  956   2.859  -2.379   1.347 -0.4960 -1.3485 -0.1530
    8DOPE   C29  957   3.012  -2.461   1.224 -0.6151  0.3001  0.9460
    8DOPE   H9R  958   2.962  -2.559   1.221 -0.8486  0.4180  0.9722
    8DOPE  C210  959   3.084  -2.418   1.113  0.0146 -0.2462 -0.1988
    8DOPE  H10R  960   3.088  -2.482   1.024 -0.3420 -0.4981 -0.0341
    8DOPE  C211  961   3.130  -2.274   1.091 -0.1095 -0.6663  0.0287
    8DOPE  H11R  962   3.238  -2.265   1.112  0.2327 -0.3534 -1.7081
    8DOPE  H11S  963   3.073  -2.186   1.129  0.0558  0.5746 -2.3709
    8DOPE  C212  964   3.119  -2.243   0.940  0.7570  0.4667 -0.6374
    8DOPE  H12R  965   3.011  -2.223   0.927 -0.7651 -3.9173  2.6984
    8DOPE  H12S  966   3.157  -2.317   0.866  0.7310  1.0081 -1.1979
    8DOPE  C213  967   3.203  -2.122   0.905 -0.1453 -0.0606  0.1668
    8DOPE  H13R  968   3.310  -2.151   0.905  0.8133  3.0746  0.3163
    8DOPE  H13S  969   3.193  -2.031   0.968 -1.6385  0.2826 -0.5117
    8DOPE  C214  970   3.183  -2.075   0.761  0.3197 -0.4115 -0.1948
    8DOPE  H14R  971   3.072  -2.065   0.756  0.2530 -1.0386 -0.1043
    8DOPE  H14S  972   3.222  -2.156   0.695 -2.1556 -1.0083 -1.0198
    8DOPE  C215  973   3.252  -1.934   0.730  0.3936 -0.0772  0.2017
    8DOPE  H15R  974   3.362  -1.944   0.748  0.1556 -1.9812  0.8626
    8DOPE  H15S  975   3.216  -1.857   0.801 -1.2826 -1.2018  0.6245
    8DOPE  C216  976   3.237  -1.892   0.583  0.6292  0.4428 -0.0090
    8DOPE  H16R  977   3.239  -1.983   0.520 -0.0175  0.0729  0.4957
    8DOPE  H16S  978   3.319  -1.822   0.557 -0.8032  1.4623 -2.0675
    8DOPE  C217  979   3.108  -1.807   0.565 -0.0996 -0.6662 -0.5574
    8DOPE  H17R  980   3.131  -1.715   0.623  0.0898 -0.6927 -0.5893
    8DOPE  H17S  981   3.030  -1.869   0.613  0.7963 -1.0150  0.5132
    8DOPE  C218  982   3.059  -1.779   0.421 -0.0165  0.8307 -0.3875
    8DOPE  H18R  983   3.150  -1.754   0.362  1.5268 -0.4074  1.3440
    8DOPE  H18S  984   2.994  -1.688   0.421  2.6778  3.1278  3.8787
    8DOPE  H18T  985   3.026  -1.876   0.378  2.1412  0.6309 -1.7468
    8DOPE   C33  986   2.334  -2.123   1.774 -0.9894 -1.1361  0.1384
    8DOPE   H3X  987   2.401  -2.039   1.745 -2.5670 -0.1826 -0.8550
    8DOPE   H3Y  988   2.236  -2.079   1.800 -1.2847 -1.0628 -1.0706
    8DOPE   C34  989   2.321  -2.212   1.652  0.9670 -0.0248  0.5271
    8DOPE   H4X  990   2.417  -2.265   1.633  0.2582 -0.8026 -1.0443
    8DOPE   H4Y  991   2.244  -2.289   1.672 -0.2446  0.4878 -1.7764
    8DOPE   C35  992   2.260  -2.131   1.531 -0.3750  0.1078 -0.1634
    8DOPE   H5X  993   2.332  -2.055   1.494 -0.1386 -0.7126 -1.4617
    8DOPE   H5Y  994   2.169  -2.078   1.564 -0.6548  0.0415 -0.8134
    8DOPE   C36  995   2.210  -2.222   1.416 -0.2078  0.3874 -0.2296
    8DOPE   H6X  996   2.139  -2.293   1.464 -0.1018 -1.1411 -2.1938
    8DOPE   H6Y  997   2.296  -2.284   1.384  0.9004  1.0235  1.4087
    8DOPE   C37  998   2.141  -2.155   1.300 -0.6063  0.4182  0.2448
    8DOPE   H7X  999   2.060  -2.089   1.337  0.3235  1.6529  0.1697
    8DOPE   H7Y 1000   2.221  -2.091   1.257 -0.5895  0.6116  0.5557
    8DOPE   C38 1001   2.093  -2.249   1.189  0.2407  0.5073  0.2161
    8DOPE   H8X 1002   2.038  -2.183   1.119  1.7494 -0.2027 -1.7338
    8DOPE   H8Y 1003   2.017  -2.318   1.230 -2.0541  3.3301  1.0167
    8DOPE   C39 1004   2.199  -2.318   1.114  0.2292 -0.3745  0.5345
    8DOPE   H9X 1005   2.222  -2.419   1.153  2.1076 -0.4324 -0.5696
    8DOPE  C310 1006   2.279  -2.270   1.019 -0.8270 -0.5723 -0.5289
    8DOPE  H10X 1007   2.361  -2.325   0.971  0.0856  0.0669  0.2559
    8DOPE  C311 1008   2.279  -2.123   0.983  0.1288 -0.0747 -0.1206
    8DOPE  H11X 1009   2.191  -2.067   1.019  0.5383  1.1041 -0.9120
    8DOPE  H11Y 1010   2.370  -2.066   1.012 -1.4869  2.3322  0.5121
    8DOPE  C312 1011   2.267  -2.114   0.826 -0.5594  0.4746  0.5873
    8DOPE  H12X 1012   2.171  -2.159   0.790 -1.0371  0.5598  1.7305
    8DOPE  H12Y 1013   2.350  -2.176   0.785 -1.2602 -0.2023  0.1673
    8DOPE  C313 1014   2.274  -1.971   0.772  0.8014 -0.2100  0.0954
    8DOPE  H13X 1015   2.175  -1.924   0.789  1.4575  1.9630 -1.7032
    8DOPE  H13Y 1016   2.354  -1.910   0.818  0.0862  2.3316 -1.8420
    8DOPE  C314 1017   2.298  -1.964   0.619 -0.0271  0.3548  0.1370
    8DOPE  H14X 1018   2.223  -2.023   0.563  0.5146 -0.2320  0.0186
    8DOPE  H14Y 1019   2.393  -2.018   0.597 -0.0774 -0.3659  1.5930
    8DOPE  C315 1020   2.303  -1.814   0.566 -0.5352  0.3260  0.6183
    8DOPE  H15X 1021   2.373  -1.815   0.480 -0.5853  0.4763  0.5780
    8DOPE  H15Y 1022   2.345  -1.743   0.640  2.2699  1.6933 -2.0562
    8DOPE  C316 1023   2.171  -1.766   0.499  0.4941  0.0550  0.0517
    8DOPE  H16X 1024   2.098  -1.778   0.582 -0.3416 -2.9391 -1.0008
    8DOPE  H16Y 1025   2.138  -1.841   0.424 -1.5622  2.0832 -1.1561
    8DOPE  C317 1026   2.186  -1.632   0.431  0.3197 -0.4002 -0.0321
    8DOPE  H17X 1027   2.217  -1.557   0.507  2.5531 -1.2235 -0.0814
    8DOPE  H17Y 1028   2.270  -1.642   0.360  1.1825 -3.1857  1.2376
    8DOPE  C318 1029   2.058  -1.580   0.375  1.3093  0.3376 -0.0131
    8DOPE  H18X 1030   2.015  -1.661   0.313  1.1916  0.2484  0.1864
    8DOPE  H18Y 1031   2.073  -1.488   0.314 -1.6060  0.0488 -1.3032
    8DOPE  H18Z 1032   1.993  -1.556   0.461  2.4591 -0.2440  1.0622
    9DOPE     N 1033  -3.336   1.244   2.724 -0.3593  0.2737 -0.3759
    9DOPE   HN1 1034  -3.386   1.320   2.674 -0.3370  0.0727 -0.7084
    9DOPE   HN2 1035  -3.364   1.152   2.685 -0.3577 -0.7652  1.9165
    9DOPE   HN3 1036  -3.367   1.238   2.823  0.1877 -1.7054 -0.2840
    9DOPE   C12 1037  -3.188   1.271   2.727 -0.0261  0.2969 -0.1193
    9DOPE  H12A 1038  -3.136   1.177   2.759  0.0752  0.1606 -0.6822
    9DOPE  H12B 1039  -3.165   1.344   2.807  0.2455  0.5217 -0.4007
    9DOPE   C11 1040  -3.140   1.319   2.590 -0.0680 -0.1200 -0.3294
    9DOPE  H11A 1041  -3.145   1.240   2.512 -0.7281 -1.9013  1.4367
    9DOPE  H11B 1042  -3.032   1.339   2.604 -0.4085  2.5291 -0.8310
    9DOPE     P 1043  -3.144   1.575   2.529  0.2230  0.3035  0.3516
    9DOPE   O13 1044  -3.015   1.597   2.604  0.3739  0.0036 -0.3428
    9DOPE   O14 1045  -3.249   1.680   2.523 -0.2653  0.7370 -0.3601
    9DOPE   O11 1046  -3.104   1.558   2.375  0.5451 -0.5832 -0.3192
    9DOPE   O12 1047  -3.209   1.439   2.560 -0.0001 -0.6035 -0.2787
    9DOPE    C1 1048  -3.195   1.488   2.289 -0.0030 -0.3014 -0.0001
    9DOPE    HA 1049  -3.295   1.464   2.332  0.3431 -0.4478  0.7524
    9DOPE    HB 1050  -3.137   1.399   2.256 -2.5368 -0.4968 -4.6491
    9DOPE    C2 1051  -3.218   1.569   2.152 -0.4883  0.1926 -0.4722
    9DOPE    HS 1052  -3.277   1.504   2.084 -0.0336 -0.2611 -0.4393
    9DOPE   O21 1053  -3.097   1.616   2.089 -0.2872 -0.5983  0.1578
    9DOPE   C21 1054  -3.004   1.536   2.055  0.7929 -0.2752  0.1934
    9DOPE   O22 1055  -3.009   1.414   2.052  0.3225  0.5294  0.0020
    9DOPE   C22 1056  -2.874   1.615   2.030  0.4437  0.6297 -0.7235
    9DOPE   H2R 1057  -2.785   1.552   2.052 -0.7686 -0.4405  1.4599
    9DOPE   H2S 1058  -2.881   1.697   2.105  1.2621  0.6529 -0.6661
    9DOPE    C3 1059  -3.317   1.685   2.179 -0.8715 -0.0499 -0.0878
    9DOPE    HX 1060  -3.282   1.744   2.267  1.6783  1.8191 -2.1765
    9DOPE    HY 1061  -3.417   1.642   2.201 -0.6982 -0.7099 -0.5508
    9DOPE   O31 1062  -3.321   1.768   2.060  0.1670  0.5137  0.2301
    9DOPE   C31 1063  -3.260   1.886   2.055 -0.5128 -0.4019  0.2811
    9DOPE   O32 1064  -3.180   1.924   2.140 -0.2593 -0.4343 -0.7873
    9DOPE   C32 1065  -3.301   1.948   1.927  0.1030  0.4237 -0.2594
    9DOPE   H2X 1066  -3.237   1.905   1.846  0.5506 -2.0428  1.3153
    9DOPE   H2Y 1067  -3.407   1.924   1.904  0.6608 -1.8671 -0.6622
    9DOPE   C23 1068  -2.860   1.686   1.892  0.0431  0.2990 -0.0763
    9DOPE   H3R 1069  -2.882   1.614   1.811  1.9270 -2.0558  1.3728
    9DOPE   H3S 1070  -2.755   1.721   1.892  0.4274 -0.7685  1.2306
    9DOPE   C24 1071  -2.957   1.803   1.886  0.0268 -1.3913  0.3581
    9DOPE   H4R 1072  -2.950   1.857   1.983 -1.5519 -0.0198 -0.2419
    9DOPE   H4S 1073  -3.060   1.766   1.865  0.0502 -0.1681 -2.3015
    9DOPE   C25 1074  -2.947   1.895   1.759 -0.5441 -0.6360  1.0381
    9DOPE   H5R 1075  -2.839   1.914   1.746 -0.5780 -1.2112 -0.2327
    9DOPE   H5S 1076  -3.000   1.990   1.781 -2.6057 -1.7025  0.9178
    9DOPE   C26 1077  -3.009   1.831   1.633 -0.6043 -0.5736  1.0563
    9DOPE   H6R 1078  -3.111   1.797   1.659  0.0905 -1.1979  3.1348
    9DOPE   H6S 1079  -2.941   1.748   1.604  0.1443  0.5727 -0.6458
    9DOPE   C27 1080  -3.025   1.936   1.523  0.6294  0.3674  0.2281
    9DOPE   H7R 1081  -2.930   1.970   1.475  0.1205 -1.4336 -2.2980
    9DOPE   H7S 1082  -3.069   2.024   1.573 -0.4065 -0.3206  0.5430
    9DOPE   C28 1083  -3.114   1.886   1.403 -0.1476 -0.6392 -0.7573
    9DOPE   H8R 1084  -3.217   1.860   1.435 -0.0033 -0.4756 -0.1469
    9DOPE   H8S 1085  -3.063   1.795   1.364  0.0837 -0.8036 -0.0991
    9DOPE   C29 1086  -3.113   1.999   1.305 -0.7439 -0.4009  0.5788
    9DOPE   H9R 1087  -3.181   2.081   1.332 -1.9257 -0.9868 -0.5092
    9DOPE  C210 1088  -3.070   1.997   1.180 -0.0120 -0.6599 -0.1604
    9DOPE  H10R 1089  -3.076   2.089   1.120 -0.9048 -1.0888 -0.7458
    9DOPE  C211 1090  -2.993   1.893   1.104  0.1284  0.3071 -0.4998
    9DOPE  H11R 1091  -3.007   1.806   1.171 -0.9027 -0.8243 -2.0903
    9DOPE  H11S 1092  -2.888   1.920   1.080  0.4109  0.0294  0.4024
    9DOPE  C212 1093  -3.067   1.847   0.973 -0.2885 -0.5611 -0.4249
    9DOPE  H12R 1094  -3.176   1.856   0.992  0.0812 -0.1037  1.8223
    9DOPE  H12S 1095  -3.026   1.749   0.940  0.2665 -1.0638  1.5782
    9DOPE  C213 1096  -3.034   1.950   0.861  0.0947  0.3916  0.7602
    9DOPE  H13R 1097  -2.933   1.995   0.859 -0.2902  1.2706  0.3276
    9DOPE  H13S 1098  -3.102   2.038   0.871  1.0232  1.0179  1.7131
    9DOPE  C214 1099  -3.042   1.879   0.723  0.3799 -0.3201 -0.4152
    9DOPE  H14R 1100  -3.149   1.860   0.696  0.4365 -1.3676  0.0487
    9DOPE  H14S 1101  -2.999   1.777   0.729 -0.9978 -0.8519  3.2393
    9DOPE  C215 1102  -2.982   1.968   0.615 -0.6076  0.5433  0.2316
    9DOPE  H15R 1103  -2.874   1.980   0.638 -0.5825 -0.1593  0.4946
    9DOPE  H15S 1104  -3.044   2.060   0.608 -1.6728  0.1057  2.8428
    9DOPE  C216 1105  -2.983   1.903   0.478 -0.0897  0.4861 -0.0695
    9DOPE  H16R 1106  -3.084   1.868   0.446 -0.0095 -0.4571  0.6536
    9DOPE  H16S 1107  -2.909   1.820   0.482 -1.3638 -0.6912 -0.2761
    9DOPE  C217 1108  -2.932   1.988   0.361 -0.5280 -0.5808  0.5292
    9DOPE  H17R 1109  -2.839   2.042   0.388  0.3470 -2.2862  1.0697
    9DOPE  H17S 1110  -3.016   2.057   0.340 -2.2659 -2.3412  1.3669
    9DOPE  C218 1111  -2.908   1.904   0.233 -0.0613  0.2759 -0.2817
    9DOPE  H18R 1112  -2.894   1.968   0.144 -2.5601  0.4637 -0.5927
    9DOPE  H18S 1113  -2.994   1.833   0.236  0.1361  0.0236  2.7617
    9DOPE  H18T 1114  -2.814   1.845   0.240 -0.0172  0.0577 -2.2767
    9DOPE   C33 1115  -3.278   2.101   1.922 -0.4861  0.4753  0.4995
    9DOPE   H3X 1116  -3.169   2.116   1.932 -0.0987 -1.6766 -0.0385
    9DOPE   H3Y 1117  -3.327   2.149   2.009 -0.9896  4.0035 -1.5241
    9DOPE   C34 1118  -3.328   2.159   1.789 -0.2596  0.0017  0.4002
    9DOPE   H4X 1119  -3.316   2.088   1.704 -2.4242  0.3993 -0.3145
    9DOPE   H4Y 1120  -3.435   2.188   1.787 -0.7844 -1.7951  1.0212
    9DOPE   C35 1121  -3.247   2.287   1.737 -0.0799 -0.1493  0.8234
    9DOPE   H5X 1122  -3.142   2.253   1.727 -0.6157 -1.7949  0.5689
    9DOPE   H5Y 1123  -3.263   2.370   1.810 -0.4306  2.1406 -1.6960
    9DOPE   C36 1124  -3.308   2.321   1.598 -0.4501  0.0716  0.0804
    9DOPE   H6X 1125  -3.417   2.338   1.611 -0.7156 -1.0994 -0.5282
    9DOPE   H6Y 1126  -3.290   2.232   1.535  0.2595  1.4139 -1.6680
    9DOPE   C37 1127  -3.240   2.443   1.533  0.9817 -0.0609 -0.1130
    9DOPE   H7X 1128  -3.268   2.543   1.574  0.4853  0.7275 -2.2171
    9DOPE   H7Y 1129  -3.131   2.425   1.541  0.7929 -0.6443  1.4135
    9DOPE   C38 1130  -3.287   2.445   1.383  1.2034 -0.4089  0.8407
    9DOPE   H8X 1131  -3.397   2.449   1.391  1.1312 -0.5880  0.0440
    9DOPE   H8Y 1132  -3.272   2.343   1.342  0.8235  0.0693 -0.5411
    9DOPE   C39 1133  -3.238   2.557   1.290  0.1145 -0.3489 -0.2965
    9DOPE   H9X 1134  -3.279   2.655   1.316  0.2804 -0.8757  2.2384
    9DOPE  C310 1135  -3.153   2.539   1.186  0.2019  0.0645  0.2053
    9DOPE  H10X 1136  -3.149   2.630   1.124  0.0059  1.8980  2.7575
    9DOPE  C311 1137  -3.077   2.412   1.143 -0.2265 -0.0216 -0.5083
    9DOPE  H11X 1138  -2.968   2.432   1.143 -0.0555 -0.9480 -0.2034
    9DOPE  H11Y 1139  -3.090   2.338   1.225 -0.4967  0.7533  0.1692
    9DOPE  C312 1140  -3.111   2.347   1.010 -0.2686  0.1036 -0.0153
    9DOPE  H12X 1141  -3.213   2.308   1.030  0.0226  0.0791  1.5756
    9DOPE  H12Y 1142  -3.026   2.276   1.000 -0.0340  0.3437  0.2369
    9DOPE  C313 1143  -3.107   2.440   0.887  0.4511 -0.3821 -0.0122
    9DOPE  H13X 1144  -3.184   2.520   0.892 -0.3507 -1.0777 -0.7564
    9DOPE  H13Y 1145  -3.010   2.493   0.897  0.4624 -0.4434  0.2100
    9DOPE  C314 1146  -3.113   2.365   0.754 -0.3505 -0.2517 -0.0872
    9DOPE  H14X 1147  -3.203   2.299   0.752  0.2599 -1.0817 -1.3420
    9DOPE  H14Y 1148  -3.030   2.292   0.755 -0.0733  0.0618  0.1897
    9DOPE  C315 1149  -3.103   2.452   0.622  0.4251 -0.8864 -0.7623
    9DOPE  H15X 1150  -3.021   2.527   0.628 -0.6616  0.2815  0.4994
    9DOPE  H15Y 1151  -3.186   2.526   0.620  1.8626  0.8022 -0.2943
    9DOPE  C316 1152  -3.117   2.369   0.499 -0.0924 -0.1106  0.3869
    9DOPE  H16X 1153  -3.204   2.300   0.504  0.3977 -0.7998 -0.3793
    9DOPE  H16Y 1154  -3.031   2.300   0.497  1.4827  1.6121  2.6118
    9DOPE  C317 1155  -3.132   2.450   0.371 -0.1705 -0.2168 -0.7446
    9DOPE  H17X 1156  -3.137   2.373   0.291 -0.8114 -0.4313 -0.5038
    9DOPE  H17Y 1157  -3.231   2.500   0.371  0.8957  2.0888  1.1217
    9DOPE  C318 1158  -3.019   2.553   0.350 -0.1836  0.2410  0.4600
    9DOPE  H18X 1159  -3.023   2.631   0.428  0.4850  1.2307 -0.4647
    9DOPE  H18Y 1160  -2.915   2.513   0.353 -1.2109 -2.7568 -0.3067
    9DOPE  H18Z 1161  -3.034   2.606   0.254  0.8686 -0.8715 -0.3575
   10DOPE     N 1162  -1.161   2.262   2.610 -0.5201  0.3343 -0.3879
   10DOPE   HN1 1163  -1.073   2.314   2.594 -0.1628 -0.4331 -0.9862
   10DOPE   HN2 1164  -1.123   2.182   2.665  0.2553  2.0524  1.7381
   10DOPE   HN3 1165  -1.193   2.236   2.515 -1.6460  1.5813 -0.3856
   10DOPE   C12 1166  -1.275   2.335   2.683 -0.9346  1.0264 -0.5163
   10DOPE  H12A 1167  -1.232   2.382   2.774  1.4246 -1.3317 -0.2838
   10DOPE  H12B 1168  -1.348   2.261   2.722  0.5340 -0.3652 -0.3011
   10DOPE   C11 1169  -1.336   2.447   2.601 -0.4850 -0.0283 -0.1309
   10DOPE  H11A 1170  -1.424   2.486   2.657 -0.6761 -2.3260  1.3052
   10DOPE  H11B 1171  -1.371   2.409   2.503  0.0705 -0.3575 -0.2045
   10DOPE     P 1172  -1.276   2.683   2.516 -0.1894 -0.1238  0.0711
   10DOPE   O13 1173  -1.153   2.754   2.484 -0.4499  0.2271 -0.3391
   10DOPE   O14 1174  -1.383   2.758   2.597 -0.1432 -0.2603 -0.1232
   10DOPE   O11 1175  -1.348   2.641   2.381 -0.1401  0.5337  0.5517
   10DOPE   O12 1176  -1.238   2.548   2.591  0.1573 -0.1231  0.5194
   10DOPE    C1 1177  -1.273   2.572   2.282 -0.2366 -0.0373  0.0456
   10DOPE    HA 1178  -1.295   2.464   2.295  0.2620 -0.3138 -1.2346
   10DOPE    HB 1179  -1.163   2.587   2.290 -0.3061  0.1796  0.6079
   10DOPE    C2 1180  -1.303   2.628   2.137  0.4851  0.4265 -0.0196
   10DOPE    HS 1181  -1.291   2.739   2.140 -0.4961  0.5275  2.2293
   10DOPE   O21 1182  -1.434   2.588   2.098  0.2859 -0.0086 -0.0583
   10DOPE   C21 1183  -1.537   2.657   2.124 -0.2797  0.5023  0.9077
   10DOPE   O22 1184  -1.539   2.776   2.168 -0.2363  0.4200  0.1523
   10DOPE   C22 1185  -1.658   2.563   2.079  0.0748  0.0508  0.0900
   10DOPE   H2R 1186  -1.744   2.589   2.143 -0.4423  1.9293 -1.2667
   10DOPE   H2S 1187  -1.620   2.460   2.093 -0.0162 -0.0350 -0.2787
   10DOPE    C3 1188  -1.201   2.572   2.030  0.0203 -0.0064 -0.0363
   10DOPE    HX 1189  -1.180   2.470   2.066 -0.5341  0.6880  2.4808
   10DOPE    HY 1190  -1.097   2.611   2.025 -0.0075  0.2298  0.8988
   10DOPE   O31 1191  -1.255   2.571   1.893  0.0741 -0.0397  0.4851
   10DOPE   C31 1192  -1.232   2.691   1.836  0.8908  0.6928  0.5241
   10DOPE   O32 1193  -1.151   2.771   1.875  0.2511 -0.4975 -0.4412
   10DOPE   C32 1194  -1.331   2.714   1.715 -0.0220 -0.1447  0.1460
   10DOPE   H2X 1195  -1.348   2.613   1.672  0.2183  0.3144 -1.0499
   10DOPE   H2Y 1196  -1.426   2.754   1.757  0.4980  2.4324 -0.9608
   10DOPE   C23 1197  -1.700   2.581   1.937  0.4209 -0.0984  0.2191
   10DOPE   H3R 1198  -1.611   2.564   1.872 -0.7776 -1.5859 -1.1040
   10DOPE   H3S 1199  -1.727   2.687   1.915 -0.1295 -0.0273  1.2065
   10DOPE   C24 1200  -1.811   2.483   1.884  0.3214  0.4583 -0.7529
   10DOPE   H4R 1201  -1.908   2.533   1.905 -0.4152 -0.7529 -1.1823
   10DOPE   H4S 1202  -1.815   2.387   1.940 -1.8866  0.9207 -0.0110
   10DOPE   C25 1203  -1.805   2.461   1.738 -0.2363  1.1334  0.1155
   10DOPE   H5R 1204  -1.706   2.428   1.699 -1.2773 -0.7205 -1.1034
   10DOPE   H5S 1205  -1.810   2.557   1.681  1.2463  0.8778 -0.4941
   10DOPE   C26 1206  -1.913   2.362   1.688 -0.5369 -0.3408 -0.0738
   10DOPE   H6R 1207  -2.013   2.404   1.714 -0.0423  0.6898  0.2060
   10DOPE   H6S 1208  -1.897   2.270   1.748  1.3139 -1.2316 -1.8186
   10DOPE   C27 1209  -1.910   2.328   1.541 -0.9450 -0.4144  1.0036
   10DOPE   H7R 1210  -1.922   2.427   1.493 -1.1275 -0.8092  0.2172
   10DOPE   H7S 1211  -1.994   2.259   1.517 -0.2385 -0.6925 -0.7763
   10DOPE   C28 1212  -1.781   2.268   1.495 -0.2174  1.1505 -0.4911
   10DOPE   H8R 1213  -1.744   2.199   1.573  1.1093 -1.8536 -3.5491
   10DOPE   H8S 1214  -1.694   2.337   1.497  1.2780 -0.6611  1.5346
   10DOPE   C29 1215  -1.776   2.189   1.365 -0.5694 -0.3544  0.0172
   10DOPE   H9R 1216  -1.757   2.081   1.372  1.4664 -0.0409 -0.0037
   10DOPE  C210 1217  -1.828   2.231   1.247  0.2909 -0.3037  0.3770
   10DOPE  H10R 1218  -1.834   2.167   1.158 -1.2162  1.0036 -0.5215
   10DOPE  C211 1219  -1.890   2.369   1.221 -0.5011 -0.2628  0.2294
   10DOPE  H11R 1220  -1.838   2.444   1.284 -0.3336  2.7004 -3.1152
   10DOPE  H11S 1221  -2.000   2.370   1.236 -0.6660  1.1370 -0.8754
   10DOPE  C212 1222  -1.868   2.427   1.081  0.2512 -0.6434 -0.3000
   10DOPE  H12R 1223  -1.761   2.442   1.054 -0.0487 -0.3154 -1.3409
   10DOPE  H12S 1224  -1.929   2.519   1.085  0.0305 -0.7408  3.8564
   10DOPE  C213 1225  -1.921   2.348   0.960  0.1847 -0.2403  0.9114
   10DOPE  H13R 1226  -2.030   2.334   0.978  0.2808 -3.2379 -0.2474
   10DOPE  H13S 1227  -1.869   2.251   0.944 -0.7512 -0.5211 -0.6871
   10DOPE  C214 1228  -1.930   2.416   0.818 -0.0865  0.8015 -0.2007
   10DOPE  H14R 1229  -1.975   2.517   0.828 -0.9766  0.5874 -1.7398
   10DOPE  H14S 1230  -1.976   2.339   0.752  0.5416 -1.2669  1.6248
   10DOPE  C215 1231  -1.788   2.432   0.757  0.5855 -0.1395 -0.2992
   10DOPE  H15R 1232  -1.738   2.333   0.766 -0.6061 -0.5860  2.2911
   10DOPE  H15S 1233  -1.732   2.504   0.820  0.7628 -0.0478 -0.5570
   10DOPE  C216 1234  -1.796   2.493   0.622 -0.5849  0.4695 -0.2801
   10DOPE  H16R 1235  -1.689   2.502   0.593 -0.7239 -1.2282 -1.4462
   10DOPE  H16S 1236  -1.852   2.589   0.622  0.5086  1.1313  0.4440
   10DOPE  C217 1237  -1.855   2.398   0.507  0.1298 -0.2712  0.1528
   10DOPE  H17R 1238  -1.965   2.385   0.516  0.2537 -0.9643  0.7880
   10DOPE  H17S 1239  -1.803   2.300   0.518  1.2111  0.2655 -0.0066
   10DOPE  C218 1240  -1.830   2.442   0.361  0.1955  0.2591 -0.3722
   10DOPE  H18R 1241  -1.864   2.548   0.348  0.6514  0.5752  0.8866
   10DOPE  H18S 1242  -1.869   2.372   0.284  1.4837  0.2180 -1.0105
   10DOPE  H18T 1243  -1.724   2.472   0.350  1.0018 -2.3200 -0.1382
   10DOPE   C33 1244  -1.276   2.827   1.614 -0.6419 -0.4659 -0.6116
   10DOPE   H3X 1245  -1.199   2.781   1.548 -2.0499 -0.2901 -2.4439
   10DOPE   H3Y 1246  -1.236   2.913   1.671 -2.1814 -1.0830  1.5347
   10DOPE   C34 1247  -1.388   2.870   1.518  0.0044  0.3678 -0.2747
   10DOPE   H4X 1248  -1.467   2.927   1.571  0.7990  2.0077 -0.7955
   10DOPE   H4Y 1249  -1.341   2.925   1.434 -2.4894  2.8389 -0.1845
   10DOPE   C35 1250  -1.465   2.761   1.446  0.5523  0.3293  0.1562
   10DOPE   H5X 1251  -1.549   2.809   1.391  1.7265 -0.5448 -2.5574
   10DOPE   H5Y 1252  -1.511   2.693   1.520 -0.9344  1.9822  0.8485
   10DOPE   C36 1253  -1.393   2.670   1.338 -1.1863  0.5068  0.0878
   10DOPE   H6X 1254  -1.315   2.609   1.390 -2.1788 -0.5720  0.3656
   10DOPE   H6Y 1255  -1.337   2.727   1.262 -0.0928  0.9872  1.2217
   10DOPE   C37 1256  -1.485   2.577   1.263  0.0724  0.1834 -0.2994
   10DOPE   H7X 1257  -1.567   2.539   1.329  1.4499 -1.4922  0.5294
   10DOPE   H7Y 1258  -1.536   2.623   1.176 -0.9665 -0.9841 -0.3460
   10DOPE   C38 1259  -1.403   2.459   1.203 -0.1914  0.2558 -0.6081
   10DOPE   H8X 1260  -1.351   2.427   1.296 -1.8034  0.0179  0.2517
   10DOPE   H8Y 1261  -1.331   2.499   1.128  2.9452 -2.3838  0.7224
   10DOPE   C39 1262  -1.503   2.357   1.154  0.1529 -0.1758  0.0735
   10DOPE   H9X 1263  -1.549   2.294   1.232  0.0702 -4.7128 -3.2386
   10DOPE  C310 1264  -1.508   2.320   1.024 -0.8784 -0.1964 -0.5439
   10DOPE  H10X 1265  -1.589   2.250   1.005 -2.1139  0.8523  0.6343
   10DOPE  C311 1266  -1.436   2.375   0.898  1.3030  0.2338  0.3069
   10DOPE  H11X 1267  -1.476   2.474   0.869 -0.8222 -1.3038 -2.5781
   10DOPE  H11Y 1268  -1.329   2.391   0.923  1.7952  0.4061 -1.7090
   10DOPE  C312 1269  -1.433   2.276   0.780 -0.4622 -0.2114  0.5942
   10DOPE  H12X 1270  -1.534   2.232   0.764 -1.0390  1.5207 -0.8670
   10DOPE  H12Y 1271  -1.348   2.205   0.782  0.2574  0.0042 -5.0641
   10DOPE  C313 1272  -1.405   2.354   0.646  0.7869  0.0408 -0.6286
   10DOPE  H13X 1273  -1.484   2.430   0.629  0.2438 -0.4352 -0.2772
   10DOPE  H13Y 1274  -1.312   2.412   0.660  0.7924 -0.3898  1.5799
   10DOPE  C314 1275  -1.388   2.263   0.518  0.1322 -0.1402  0.4363
   10DOPE  H14X 1276  -1.320   2.179   0.544  1.5621  1.2791  1.4711
   10DOPE  H14Y 1277  -1.341   2.314   0.431 -3.0067 -0.4737 -1.6216
   10DOPE  C315 1278  -1.520   2.215   0.459 -0.2486 -0.4043 -0.4531
   10DOPE  H15X 1279  -1.569   2.280   0.384  0.0447 -0.6515 -0.8610
   10DOPE  H15Y 1280  -1.596   2.205   0.540 -0.9732 -0.3858 -1.1137
   10DOPE  C316 1281  -1.490   2.076   0.396 -0.4955  0.1789 -0.1864
   10DOPE  H16X 1282  -1.436   2.013   0.469  0.5426 -3.4525 -3.7496
   10DOPE  H16Y 1283  -1.415   2.087   0.315 -2.0383  3.0524 -1.3749
   10DOPE  C317 1284  -1.620   2.009   0.350  0.3931  0.7570 -0.1874
   10DOPE  H17X 1285  -1.596   1.904   0.322 -2.0680 -0.0192  0.4185
   10DOPE  H17Y 1286  -1.684   1.998   0.440  2.5560  1.2503  1.5007
   10DOPE  C318 1287  -1.693   2.073   0.236 -0.8119 -0.5176 -0.7260
   10DOPE  H18X 1288  -1.784   2.025   0.194 -1.6907  0.4950 -0.0192
   10DOPE  H18Y 1289  -1.722   2.177   0.262  1.8275 -0.1750  1.3162
   10DOPE  H18Z 1290  -1.618   2.081   0.154  1.3932  0.8366  1.2815
   11DOPE     N 1291  -2.916   0.346   1.834 -0.1720 -0.3254 -0.8045
   11DOPE   HN1 1292  -2.934   0.286   1.751 -2.8083  1.9822 -2.0710
   11DOPE   HN2 1293  -3.004   0.360   1.888  0.0125  1.0858 -0.8459
   11DOPE   HN3 1294  -2.894   0.441   1.799 -4.8953  0.2644 -2.8819
   11DOPE   C12 1295  -2.795   0.279   1.900  0.2825  0.1849 -0.0816
   11DOPE  H12A 1296  -2.701   0.293   1.843  0.0593  2.6077  0.0718
   11DOPE  H12B 1297  -2.816   0.170   1.893 -1.4286  0.5385 -0.9446
   11DOPE   C11 1298  -2.777   0.318   2.048  0.0020 -0.0834 -0.2916
   11DOPE  H11A 1299  -2.681   0.283   2.091  1.0469  1.0698 -1.5993
   11DOPE  H11B 1300  -2.853   0.256   2.100 -2.7785  2.5318 -0.9045
   11DOPE     P 1301  -2.697   0.566   2.116  0.4326 -0.2337  0.3418
   11DOPE   O13 1302  -2.574   0.553   2.040 -0.0364 -0.2048 -0.2864
   11DOPE   O14 1303  -2.691   0.561   2.265 -0.4010  0.2706 -0.5293
   11DOPE   O11 1304  -2.759   0.709   2.073 -0.3134  1.2781  0.1484
   11DOPE   O12 1305  -2.800   0.461   2.060 -0.0270  0.0144 -0.2692
   11DOPE    C1 1306  -2.898   0.723   2.072  0.4795  0.1784  0.0917
   11DOPE    HA 1307  -2.926   0.791   2.156 -2.7539  2.2857 -2.4458
   11DOPE    HB 1308  -2.955   0.630   2.096  1.1729 -0.0536  0.8643
   11DOPE    C2 1309  -2.960   0.785   1.943 -0.7800  0.2480  0.1129
   11DOPE    HS 1310  -3.044   0.723   1.908 -0.7217 -0.0369  0.4758
   11DOPE   O21 1311  -2.863   0.819   1.842  0.4902 -0.1848  0.2051
   11DOPE   C21 1312  -2.833   0.718   1.763 -0.5208 -0.2795 -0.0189
   11DOPE   O22 1313  -2.880   0.602   1.772 -0.0738 -0.3378  0.2432
   11DOPE   C22 1314  -2.732   0.760   1.658 -0.6697 -0.0354 -0.3367
   11DOPE   H2R 1315  -2.640   0.774   1.717 -0.1674  0.2540 -1.1761
   11DOPE   H2S 1316  -2.766   0.859   1.621  0.7763  0.8231  0.5549
   11DOPE    C3 1317  -3.030   0.916   1.991 -0.1785  0.0118 -0.1120
   11DOPE    HX 1318  -2.951   0.988   2.022  1.1220 -1.1146 -0.6931
   11DOPE    HY 1319  -3.094   0.887   2.077 -1.3902 -1.0248 -1.3178
   11DOPE   O31 1320  -3.107   0.986   1.891 -0.1390 -0.1656 -0.0503
   11DOPE   C31 1321  -3.221   0.929   1.869 -0.5086 -0.2469  0.3797
   11DOPE   O32 1322  -3.267   0.839   1.939 -0.0494  0.6953 -0.8484
   11DOPE   C32 1323  -3.286   0.979   1.739 -0.0944  0.4706 -0.5054
   11DOPE   H2X 1324  -3.396   0.967   1.742 -0.2736  1.1167 -2.6702
   11DOPE   H2Y 1325  -3.259   1.087   1.728 -0.2450  0.5040 -0.5535
   11DOPE   C23 1326  -2.695   0.663   1.553 -0.1787  0.3839  0.2698
   11DOPE   H3R 1327  -2.687   0.561   1.596  1.4523 -1.6593 -4.2869
   11DOPE   H3S 1328  -2.600   0.685   1.500 -1.3081  2.6256 -0.9630
   11DOPE   C24 1329  -2.786   0.674   1.438  0.5663  0.1577  0.0076
   11DOPE   H4R 1330  -2.788   0.771   1.382  1.7617  0.6724  0.8298
   11DOPE   H4S 1331  -2.891   0.662   1.473  0.8652  0.1318  0.9046
   11DOPE   C25 1332  -2.750   0.567   1.333  0.4806  0.1952  0.2670
   11DOPE   H5R 1333  -2.772   0.464   1.370 -2.4364 -0.1825 -2.2021
   11DOPE   H5S 1334  -2.644   0.572   1.298  0.1849 -1.8648 -1.0654
   11DOPE   C26 1335  -2.835   0.581   1.205 -0.5002 -0.3452 -0.0297
   11DOPE   H6R 1336  -2.932   0.623   1.240 -0.2614 -1.0487  1.5810
   11DOPE   H6S 1337  -2.855   0.488   1.148  0.6431  1.4144 -3.5860
   11DOPE   C27 1338  -2.769   0.671   1.105 -0.1724 -0.0021  0.0674
   11DOPE   H7R 1339  -2.676   0.619   1.074 -0.0602  1.3383 -2.0752
   11DOPE   H7S 1340  -2.743   0.770   1.149 -2.3247  0.7732 -0.3140
   11DOPE   C28 1341  -2.855   0.682   0.969  0.2556  0.0239 -0.2168
   11DOPE   H8R 1342  -2.949   0.738   0.987  1.4452  1.5651  1.5417
   11DOPE   H8S 1343  -2.884   0.579   0.940  2.1250 -0.5019 -0.3453
   11DOPE   C29 1344  -2.783   0.729   0.847  0.1980 -0.5202 -0.3181
   11DOPE   H9R 1345  -2.688   0.780   0.867 -1.0942  1.1010  2.3514
   11DOPE  C210 1346  -2.830   0.722   0.723  0.3683 -0.1096  0.4066
   11DOPE  H10R 1347  -2.763   0.743   0.638  1.9445 -0.6781  1.4670
   11DOPE  C211 1348  -2.954   0.649   0.677  0.3663  0.0357  0.5554
   11DOPE  H11R 1349  -3.033   0.718   0.713  0.6284  1.0236 -0.6564
   11DOPE  H11S 1350  -2.978   0.557   0.734 -2.2453  0.7710  0.7893
   11DOPE  C212 1351  -2.953   0.625   0.519 -0.2445 -0.2158 -0.7773
   11DOPE  H12R 1352  -3.033   0.553   0.490 -0.2443 -0.2232 -0.7595
   11DOPE  H12S 1353  -2.854   0.589   0.487  0.0670 -0.1293  0.0516
   11DOPE  C213 1354  -2.998   0.759   0.453 -0.1309 -0.1769  0.0017
   11DOPE  H13R 1355  -2.933   0.849   0.461  0.0945 -0.3817  0.4801
   11DOPE  H13S 1356  -3.098   0.791   0.490 -0.0683 -0.1389  0.1377
   11DOPE  C214 1357  -3.025   0.738   0.300 -0.1379 -0.0898  0.5661
   11DOPE  H14R 1358  -3.077   0.643   0.274  2.0394 -0.6104 -2.3841
   11DOPE  H14S 1359  -2.928   0.728   0.247 -0.9633 -1.4850 -0.7759
   11DOPE  C215 1360  -3.127   0.842   0.244 -0.9576 -0.0331 -0.1397
   11DOPE  H15R 1361  -3.087   0.944   0.261 -0.3323 -0.6094  2.1915
   11DOPE  H15S 1362  -3.220   0.825   0.302 -1.8151  1.6091 -0.9721
   11DOPE  C216 1363  -3.148   0.820   0.097  0.2874  0.6067  0.4396
   11DOPE  H16R 1364  -3.246   0.872   0.083 -1.1233 -2.4248 -2.4629
   11DOPE  H16S 1365  -3.176   0.716   0.071  1.0521 -0.1794  2.6329
   11DOPE  C217 1366  -3.034   0.876   0.013  0.0393  0.0595 -0.2515
   11DOPE  H17R 1367  -2.944   0.816   0.039 -0.3781  0.1731  1.6138
   11DOPE  H17S 1368  -3.012   0.980   0.044  1.4196 -0.6975  1.4839
   11DOPE  C218 1369  -3.054   0.872  -0.136  0.1562  0.7005 -0.0143
   11DOPE  H18R 1370  -3.067   0.768  -0.173  2.3944 -0.2919  1.7266
   11DOPE  H18S 1371  -2.962   0.903  -0.190 -0.0730 -0.8242 -1.3682
   11DOPE  H18T 1372  -3.139   0.935  -0.169 -0.0678  0.5795  0.3301
   11DOPE   C33 1373  -3.240   0.919   1.611 -0.0060 -0.2040  0.3632
   11DOPE   H3X 1374  -3.285   0.818   1.608  0.0105 -0.2226  0.6881
   11DOPE   H3Y 1375  -3.129   0.910   1.619 -0.1571 -1.4591  1.4349
   11DOPE   C34 1376  -3.260   1.007   1.480  0.2981 -0.4958  0.3500
   11DOPE   H4X 1377  -3.365   1.041   1.471  0.4183  0.0186  0.8209
   11DOPE   H4Y 1378  -3.192   1.095   1.484  3.2217 -2.6296  1.6507
   11DOPE   C35 1379  -3.228   0.933   1.358 -0.3563  0.0015  0.1850
   11DOPE   H5X 1380  -3.293   0.843   1.352 -0.7662  0.2974  0.1325
   11DOPE   H5Y 1381  -3.122   0.901   1.360  0.5199  2.6362 -0.4619
   11DOPE   C36 1382  -3.236   1.034   1.236 -0.4503  0.1645 -0.8347
   11DOPE   H6X 1383  -3.180   1.127   1.260  0.1928  0.1203 -2.1030
   11DOPE   H6Y 1384  -3.341   1.058   1.208 -0.7833  2.2198  1.7300
   11DOPE   C37 1385  -3.168   0.960   1.117 -0.1966 -0.3353  0.4870
   11DOPE   H7X 1386  -3.077   0.908   1.154  1.9999  2.2297 -1.0246
   11DOPE   H7Y 1387  -3.241   0.888   1.074  0.0308  0.7320 -1.8745
   11DOPE   C38 1388  -3.139   1.054   1.005 -0.5569 -0.2268 -0.4479
   11DOPE   H8X 1389  -3.063   1.126   1.041  1.5174 -1.6589 -1.7787
   11DOPE   H8Y 1390  -3.229   1.114   0.978 -0.5738 -1.0533 -2.3750
   11DOPE   C39 1391  -3.092   0.987   0.882 -0.1372  0.7921 -0.2546
   11DOPE   H9X 1392  -3.012   0.912   0.890 -0.7931  0.0148 -0.7744
   11DOPE  C310 1393  -3.150   0.997   0.765  0.0539  0.4382 -0.4835
   11DOPE  H10X 1394  -3.096   0.967   0.674  0.5686  1.1764 -0.4322
   11DOPE  C311 1395  -3.260   1.086   0.725  0.0303 -0.3097 -0.4646
   11DOPE  H11X 1396  -3.358   1.057   0.766  0.7781  0.1184  1.7549
   11DOPE  H11Y 1397  -3.248   1.184   0.776 -1.8413 -0.2545 -0.0744
   11DOPE  C312 1398  -3.266   1.110   0.568  0.6247  0.3585 -0.4835
   11DOPE  H12X 1399  -3.252   1.008   0.527 -0.4055 -0.2376  0.6108
   11DOPE  H12Y 1400  -3.184   1.182   0.545  0.7960  0.3723  0.1564
   11DOPE  C313 1401  -3.400   1.173   0.529 -0.4080  0.8646  0.1220
   11DOPE  H13X 1402  -3.478   1.098   0.554  0.2851 -0.8146 -2.4068
   11DOPE  H13Y 1403  -3.414   1.266   0.588  1.4009 -0.2515  2.5105
   11DOPE  C314 1404  -3.411   1.197   0.381 -0.6433 -0.5453 -0.4419
   11DOPE  H14X 1405  -3.344   1.270   0.332  1.4022 -2.0185  0.0196
   11DOPE  H14Y 1406  -3.513   1.232   0.354  0.5928  2.5886 -1.3947
   11DOPE  C315 1407  -3.389   1.078   0.298 -0.2341 -0.0127  0.1732
   11DOPE  H15X 1408  -3.434   0.991   0.351 -1.6533  1.5847  1.7180
   11DOPE  H15Y 1409  -3.280   1.053   0.300  0.5992  3.1289 -0.6101
   11DOPE  C316 1410  -3.442   1.071   0.155 -0.0329 -0.2468  0.3302
   11DOPE  H16X 1411  -3.547   1.106   0.148  0.0176  0.6488  2.9699
   11DOPE  H16Y 1412  -3.440   0.970   0.109  0.7275  0.5157 -1.4322
   11DOPE  C317 1413  -3.367   1.156   0.051 -0.1010  0.7598  0.0657
   11DOPE  H17X 1414  -3.391   1.263   0.066 -2.8121  0.2236  0.1611
   11DOPE  H17Y 1415  -3.260   1.150   0.080  0.3358  1.8166 -1.2514
   11DOPE  C318 1416  -3.386   1.121  -0.104  0.0159 -0.2575 -0.3499
   11DOPE  H18X 1417  -3.492   1.130  -0.137 -0.6058  0.4576  1.6543
   11DOPE  H18Y 1418  -3.331   1.200  -0.160 -1.7597  1.3553  0.0676
   11DOPE  H18Z 1419  -3.346   1.020  -0.124 -0.7294 -0.4986 -0.6571
   12DOPE     N 1420  -0.472  -3.263   2.124 -0.0419  0.3720 -0.1657
   12DOPE   HN1 1421  -0.408  -3.199   2.176  0.2089 -0.0836  0.0887
   12DOPE   HN2 1422  -0.428  -3.330   2.058 -1.6956 -0.1465 -0.7856
   12DOPE   HN3 1423  -0.544  -3.208   2.072 -1.1498 -0.7422  0.1398
   12DOPE   C12 1424  -0.547  -3.349   2.224 -0.3680 -0.1365 -0.9424
   12DOPE  H12A 1425  -0.630  -3.285   2.260  0.2341  0.3981 -0.4902
   12DOPE  H12B 1426  -0.474  -3.360   2.306  1.5113  0.5576 -2.4412
   12DOPE   C11 1427  -0.613  -3.482   2.180 -0.3082 -0.4489 -0.5458
   12DOPE  H11A 1428  -0.550  -3.547   2.117  1.4434  2.3398 -1.8852
   12DOPE  H11B 1429  -0.684  -3.451   2.100  1.3917  0.8379 -1.6286
   12DOPE     P 1430  -0.817  -3.581   2.314  0.1509  0.0720 -0.1117
   12DOPE   O13 1431  -0.885  -3.454   2.333 -0.0052 -0.1593  0.5496
   12DOPE   O14 1432  -0.846  -3.689   2.413 -0.8047  0.6578 -0.0967
   12DOPE   O11 1433  -0.861  -3.636   2.177  0.4214  0.4042 -0.1355
   12DOPE   O12 1434  -0.660  -3.557   2.292  0.4488  0.1961  0.3573
   12DOPE    C1 1435  -0.998  -3.665   2.142 -0.1164 -0.1716 -0.2853
   12DOPE    HA 1436  -1.068  -3.634   2.222 -1.1210 -0.1760 -1.1391
   12DOPE    HB 1437  -1.011  -3.772   2.115  2.7852 -0.3199 -1.5396
   12DOPE    C2 1438  -1.051  -3.578   2.020 -0.8377 -0.2561 -0.3246
   12DOPE    HS 1439  -1.158  -3.608   2.017 -1.6558  2.2311  1.2096
   12DOPE   O21 1440  -0.982  -3.622   1.903 -0.5602 -0.9922 -0.6034
   12DOPE   C21 1441  -1.052  -3.612   1.789 -0.3100 -0.0984  0.2948
   12DOPE   O22 1442  -1.170  -3.579   1.784 -0.4271  0.2640  0.1167
   12DOPE   C22 1443  -0.955  -3.627   1.674  0.1681 -0.2780  0.5215
   12DOPE   H2R 1444  -0.937  -3.737   1.666 -0.4884 -0.2632 -1.6503
   12DOPE   H2S 1445  -0.866  -3.563   1.693 -2.0214  3.2167 -0.2671
   12DOPE    C3 1446  -1.043  -3.426   2.049 -0.0269  0.0782  0.3392
   12DOPE    HX 1447  -0.942  -3.388   2.024 -0.5731  0.4954 -1.3929
   12DOPE    HY 1448  -1.056  -3.402   2.156 -0.7258  0.3944  0.1912
   12DOPE   O31 1449  -1.155  -3.360   1.988  0.8527 -0.1550  0.7378
   12DOPE   C31 1450  -1.128  -3.256   1.909 -0.4916  0.1887  0.7466
   12DOPE   O32 1451  -1.016  -3.208   1.893  0.5966  0.1016  0.0298
   12DOPE   C32 1452  -1.260  -3.195   1.851  0.1748 -0.8253 -0.4311
   12DOPE   H2X 1453  -1.306  -3.143   1.937 -1.6086 -0.3070 -1.6532
   12DOPE   H2Y 1454  -1.229  -3.107   1.791  2.8782 -2.0369 -0.9923
   12DOPE   C23 1455  -1.018  -3.567   1.540 -0.2743  0.2417  0.1903
   12DOPE   H3R 1456  -1.022  -3.457   1.549  0.0006  0.2322  0.4200
   12DOPE   H3S 1457  -1.121  -3.605   1.524  0.3552 -1.0202 -1.1805
   12DOPE   C24 1458  -0.934  -3.605   1.416  0.1731 -0.6475  0.9180
   12DOPE   H4R 1459  -0.904  -3.712   1.420  0.6823 -0.5098  0.8648
   12DOPE   H4S 1460  -0.840  -3.547   1.407 -0.0150 -0.4729 -0.1620
   12DOPE   C25 1461  -1.008  -3.585   1.284  0.0288  0.1553  0.8832
   12DOPE   H5R 1462  -1.060  -3.487   1.277  0.4812  0.3242 -0.5280
   12DOPE   H5S 1463  -1.095  -3.654   1.288  1.0335 -1.1505  0.6615
   12DOPE   C26 1464  -0.927  -3.601   1.153  0.4498  0.0653  0.1294
   12DOPE   H6R 1465  -0.887  -3.704   1.153 -3.5645 -1.6766 -0.4973
   12DOPE   H6S 1466  -0.846  -3.524   1.149 -0.6258  1.2097 -0.5774
   12DOPE   C27 1467  -1.010  -3.579   1.022  0.1350 -0.4217 -0.2753
   12DOPE   H7R 1468  -1.047  -3.475   1.019 -0.9336 -0.6900  2.0890
   12DOPE   H7S 1469  -1.101  -3.643   1.020 -0.1770  0.0316 -1.1623
   12DOPE   C28 1470  -0.922  -3.599   0.892 -0.1024 -0.2315 -1.1549
   12DOPE   H8R 1471  -0.873  -3.699   0.901  2.8799  1.2814  1.5073
   12DOPE   H8S 1472  -0.847  -3.518   0.882 -0.2503 -0.2065 -2.1335
   12DOPE   C29 1473  -1.022  -3.598   0.784  0.6405 -0.9890 -0.6006
   12DOPE   H9R 1474  -1.116  -3.647   0.813 -0.1309  2.4006  3.6846
   12DOPE  C210 1475  -1.004  -3.549   0.661  0.2956  0.3780  0.3855
   12DOPE  H10R 1476  -1.073  -3.565   0.577  0.3444  3.2431 -0.3048
   12DOPE  C211 1477  -0.870  -3.495   0.607  0.1669 -0.2066 -0.0372
   12DOPE  H11R 1478  -0.814  -3.445   0.689 -1.0523  0.1773  0.5924
   12DOPE  H11S 1479  -0.892  -3.416   0.532 -1.4840  0.2037  0.8440
   12DOPE  C212 1480  -0.782  -3.608   0.545  0.8712 -0.4489  0.2831
   12DOPE  H12R 1481  -0.788  -3.690   0.619  1.1689  1.1794  2.1747
   12DOPE  H12S 1482  -0.675  -3.579   0.531  2.0119 -3.9704  0.6240
   12DOPE  C213 1483  -0.833  -3.675   0.414 -0.2856 -0.3886 -0.2313
   12DOPE  H13R 1484  -0.941  -3.695   0.431  0.3158 -1.7762  2.5112
   12DOPE  H13S 1485  -0.785  -3.770   0.386 -1.1709  0.1202 -3.9288
   12DOPE  C214 1486  -0.819  -3.582   0.300  0.0012 -0.6631  0.2692
   12DOPE  H14R 1487  -0.719  -3.588   0.252 -0.7336 -0.1400 -1.4329
   12DOPE  H14S 1488  -0.847  -3.477   0.326  0.3596 -0.8166  1.2940
   12DOPE  C215 1489  -0.915  -3.627   0.184 -0.6851 -0.1175 -0.8394
   12DOPE  H15R 1490  -0.944  -3.539   0.122 -2.2909  0.4706  0.6664
   12DOPE  H15S 1491  -1.007  -3.662   0.236 -0.2541  0.6366  0.4889
   12DOPE  C216 1492  -0.874  -3.743   0.086 -0.2095  0.3174  0.3026
   12DOPE  H16R 1493  -0.813  -3.820   0.137  2.3193  1.6192 -0.5934
   12DOPE  H16S 1494  -0.816  -3.694   0.005 -1.3610  2.4538  0.6975
   12DOPE  C217 1495  -0.998  -3.808   0.018 -0.2608 -0.0831 -0.1922
   12DOPE  H17R 1496  -0.968  -3.858  -0.077 -5.1134 -0.5625 -1.7269
   12DOPE  H17S 1497  -1.072  -3.725   0.008 -0.1618  0.0083 -0.1728
   12DOPE  C218 1498  -1.067  -3.910   0.108  0.2526 -0.1163 -0.9302
   12DOPE  H18R 1499  -1.094  -3.884   0.213 -0.0642 -3.6379 -0.0016
   12DOPE  H18S 1500  -1.010  -4.005   0.118  0.6137  0.0280 -1.6014
   12DOPE  H18T 1501  -1.164  -3.943   0.064 -0.2830  1.2633 -0.8257
   12DOPE   C33 1502  -1.358  -3.293   1.782 -0.2054 -0.4316  0.0747
   12DOPE   H3X 1503  -1.450  -3.282   1.844  0.4362  0.4077  0.9154
   12DOPE   H3Y 1504  -1.329  -3.398   1.804  1.0512 -0.2618 -0.7006
   12DOPE   C34 1505  -1.384  -3.257   1.636  0.2248  0.3517  0.8084
   12DOPE   H4X 1506  -1.453  -3.332   1.593  0.5622  1.0344 -1.0089
   12DOPE   H4Y 1507  -1.429  -3.156   1.628 -0.2434  0.0397 -1.0252
   12DOPE   C35 1508  -1.255  -3.261   1.549  0.3629  0.0972  0.4985
   12DOPE   H5X 1509  -1.228  -3.369   1.540  1.3200  0.4641 -1.6679
   12DOPE   H5Y 1510  -1.170  -3.203   1.591  0.5287  1.0171 -1.0222
   12DOPE   C36 1511  -1.284  -3.186   1.416  0.7570 -0.3482  0.9525
   12DOPE   H6X 1512  -1.305  -3.084   1.455  0.6509  0.5210 -1.2415
   12DOPE   H6Y 1513  -1.380  -3.222   1.372  1.4618 -0.9768 -0.1008
   12DOPE   C37 1514  -1.175  -3.195   1.307  0.3778  0.3660 -0.4791
   12DOPE   H7X 1515  -1.087  -3.144   1.351 -0.0871  1.0828 -0.3562
   12DOPE   H7Y 1516  -1.139  -3.300   1.303  0.2883 -0.0006  3.7333
   12DOPE   C38 1517  -1.214  -3.124   1.176 -0.2284 -0.2259 -0.0727
   12DOPE   H8X 1518  -1.235  -3.017   1.196  0.6293 -0.1253  0.3710
   12DOPE   H8Y 1519  -1.307  -3.171   1.138 -0.8369 -1.6919  2.9852
   12DOPE   C39 1520  -1.113  -3.133   1.066 -0.5766 -0.5381  0.3701
   12DOPE   H9X 1521  -1.031  -3.062   1.083 -0.7719 -0.6507  1.9864
   12DOPE  C310 1522  -1.133  -3.195   0.947 -0.5765  0.3007  0.3674
   12DOPE  H10X 1523  -1.057  -3.197   0.867 -0.3639  0.1317  0.5704
   12DOPE  C311 1524  -1.250  -3.282   0.906 -0.2639 -0.0440 -0.0207
   12DOPE  H11X 1525  -1.218  -3.388   0.898  1.3445  0.3928  0.3047
   12DOPE  H11Y 1526  -1.327  -3.279   0.986  0.2424 -0.7467  0.5133
   12DOPE  C312 1527  -1.331  -3.234   0.788 -0.0208  0.0022 -0.2267
   12DOPE  H12X 1528  -1.266  -3.224   0.699 -0.8213 -0.3526 -0.8586
   12DOPE  H12Y 1529  -1.362  -3.133   0.822  1.4117 -0.4515  2.8282
   12DOPE  C313 1530  -1.451  -3.316   0.748 -0.0113  0.4970 -0.5244
   12DOPE  H13X 1531  -1.525  -3.322   0.831 -0.7468  0.5802 -1.1661
   12DOPE  H13Y 1532  -1.501  -3.253   0.671 -1.5864 -1.7890 -1.4574
   12DOPE  C314 1533  -1.422  -3.450   0.688  0.1936 -0.0275 -0.2667
   12DOPE  H14X 1534  -1.376  -3.516   0.764  1.1001 -1.7730 -2.2405
   12DOPE  H14Y 1535  -1.345  -3.439   0.609  2.4208 -0.1653  1.7760
   12DOPE  C315 1536  -1.551  -3.507   0.630  0.1978 -0.2964  0.2858
   12DOPE  H15X 1537  -1.637  -3.507   0.701 -0.3610  0.1607 -0.3852
   12DOPE  H15Y 1538  -1.521  -3.607   0.591  2.7243 -0.1599  1.6379
   12DOPE  C316 1539  -1.605  -3.443   0.499 -0.2182 -1.0055  0.1268
   12DOPE  H16X 1540  -1.525  -3.451   0.423  0.8525 -1.0134  1.2259
   12DOPE  H16Y 1541  -1.635  -3.337   0.515 -0.8264 -0.8795 -1.5877
   12DOPE  C317 1542  -1.715  -3.518   0.432 -0.2950  0.0163  0.1405
   12DOPE  H17X 1543  -1.703  -3.627   0.418 -0.8686  0.0291 -0.5815
   12DOPE  H17Y 1544  -1.804  -3.496   0.494  0.0293 -1.5022  1.1808
   12DOPE  C318 1545  -1.743  -3.468   0.291 -0.4569  0.2473  0.0974
   12DOPE  H18X 1546  -1.822  -3.528   0.241 -0.8439  1.6197 -1.0130
   12DOPE  H18Y 1547  -1.766  -3.359   0.288  1.1345  0.6205  0.5176
   12DOPE  H18Z 1548  -1.651  -3.481   0.230  0.4397  0.4432  1.3715
   13DOPE     N 1549  -1.039  -1.304   2.453  0.0822 -0.0914 -0.1951
   13DOPE   HN1 1550  -0.976  -1.298   2.370  0.7651  1.4598  0.4090
   13DOPE   HN2 1551  -0.979  -1.284   2.535 -2.2400  2.6561  0.9896
   13DOPE   HN3 1552  -1.069  -1.404   2.447  0.9323 -0.3044 -1.2977
   13DOPE   C12 1553  -1.170  -1.227   2.452  0.1790 -0.5528  0.4304
   13DOPE  H12A 1554  -1.142  -1.135   2.508  0.3624  1.7222 -3.0744
   13DOPE  H12B 1555  -1.245  -1.295   2.498  0.0511 -0.8659 -0.2274
   13DOPE   C11 1556  -1.212  -1.178   2.304 -0.0808  0.4803 -0.6020
   13DOPE  H11A 1557  -1.293  -1.103   2.319 -0.7817 -0.0118 -1.8079
   13DOPE  H11B 1558  -1.258  -1.266   2.255 -0.6264  0.8695 -0.7956
   13DOPE     P 1559  -1.048  -0.988   2.230  0.1208 -0.0052 -0.1883
   13DOPE   O13 1560  -0.898  -0.988   2.252  0.1847 -0.1693  0.3435
   13DOPE   O14 1561  -1.133  -0.909   2.325 -0.7786  0.2463  0.4119
   13DOPE   O11 1562  -1.085  -0.932   2.091 -0.0999 -0.7959 -0.0348
   13DOPE   O12 1563  -1.099  -1.138   2.227  0.2144  0.7155 -0.4154
   13DOPE    C1 1564  -1.040  -1.012   1.981  0.2320 -0.1470  0.9589
   13DOPE    HA 1565  -1.103  -1.103   1.971 -0.3535  0.4000 -0.5211
   13DOPE    HB 1566  -0.933  -1.042   1.978  0.0969 -0.5766 -1.1552
   13DOPE    C2 1567  -1.070  -0.955   1.846  0.3116  0.0845  0.1480
   13DOPE    HS 1568  -1.021  -1.008   1.761 -0.1788 -0.2914  0.0995
   13DOPE   O21 1569  -1.041  -0.812   1.838  0.2341  0.2117 -0.3455
   13DOPE   C21 1570  -0.918  -0.791   1.801  0.3493 -1.0054 -0.5676
   13DOPE   O22 1571  -0.830  -0.871   1.780  0.0175  0.2372 -0.4765
   13DOPE   C22 1572  -0.904  -0.645   1.768 -0.0585 -0.1152 -0.7132
   13DOPE   H2R 1573  -0.796  -0.618   1.759  0.1213 -0.1166  1.0690
   13DOPE   H2S 1574  -0.937  -0.588   1.857 -1.3482  3.8138 -3.4280
   13DOPE    C3 1575  -1.222  -0.973   1.818  0.1858 -0.8256  0.5091
   13DOPE    HX 1576  -1.285  -0.918   1.891 -0.2996 -0.4490 -0.1817
   13DOPE    HY 1577  -1.246  -1.081   1.818 -0.3824 -0.7043  1.3717
   13DOPE   O31 1578  -1.255  -0.909   1.693  0.2889  0.0425  0.6711
   13DOPE   C31 1579  -1.230  -0.979   1.581  0.0904  0.0039  0.0693
   13DOPE   O32 1580  -1.176  -1.087   1.567 -0.2836 -0.6312  0.2761
   13DOPE   C32 1581  -1.259  -0.894   1.461  0.0243  0.5713 -0.6585
   13DOPE   H2X 1582  -1.353  -0.845   1.493  0.8432  1.0731  1.1245
   13DOPE   H2Y 1583  -1.176  -0.820   1.455 -0.9666  1.9580  1.3683
   13DOPE   C23 1584  -0.978  -0.591   1.643 -0.0218 -0.0002  0.1881
   13DOPE   H3R 1585  -0.988  -0.481   1.643  2.9936  0.3418  0.5743
   13DOPE   H3S 1586  -1.078  -0.641   1.643  1.1723 -2.5500 -0.4228
   13DOPE   C24 1587  -0.908  -0.624   1.503 -0.5951 -0.1815  0.7578
   13DOPE   H4R 1588  -0.900  -0.734   1.487  1.7616  0.1448 -0.7899
   13DOPE   H4S 1589  -0.802  -0.591   1.507 -0.9566  1.4526 -1.4795
   13DOPE   C25 1590  -0.983  -0.550   1.392 -0.5443  0.3132  0.0027
   13DOPE   H5R 1591  -1.012  -0.447   1.422  0.7562  0.9587 -0.9348
   13DOPE   H5S 1592  -1.082  -0.603   1.393 -0.3694 -0.0326  0.9745
   13DOPE   C26 1593  -0.917  -0.539   1.254 -0.3620 -0.8184  0.2738
   13DOPE   H6R 1594  -0.818  -0.488   1.264 -0.4802 -0.8350  1.8132
   13DOPE   H6S 1595  -0.979  -0.482   1.182  0.2752 -2.4035 -1.6015
   13DOPE   C27 1596  -0.891  -0.680   1.202  0.9075 -0.3845 -0.7463
   13DOPE   H7R 1597  -0.985  -0.736   1.221  0.2955  1.3990  1.9600
   13DOPE   H7S 1598  -0.813  -0.729   1.264  1.2798 -1.4005 -1.9675
   13DOPE   C28 1599  -0.847  -0.698   1.056 -0.4576 -0.4254 -0.3269
   13DOPE   H8R 1600  -0.758  -0.634   1.037 -0.2433 -0.7311 -0.3599
   13DOPE   H8S 1601  -0.937  -0.671   0.996 -0.6929 -1.1050 -0.2858
   13DOPE   C29 1602  -0.821  -0.848   1.029  0.4148 -0.4474 -0.6785
   13DOPE   H9R 1603  -0.844  -0.922   1.107 -0.1801  0.6542  0.2041
   13DOPE  C210 1604  -0.785  -0.897   0.912 -0.5256  0.1782 -0.7610
   13DOPE  H10R 1605  -0.778  -1.005   0.895  1.6978  0.4296 -1.7964
   13DOPE  C211 1606  -0.747  -0.815   0.795 -0.3968 -0.5925 -0.4540
   13DOPE  H11R 1607  -0.637  -0.806   0.783 -0.6924  3.0207 -1.6928
   13DOPE  H11S 1608  -0.794  -0.715   0.800 -0.7479 -0.8241  1.6029
   13DOPE  C212 1609  -0.802  -0.879   0.667  0.4248  0.7433  0.3858
   13DOPE  H12R 1610  -0.912  -0.863   0.670  0.2606 -0.4462  1.3678
   13DOPE  H12S 1611  -0.777  -0.987   0.659 -0.4597  0.5575 -0.0299
   13DOPE  C213 1612  -0.771  -0.795   0.539  0.1400 -0.6573 -0.1507
   13DOPE  H13R 1613  -0.660  -0.791   0.526  0.1632 -1.0482 -0.0897
   13DOPE  H13S 1614  -0.807  -0.694   0.566  0.0475 -0.8515  0.4736
   13DOPE  C214 1615  -0.837  -0.853   0.410 -0.1209 -0.4542  0.6939
   13DOPE  H14R 1616  -0.947  -0.863   0.427 -0.2748 -1.0793 -0.5484
   13DOPE  H14S 1617  -0.793  -0.954   0.396 -0.6675 -0.3266 -2.7170
   13DOPE  C215 1618  -0.811  -0.766   0.288 -0.0992 -0.1083 -0.1642
   13DOPE  H15R 1619  -0.705  -0.733   0.286 -1.1075  3.5394  0.1609
   13DOPE  H15S 1620  -0.868  -0.671   0.296  1.5904  0.8743  0.7095
   13DOPE  C216 1621  -0.865  -0.818   0.153  0.0661  0.4745  0.5250
   13DOPE  H16R 1622  -0.975  -0.805   0.152 -0.1075 -0.8228 -0.5113
   13DOPE  H16S 1623  -0.849  -0.928   0.149 -1.1080  0.2853  0.6997
   13DOPE  C217 1624  -0.795  -0.750   0.042  0.1090 -0.3142  0.1527
   13DOPE  H17R 1625  -0.685  -0.766   0.040 -0.1126 -1.9723 -0.5354
   13DOPE  H17S 1626  -0.803  -0.640   0.056 -1.1493 -0.4531  0.6303
   13DOPE  C218 1627  -0.852  -0.792  -0.098  0.8236  0.1775 -0.7318
   13DOPE  H18R 1628  -0.777  -0.760  -0.174  2.0395 -0.5105  0.1352
   13DOPE  H18S 1629  -0.948  -0.739  -0.114  0.8576  0.6277  0.4483
   13DOPE  H18T 1630  -0.863  -0.900  -0.121  1.3371 -0.1593  0.5100
   13DOPE   C33 1631  -1.258  -0.968   1.326 -0.6695  0.3024 -0.3867
   13DOPE   H3X 1632  -1.347  -1.032   1.316 -0.5138  0.0677 -0.2773
   13DOPE   H3Y 1633  -1.165  -1.027   1.314  0.9491  2.8064 -0.9476
   13DOPE   C34 1634  -1.269  -0.870   1.210  0.0070 -0.1013  0.4807
   13DOPE   H4X 1635  -1.376  -0.842   1.201 -0.3478 -0.9647  1.6886
   13DOPE   H4Y 1636  -1.220  -0.771   1.221  1.2670 -0.1983 -3.0113
   13DOPE   C35 1637  -1.219  -0.935   1.075  0.3535 -0.2703 -0.5610
   13DOPE   H5X 1638  -1.264  -1.036   1.059  0.4521 -0.0891 -2.1715
   13DOPE   H5Y 1639  -1.109  -0.955   1.077  0.1574 -1.4434 -0.7528
   13DOPE   C36 1640  -1.259  -0.847   0.965 -0.3294  0.0693  0.3249
   13DOPE   H6X 1641  -1.201  -0.752   0.964  0.1378 -0.2022  0.8770
   13DOPE   H6Y 1642  -1.369  -0.833   0.972 -0.0734  1.3805  2.6507
   13DOPE   C37 1643  -1.234  -0.918   0.832 -0.2075 -0.8417  0.4568
   13DOPE   H7X 1644  -1.125  -0.923   0.813 -0.4333  0.7155 -1.5039
   13DOPE   H7Y 1645  -1.264  -1.025   0.832 -1.4925 -0.5349 -1.3419
   13DOPE   C38 1646  -1.294  -0.832   0.717  0.2213 -0.5104  0.6194
   13DOPE   H8X 1647  -1.224  -0.748   0.695 -0.7095  0.2467  0.4532
   13DOPE   H8Y 1648  -1.388  -0.791   0.762 -0.0743  0.0841 -0.5005
   13DOPE   C39 1649  -1.330  -0.908   0.587  0.3614 -0.2341 -0.8871
   13DOPE   H9X 1650  -1.248  -0.906   0.514  3.3048 -0.0514  2.1949
   13DOPE  C310 1651  -1.451  -0.966   0.557 -0.2879  0.1484  0.9988
   13DOPE  H10X 1652  -1.462  -1.003   0.454  3.0171 -0.6701  0.8242
   13DOPE  C311 1653  -1.563  -0.974   0.647  0.7678 -0.0578  0.6451
   13DOPE  H11X 1654  -1.592  -1.080   0.656 -0.8944  0.0282 -2.4154
   13DOPE  H11Y 1655  -1.540  -0.938   0.750  0.4448 -3.3590  1.9712
   13DOPE  C312 1656  -1.692  -0.911   0.590  0.4107  0.0476  0.0761
   13DOPE  H12X 1657  -1.674  -0.801   0.591  1.7915 -0.1322 -1.0603
   13DOPE  H12Y 1658  -1.775  -0.917   0.663 -1.1694  2.4518 -1.3755
   13DOPE  C313 1659  -1.732  -0.967   0.457 -0.0947 -0.1621  0.1239
   13DOPE  H13X 1660  -1.671  -0.919   0.377 -2.4948 -1.6024 -2.7960
   13DOPE  H13Y 1661  -1.711  -1.076   0.452 -2.3299 -0.6916  0.9726
   13DOPE  C314 1662  -1.878  -0.954   0.419  0.0052 -0.3569  0.9447
   13DOPE  H14X 1663  -1.902  -0.846   0.407 -1.4738 -0.7713 -0.0470
   13DOPE  H14Y 1664  -1.935  -0.984   0.510  0.2613 -0.4955  1.0619
   13DOPE  C315 1665  -1.921  -1.025   0.286  0.1355  0.5981 -0.7220
   13DOPE  H15X 1666  -2.028  -1.044   0.308  0.8961 -1.4638  1.6589
   13DOPE  H15Y 1667  -1.877  -1.125   0.265  0.5672  1.0807 -2.2392
   13DOPE  C316 1668  -1.901  -0.943   0.166  0.0249 -0.1725 -0.8517
   13DOPE  H16X 1669  -1.941  -0.843   0.194  1.8833  0.6077 -0.8075
   13DOPE  H16Y 1670  -1.969  -0.974   0.084 -0.9608 -0.0260 -0.1010
   13DOPE  C317 1671  -1.762  -0.935   0.106 -0.9892 -0.0790 -0.4625
   13DOPE  H17X 1672  -1.775  -0.886   0.007 -0.4709 -0.2374 -0.6137
   13DOPE  H17Y 1673  -1.684  -0.878   0.161 -1.3903  0.1709 -0.1438
   13DOPE  C318 1674  -1.715  -1.077   0.072 -0.1032  0.3007 -0.3855
   13DOPE  H18X 1675  -1.613  -1.068   0.029  0.8243 -0.3296  1.5689
   13DOPE  H18Y 1676  -1.720  -1.152   0.154 -1.4630  0.2330 -0.5184
   13DOPE  H18Z 1677  -1.768  -1.118  -0.016 -0.4300  0.2990 -0.1884
   14DOPE     N 1678   1.457   1.582   2.893 -0.5431  0.2696  0.0381
   14DOPE   HN1 1679   1.481   1.485   2.921 -0.4693  1.0976  3.2216
   14DOPE   HN2 1680   1.505   1.599   2.802  0.7857  0.2701  0.7329
   14DOPE   HN3 1681   1.505   1.651   2.953 -0.3538  0.7207 -0.6202
   14DOPE   C12 1682   1.311   1.606   2.890 -0.2388 -0.4201 -0.2129
   14DOPE  H12A 1683   1.272   1.561   2.983 -1.3332  0.0795 -0.4083
   14DOPE  H12B 1684   1.275   1.547   2.803 -1.9957  2.2264 -1.4094
   14DOPE   C11 1685   1.284   1.752   2.871  0.1843 -0.2117 -0.1484
   14DOPE  H11A 1686   1.339   1.811   2.947  0.4741 -0.4981 -0.1347
   14DOPE  H11B 1687   1.174   1.762   2.884  0.4266  1.9075  0.7290
   14DOPE     P 1688   1.256   1.848   2.631  0.0990 -0.2316  0.2135
   14DOPE   O13 1689   1.337   1.861   2.508 -0.2458 -0.5412  0.5919
   14DOPE   O14 1690   1.182   1.967   2.676 -0.0026 -0.4483  0.2661
   14DOPE   O11 1691   1.153   1.727   2.609  0.2894  0.3266  0.0518
   14DOPE   O12 1692   1.342   1.796   2.747  0.6686  0.0785 -0.3696
   14DOPE    C1 1693   1.184   1.604   2.542 -0.3267 -0.0668  0.3068
   14DOPE    HA 1694   1.103   1.531   2.564 -0.4521  0.5207  1.9087
   14DOPE    HB 1695   1.278   1.563   2.585 -1.0436 -1.1324  0.9056
   14DOPE    C2 1696   1.190   1.597   2.386  0.6453 -0.4909 -0.0652
   14DOPE    HS 1697   1.288   1.640   2.355  0.6560  0.4453  1.2266
   14DOPE   O21 1698   1.078   1.676   2.327  0.3602 -0.6249 -0.0880
   14DOPE   C21 1699   1.101   1.721   2.203  0.2090  0.6927  0.3114
   14DOPE   O22 1700   1.206   1.716   2.142  0.3044  0.2293  1.3935
   14DOPE   C22 1701   0.970   1.777   2.145 -0.1961 -0.3665  0.2904
   14DOPE   H2R 1702   0.938   1.853   2.219 -0.1306  0.7381 -0.7920
   14DOPE   H2S 1703   0.888   1.702   2.143  0.0198 -0.5881 -0.9868
   14DOPE    C3 1704   1.180   1.449   2.339  0.9464  0.0081  0.3253
   14DOPE    HX 1705   1.081   1.422   2.383  0.2129  0.0365 -1.2496
   14DOPE    HY 1706   1.258   1.384   2.385 -0.1696 -0.4025  1.7286
   14DOPE   O31 1707   1.165   1.437   2.194  0.2978  0.3827  0.5497
   14DOPE   C31 1708   1.271   1.399   2.122 -0.1624  0.2040 -0.6182
   14DOPE   O32 1709   1.379   1.361   2.166  0.5255 -0.8977 -0.1278
   14DOPE   C32 1710   1.238   1.421   1.975 -1.0359  0.1875  0.3837
   14DOPE   H2X 1711   1.130   1.406   1.953 -0.8238 -2.8247  0.8579
   14DOPE   H2Y 1712   1.265   1.527   1.961  1.6677 -0.5408 -0.5292
   14DOPE   C23 1713   0.985   1.837   2.009  0.0304 -0.0028 -0.5606
   14DOPE   H3R 1714   0.997   1.756   1.934 -0.1837 -1.1838  0.6674
   14DOPE   H3S 1715   1.060   1.919   2.004  0.5194 -0.4961 -1.5536
   14DOPE   C24 1716   0.851   1.904   1.967 -0.5692  0.0637  0.6169
   14DOPE   H4R 1717   0.828   1.979   2.045 -1.5537  1.4492 -0.9439
   14DOPE   H4S 1718   0.770   1.830   1.952 -1.1527  0.8384 -0.1676
   14DOPE   C25 1719   0.871   1.994   1.834  0.6488 -0.0075 -0.2851
   14DOPE   H5R 1720   0.951   2.062   1.870 -0.7768  0.0919  3.0405
   14DOPE   H5S 1721   0.769   2.036   1.820  0.3673 -0.1565  1.1338
   14DOPE   C26 1722   0.918   1.918   1.705  0.3380 -0.2666 -0.5513
   14DOPE   H6R 1723   0.852   1.831   1.685 -0.2713 -0.1154  0.6642
   14DOPE   H6S 1724   1.022   1.883   1.721 -0.1280 -2.6077 -2.1028
   14DOPE   C27 1725   0.921   2.021   1.579  0.0285 -0.0338 -0.1837
   14DOPE   H7R 1726   1.012   2.081   1.599 -0.6695  0.3167  2.3207
   14DOPE   H7S 1727   0.824   2.076   1.580  1.5251  2.7359  0.1746
   14DOPE   C28 1728   0.945   1.937   1.452  0.5473  0.5616  0.2133
   14DOPE   H8R 1729   0.864   1.862   1.441  0.4608  0.6303  0.3798
   14DOPE   H8S 1730   1.037   1.874   1.459 -0.2734 -0.8756 -1.2673
   14DOPE   C29 1731   0.957   2.034   1.333  0.0853  0.3123 -0.3094
   14DOPE   H9R 1732   1.020   2.118   1.365 -0.2296  0.0273  1.1189
   14DOPE  C210 1733   0.897   2.037   1.212  0.6900 -0.3275  0.2702
   14DOPE  H10R 1734   0.931   2.102   1.130 -0.8887  0.4435  0.2054
   14DOPE  C211 1735   0.789   1.949   1.167 -0.0338  0.0849 -0.4278
   14DOPE  H11R 1736   0.702   1.964   1.234  1.6474  1.7681  1.5130
   14DOPE  H11S 1737   0.827   1.844   1.169  0.5908  0.2444  3.4160
   14DOPE  C212 1738   0.731   1.988   1.031  0.0434  0.4513  0.7983
   14DOPE  H12R 1739   0.695   2.091   1.009  1.1149  0.5816 -0.4643
   14DOPE  H12S 1740   0.636   1.932   1.027 -0.4678  1.3709 -2.3745
   14DOPE  C213 1741   0.815   1.950   0.907  0.1166  0.7865  0.0813
   14DOPE  H13R 1742   0.828   1.840   0.900 -0.1615  0.8257 -1.4007
   14DOPE  H13S 1743   0.917   1.993   0.922  1.1219 -1.1077 -0.9570
   14DOPE  C214 1744   0.748   1.989   0.770  0.6964 -0.1996 -0.2694
   14DOPE  H14R 1745   0.779   2.093   0.743  1.2558 -0.8935 -2.4874
   14DOPE  H14S 1746   0.637   2.000   0.776  0.6845  0.2569 -1.1221
   14DOPE  C215 1747   0.761   1.892   0.654  0.2221  0.0006 -0.5906
   14DOPE  H15R 1748   0.774   1.786   0.685  0.0379  0.1770  0.1132
   14DOPE  H15S 1749   0.857   1.933   0.617 -0.2876  4.4241  2.1711
   14DOPE  C216 1750   0.654   1.894   0.548 -0.6239 -0.4573 -0.5311
   14DOPE  H16R 1751   0.570   1.876   0.617  1.4248 -0.3821  2.1223
   14DOPE  H16S 1752   0.656   1.806   0.480 -2.1785 -0.5227 -0.5117
   14DOPE  C217 1753   0.636   2.039   0.480 -0.3509 -0.5086 -0.5282
   14DOPE  H17R 1754   0.732   2.066   0.433  1.7928 -0.3200  3.5141
   14DOPE  H17S 1755   0.614   2.113   0.559 -2.2373  0.9215 -2.2920
   14DOPE  C218 1756   0.520   2.055   0.378 -0.1655  0.3517  0.0266
   14DOPE  H18R 1757   0.429   2.012   0.424  1.8348 -1.6884  2.3892
   14DOPE  H18S 1758   0.537   1.999   0.284  2.6054  0.8935  0.1229
   14DOPE  H18T 1759   0.515   2.164   0.356 -0.7348  0.6132  1.3389
   14DOPE   C33 1760   1.318   1.341   1.874 -0.2592 -0.1304 -0.0938
   14DOPE   H3X 1761   1.287   1.235   1.886 -1.6370  0.1341 -1.1282
   14DOPE   H3Y 1762   1.425   1.342   1.903  0.4072 -0.5454 -2.3493
   14DOPE   C34 1763   1.299   1.388   1.727  0.0131  0.0153 -0.5934
   14DOPE   H4X 1764   1.194   1.386   1.691  0.2175  0.1459 -1.2233
   14DOPE   H4Y 1765   1.326   1.496   1.729 -0.7353  0.2031  0.9597
   14DOPE   C35 1766   1.401   1.328   1.638  0.1778  0.7950 -0.3915
   14DOPE   H5X 1767   1.383   1.219   1.651  0.4684  0.8286  0.4117
   14DOPE   H5Y 1768   1.502   1.342   1.683 -0.9506 -2.3203  3.7407
   14DOPE   C36 1769   1.387   1.369   1.488 -0.4074 -0.2165  0.1797
   14DOPE   H6X 1770   1.474   1.329   1.432 -1.4069 -1.7781 -0.3390
   14DOPE   H6Y 1771   1.388   1.480   1.484 -1.3987  0.0238  3.4281
   14DOPE   C37 1772   1.263   1.310   1.419 -0.5600  0.2312 -0.3783
   14DOPE   H7X 1773   1.274   1.204   1.449  3.5830  1.2363  2.4436
   14DOPE   H7Y 1774   1.172   1.351   1.468  0.5258  3.0112 -0.5403
   14DOPE   C38 1775   1.247   1.333   1.268 -0.5694 -0.2321  0.5609
   14DOPE   H8X 1776   1.257   1.442   1.254 -0.3615 -0.4565 -1.2236
   14DOPE   H8Y 1777   1.143   1.307   1.238 -0.8190 -0.1962  1.3785
   14DOPE   C39 1778   1.347   1.271   1.176  0.3011  0.3924  0.0417
   14DOPE   H9X 1779   1.365   1.166   1.203  2.3516  1.2545  2.3943
   14DOPE  C310 1780   1.402   1.324   1.064 -0.2491 -0.5543 -0.8140
   14DOPE  H10X 1781   1.468   1.267   0.998  2.5551  2.1087 -0.5272
   14DOPE  C311 1782   1.385   1.467   1.010 -0.4471 -0.1314  0.0370
   14DOPE  H11X 1783   1.361   1.541   1.088 -2.3484 -0.8058  0.1312
   14DOPE  H11Y 1784   1.482   1.493   0.962  0.2252 -3.5510 -0.7515
   14DOPE  C312 1785   1.279   1.472   0.895  0.5317 -0.4383  0.2820
   14DOPE  H12X 1786   1.229   1.571   0.900  0.5755 -0.4221  0.4023
   14DOPE  H12Y 1787   1.207   1.391   0.916  0.4276 -0.5040 -0.2993
   14DOPE  C313 1788   1.353   1.425   0.770 -0.1354 -0.3010 -0.6396
   14DOPE  H13X 1789   1.444   1.483   0.745 -0.8890  0.9137 -0.6957
   14DOPE  H13Y 1790   1.396   1.325   0.791 -0.0781  0.1101  1.4081
   14DOPE  C314 1791   1.274   1.428   0.640  0.4092  0.4674 -0.3650
   14DOPE  H14X 1792   1.236   1.530   0.623  3.8206  1.8274 -0.6337
   14DOPE  H14Y 1793   1.184   1.364   0.641  1.0330 -0.4826 -1.5581
   14DOPE  C315 1794   1.357   1.378   0.520  0.1214 -0.3623  0.0758
   14DOPE  H15X 1795   1.396   1.276   0.540 -0.3764 -0.0883  2.7948
   14DOPE  H15Y 1796   1.445   1.444   0.506  0.8457 -0.9673  1.6659
   14DOPE  C316 1797   1.275   1.376   0.391  0.6352  0.0440 -0.6549
   14DOPE  H16X 1798   1.207   1.464   0.379  0.2379 -0.1733 -0.0267
   14DOPE  H16Y 1799   1.202   1.292   0.392 -0.7674  1.2135 -0.7251
   14DOPE  C317 1800   1.349   1.387   0.259  0.2135  0.3792 -0.5844
   14DOPE  H17X 1801   1.273   1.395   0.179  1.0714 -0.5903 -1.5290
   14DOPE  H17Y 1802   1.416   1.475   0.259  1.5861 -0.5478  2.0752
   14DOPE  C318 1803   1.435   1.269   0.214  0.2185  0.7911 -0.2145
   14DOPE  H18X 1804   1.527   1.276   0.277  0.9934  1.5154 -1.3926
   14DOPE  H18Y 1805   1.378   1.175   0.232 -0.0129  0.6153 -1.7119
   14DOPE  H18Z 1806   1.462   1.278   0.107  0.1974  1.3029 -0.1777
   15DOPE     N 1807  -3.187   0.381   2.445 -0.6282  0.1343  0.4652
   15DOPE   HN1 1808  -3.117   0.314   2.408  1.0396  3.0404 -2.0661
   15DOPE   HN2 1809  -3.168   0.401   2.545 -0.3836  0.5503  0.3390
   15DOPE   HN3 1810  -3.278   0.334   2.428 -0.8606 -0.0605  2.0842
   15DOPE   C12 1811  -3.183   0.499   2.351 -0.2993  0.2822 -0.2992
   15DOPE  H12A 1812  -3.113   0.577   2.388 -1.1395  0.9015 -0.0039
   15DOPE  H12B 1813  -3.283   0.544   2.338 -0.0405  0.8230 -0.4520
   15DOPE   C11 1814  -3.148   0.440   2.213  0.8163  0.0057  0.8149
   15DOPE  H11A 1815  -3.053   0.383   2.217  1.2014  0.3021 -1.9258
   15DOPE  H11B 1816  -3.123   0.532   2.156  1.8837  0.3160  1.7547
   15DOPE     P 1817  -3.229   0.270   2.026  0.0223 -0.3138  0.5081
   15DOPE   O13 1818  -3.358   0.214   1.982  0.3797 -0.1014  0.5416
   15DOPE   O14 1819  -3.120   0.173   2.054 -0.0040  0.0355  0.1919
   15DOPE   O11 1820  -3.184   0.374   1.915  0.4683  0.2915 -0.3918
   15DOPE   O12 1821  -3.258   0.364   2.158 -1.1113 -0.5083  0.3654
   15DOPE    C1 1822  -3.262   0.490   1.883 -0.3002 -0.3670  0.5394
   15DOPE    HA 1823  -3.211   0.586   1.909 -0.4625  0.2070 -1.1657
   15DOPE    HB 1824  -3.356   0.495   1.942 -0.3056 -1.5381  0.6464
   15DOPE    C2 1825  -3.299   0.503   1.732  0.2132 -0.3581  0.1824
   15DOPE    HS 1826  -3.380   0.578   1.735  0.3097 -0.2578  0.2891
   15DOPE   O21 1827  -3.338   0.370   1.680  0.0130 -0.0880 -0.4677
   15DOPE   C21 1828  -3.455   0.336   1.730 -0.0451  0.2185 -0.0148
   15DOPE   O22 1829  -3.529   0.409   1.797  0.0676  0.3911 -0.4031
   15DOPE   C22 1830  -3.490   0.191   1.680  0.2336 -0.8668  0.0900
   15DOPE   H2R 1831  -3.527   0.130   1.765  0.3003  0.3281  1.0014
   15DOPE   H2S 1832  -3.399   0.147   1.635 -0.1692 -0.1854 -1.4675
   15DOPE    C3 1833  -3.180   0.562   1.646  0.0757  0.3291 -0.1447
   15DOPE    HX 1834  -3.094   0.494   1.661 -1.5784 -1.5580  1.3625
   15DOPE    HY 1835  -3.153   0.663   1.683 -1.2841  0.8806 -0.5662
   15DOPE   O31 1836  -3.220   0.586   1.512  0.2702  0.1704  0.5102
   15DOPE   C31 1837  -3.168   0.509   1.416 -0.4960 -0.8796  0.5224
   15DOPE   O32 1838  -3.098   0.412   1.433 -0.2313 -0.0910  0.6802
   15DOPE   C32 1839  -3.213   0.562   1.275  0.4985 -0.0642  0.4618
   15DOPE   H2X 1840  -3.321   0.586   1.285  0.8773  0.8438  3.2140
   15DOPE   H2Y 1841  -3.153   0.653   1.253  0.4676  0.1653  1.2893
   15DOPE   C23 1842  -3.587   0.196   1.564 -0.0595 -0.5610  0.0241
   15DOPE   H3R 1843  -3.681   0.244   1.598 -1.0902 -1.4097 -1.5102
   15DOPE   H3S 1844  -3.612   0.091   1.537 -2.2417  0.4390 -2.1353
   15DOPE   C24 1845  -3.537   0.271   1.440  0.2000 -0.4180 -0.0305
   15DOPE   H4R 1846  -3.439   0.231   1.408  0.4555  0.7809 -0.7937
   15DOPE   H4S 1847  -3.524   0.381   1.451  0.7665 -0.5871  1.1091
   15DOPE   C25 1848  -3.645   0.246   1.316 -0.1213  0.0344 -0.0271
   15DOPE   H5R 1849  -3.741   0.282   1.361  0.1318 -0.1066  0.6442
   15DOPE   H5S 1850  -3.645   0.137   1.297 -2.2876 -0.0113 -0.0278
   15DOPE   C26 1851  -3.604   0.320   1.186  0.5763  0.0567 -0.2225
   15DOPE   H6R 1852  -3.505   0.280   1.155  0.9479  1.1910 -0.5701
   15DOPE   H6S 1853  -3.600   0.428   1.211 -1.1287  0.0812  0.0857
   15DOPE   C27 1854  -3.723   0.297   1.087 -0.0156 -0.2862 -0.0630
   15DOPE   H7R 1855  -3.818   0.334   1.131  1.1423  2.8856  0.0219
   15DOPE   H7S 1856  -3.733   0.188   1.069 -2.6247 -0.5054  1.9925
   15DOPE   C28 1857  -3.704   0.372   0.955 -0.5764  0.5567  0.2317
   15DOPE   H8R 1858  -3.611   0.323   0.921 -1.6437 -0.2741 -1.6339
   15DOPE   H8S 1859  -3.689   0.479   0.980  2.1777 -0.0739  1.7252
   15DOPE   C29 1860  -3.811   0.345   0.847 -0.6720  0.7369 -0.1778
   15DOPE   H9R 1861  -3.912   0.387   0.857 -1.6295 -1.4287 -0.2098
   15DOPE  C210 1862  -3.805   0.265   0.742  0.0114 -0.4733  0.4096
   15DOPE  H10R 1863  -3.875   0.284   0.659 -1.3401  0.3423  1.7028
   15DOPE  C211 1864  -3.701   0.164   0.703 -0.0893 -0.8178 -0.5298
   15DOPE  H11R 1865  -3.752   0.084   0.646 -1.2026 -0.6130  0.1519
   15DOPE  H11S 1866  -3.667   0.116   0.797 -1.5822 -0.8137  0.0327
   15DOPE  C212 1867  -3.570   0.220   0.639  0.0420  0.4295  0.3677
   15DOPE  H12R 1868  -3.492   0.140   0.635  1.2866  1.6625 -1.6266
   15DOPE  H12S 1869  -3.534   0.311   0.691  0.8168 -0.1073  0.8012
   15DOPE  C213 1870  -3.598   0.283   0.501 -0.5876 -0.4606 -0.0318
   15DOPE  H13R 1871  -3.505   0.330   0.462 -0.7798 -0.9261 -1.0795
   15DOPE  H13S 1872  -3.670   0.368   0.504  0.3355  0.3567 -0.4318
   15DOPE  C214 1873  -3.659   0.188   0.399 -0.3874  0.2553 -0.2359
   15DOPE  H14R 1874  -3.762   0.162   0.434 -0.8466  0.4183 -1.4271
   15DOPE  H14S 1875  -3.603   0.092   0.401  1.2382  1.0466 -3.0405
   15DOPE  C215 1876  -3.657   0.249   0.254  0.6946 -0.0867 -0.3383
   15DOPE  H15R 1877  -3.554   0.257   0.213  0.2108  3.2008 -1.2650
   15DOPE  H15S 1878  -3.714   0.345   0.253  1.6234  0.5130  1.4665
   15DOPE  C216 1879  -3.737   0.144   0.168  0.6494 -0.2681 -0.1587
   15DOPE  H16R 1880  -3.845   0.167   0.183 -0.2312 -3.9983  0.3197
   15DOPE  H16S 1881  -3.728   0.038   0.199  0.1824  0.1455  1.4706
   15DOPE  C217 1882  -3.703   0.136   0.021  0.3995  0.9195 -0.2425
   15DOPE  H17R 1883  -3.596   0.115  -0.002 -0.5867 -4.1634 -1.3454
   15DOPE  H17S 1884  -3.726   0.234  -0.027 -2.6460 -0.7250 -2.4509
   15DOPE  C218 1885  -3.776   0.024  -0.048  0.8182 -0.1751 -0.1008
   15DOPE  H18R 1886  -3.883   0.050  -0.061  0.7025  0.4639  1.8124
   15DOPE  H18S 1887  -3.761  -0.074   0.002  0.2445  0.0081  0.4428
   15DOPE  H18T 1888  -3.735   0.004  -0.150  1.7793  0.2727  0.1839
   15DOPE   C33 1889  -3.199   0.442   1.187 -0.5156  0.0145  0.3053
   15DOPE   H3X 1890  -3.272   0.359   1.197  1.4227 -1.9144 -0.8932
   15DOPE   H3Y 1891  -3.107   0.385   1.208 -0.4641  0.5558  1.6751
   15DOPE   C34 1892  -3.211   0.477   1.036  0.3230  0.2308  0.7044
   15DOPE   H4X 1893  -3.316   0.504   1.009  0.2374  1.8419  2.4858
   15DOPE   H4Y 1894  -3.149   0.567   1.021 -0.5126  0.6805 -0.1147
   15DOPE   C35 1895  -3.154   0.358   0.946 -0.1258  0.3207 -0.7547
   15DOPE   H5X 1896  -3.188   0.263   0.993 -0.7940  0.4925 -0.8733
   15DOPE   H5Y 1897  -3.043   0.361   0.942  0.1154  0.7034  3.0289
   15DOPE   C36 1898  -3.197   0.362   0.798 -0.3028 -0.1674 -0.0955
   15DOPE   H6X 1899  -3.157   0.460   0.766 -1.8112  0.9559  1.3009
   15DOPE   H6Y 1900  -3.307   0.359   0.782 -0.2500 -2.7000 -0.4484
   15DOPE   C37 1901  -3.135   0.252   0.716  0.2864  0.4601 -0.6757
   15DOPE   H7X 1902  -3.029   0.226   0.737  0.4429  2.1637  0.9045
   15DOPE   H7Y 1903  -3.196   0.165   0.747 -1.1698  1.6663 -0.0128
   15DOPE   C38 1904  -3.155   0.266   0.566  0.4194 -0.1292 -0.2104
   15DOPE   H8X 1905  -3.096   0.351   0.526 -0.5560  0.0554 -1.2890
   15DOPE   H8Y 1906  -3.259   0.302   0.547  0.0900 -1.8090 -1.8459
   15DOPE   C39 1907  -3.124   0.127   0.500  0.7294 -0.1990  0.5980
   15DOPE   H9X 1908  -3.134   0.031   0.552 -1.2527 -0.5301 -0.2912
   15DOPE  C310 1909  -3.076   0.120   0.378 -0.5774 -0.1241 -0.4447
   15DOPE  H10X 1910  -3.057   0.021   0.334  0.8930 -0.3015  0.5304
   15DOPE  C311 1911  -3.063   0.231   0.282 -0.0338  0.3399  0.4311
   15DOPE  H11X 1912  -3.044   0.333   0.322  0.2700 -0.2130  1.7151
   15DOPE  H11Y 1913  -2.978   0.201   0.217  0.5690 -0.3123  1.4921
   15DOPE  C312 1914  -3.200   0.242   0.207 -0.8410  0.1644  0.0024
   15DOPE  H12X 1915  -3.274   0.294   0.271 -0.1313  1.4234 -0.1643
   15DOPE  H12Y 1916  -3.239   0.140   0.187 -1.4422  0.3129  0.4031
   15DOPE  C313 1917  -3.184   0.319   0.075  0.0605  0.4038 -0.4742
   15DOPE  H13X 1918  -3.106   0.398   0.082 -0.7498  1.1354  0.9564
   15DOPE  H13Y 1919  -3.153   0.240   0.004  0.7760 -0.3582  0.6639
   15DOPE  C314 1920  -3.308   0.393   0.029 -0.2760  0.2515  0.6994
   15DOPE  H14X 1921  -3.327   0.478   0.097 -0.2678  1.5411 -0.8478
   15DOPE  H14Y 1922  -3.392   0.321   0.040  0.9845 -1.0913  2.1208
   15DOPE  C315 1923  -3.294   0.441  -0.117  0.0877  0.1201 -0.4359
   15DOPE  H15X 1924  -3.279   0.349  -0.178 -1.9619 -0.0878 -0.6684
   15DOPE  H15Y 1925  -3.199   0.494  -0.139  0.3342 -0.7947 -1.6975
   15DOPE  C316 1926  -3.414   0.518  -0.161  0.6040  0.3154  0.6243
   15DOPE  H16X 1927  -3.503   0.452  -0.149  0.2645  0.8810  1.3313
   15DOPE  H16Y 1928  -3.409   0.525  -0.272 -0.0690 -1.5753  0.4382
   15DOPE  C317 1929  -3.430   0.656  -0.093  0.4095  0.2268  0.8685
   15DOPE  H17X 1930  -3.435   0.646   0.018  1.7737 -3.2670  0.7243
   15DOPE  H17Y 1931  -3.349   0.724  -0.126 -0.5699 -0.0633 -2.4831
   15DOPE  C318 1932  -3.559   0.726  -0.134  0.0528  0.3737 -0.0488
   15DOPE  H18X 1933  -3.577   0.727  -0.243 -3.4460  0.0618  0.4119
   15DOPE  H18Y 1934  -3.645   0.679  -0.082  0.1585 -0.5210 -0.6710
   15DOPE  H18Z 1935  -3.553   0.833  -0.103  2.0485  0.4381 -0.5220
   16DOPE     N 1936   2.445   0.871   2.488  0.3283 -0.5919 -0.2186
   16DOPE   HN1 1937   2.465   0.969   2.458 -3.3058 -0.2918 -2.1480
   16DOPE   HN2 1938   2.499   0.816   2.418 -1.2110 -1.4863 -0.7318
   16DOPE   HN3 1939   2.345   0.855   2.464 -0.3999  2.6184  0.1639
   16DOPE   C12 1940   2.478   0.830   2.623  0.1713  0.4299 -0.8168
   16DOPE  H12A 1941   2.415   0.741   2.643 -0.9639  1.2341 -0.6819
   16DOPE  H12B 1942   2.432   0.907   2.689 -1.9031 -2.1690  0.9742
   16DOPE   C11 1943   2.624   0.822   2.659 -0.3641  0.1557  0.3251
   16DOPE  H11A 1944   2.643   0.781   2.761  0.3811 -2.8667 -0.9200
   16DOPE  H11B 1945   2.671   0.922   2.655  2.5953 -1.0738  1.3287
   16DOPE     P 1946   2.694   0.589   2.567 -0.0255 -0.0715 -0.0977
   16DOPE   O13 1947   2.577   0.547   2.647  0.9634  0.1426 -0.5648
   16DOPE   O14 1948   2.827   0.542   2.605 -0.0406  0.5333 -0.4384
   16DOPE   O11 1949   2.664   0.546   2.417 -0.1335 -0.4165  0.3818
   16DOPE   O12 1950   2.699   0.746   2.569 -0.0002  0.8356  0.3920
   16DOPE    C1 1951   2.754   0.502   2.319 -0.9597  0.3978  0.6166
   16DOPE    HA 1952   2.753   0.395   2.291 -0.0976  0.6112 -0.3061
   16DOPE    HB 1953   2.859   0.518   2.353 -1.0079 -1.0645  1.5034
   16DOPE    C2 1954   2.749   0.579   2.187  0.8377 -0.3185  0.0491
   16DOPE    HS 1955   2.793   0.678   2.212 -1.3575  1.1969 -1.7411
   16DOPE   O21 1956   2.620   0.592   2.126 -0.1034 -0.3140 -0.3008
   16DOPE   C21 1957   2.549   0.695   2.182 -0.1940  0.0976 -0.1718
   16DOPE   O22 1958   2.584   0.758   2.280 -0.7001  0.3582  0.3723
   16DOPE   C22 1959   2.416   0.712   2.107  0.4088 -0.2787  0.2625
   16DOPE   H2R 1960   2.338   0.691   2.183  0.1673  0.7931  0.3219
   16DOPE   H2S 1961   2.397   0.636   2.027 -0.2691  1.0537 -0.8896
   16DOPE    C3 1962   2.850   0.526   2.085 -0.3063 -0.6639  0.0164
   16DOPE    HX 1963   2.812   0.422   2.071 -1.1665 -0.6040  1.6497
   16DOPE    HY 1964   2.946   0.509   2.138  0.0623 -0.4950 -0.5919
   16DOPE   O31 1965   2.858   0.599   1.963  0.3484  0.0752  0.3006
   16DOPE   C31 1966   2.966   0.676   1.953 -0.2842 -0.6029  0.3396
   16DOPE   O32 1967   3.057   0.677   2.038 -0.1955 -0.6480 -0.1556
   16DOPE   C32 1968   2.956   0.762   1.824  0.0249 -0.5960 -0.2450
   16DOPE   H2X 1969   2.848   0.765   1.802  0.3383 -1.9281 -2.2313
   16DOPE   H2Y 1970   2.999   0.863   1.840 -2.8238  0.6569  0.0816
   16DOPE   C23 1971   2.394   0.861   2.058 -0.1731 -0.2737 -0.2750
   16DOPE   H3R 1972   2.414   0.929   2.144 -1.8152 -0.1109  0.0070
   16DOPE   H3S 1973   2.286   0.879   2.042 -0.1608 -0.9852 -1.2244
   16DOPE   C24 1974   2.471   0.899   1.935  0.2710 -0.4787 -0.0239
   16DOPE   H4R 1975   2.570   0.912   1.983  0.0635  3.7510 -0.3536
   16DOPE   H4S 1976   2.427   0.994   1.898 -1.8333 -1.0928  0.7520
   16DOPE   C25 1977   2.489   0.790   1.819 -0.2942 -0.6610  0.3571
   16DOPE   H5R 1978   2.407   0.716   1.814 -1.2859  0.4047  0.5323
   16DOPE   H5S 1979   2.573   0.724   1.852  0.6563 -0.0904 -0.8243
   16DOPE   C26 1980   2.508   0.849   1.680 -0.1709 -0.0560  0.3199
   16DOPE   H6R 1981   2.417   0.905   1.647  0.9758  0.8691 -1.4000
   16DOPE   H6S 1982   2.527   0.764   1.612  0.1651  0.8411 -0.7443
   16DOPE   C27 1983   2.622   0.955   1.665 -0.3634 -0.6204 -0.5548
   16DOPE   H7R 1984   2.721   0.905   1.671 -0.1206 -0.0096  1.2862
   16DOPE   H7S 1985   2.613   1.026   1.750 -2.1519 -3.0366  1.4444
   16DOPE   C28 1986   2.621   1.023   1.529 -0.0940  0.9847  0.3059
   16DOPE   H8R 1987   2.691   1.109   1.523  2.3401 -0.8670  0.7379
   16DOPE   H8S 1988   2.524   1.070   1.504 -0.8647 -0.6213  0.1500
   16DOPE   C29 1989   2.665   0.926   1.416  0.5694  0.2317  0.4076
   16DOPE   H9R 1990   2.693   0.824   1.447 -1.3279 -0.0610  1.3211
   16DOPE  C210 1991   2.690   0.963   1.290  0.3598 -0.3186 -0.1561
   16DOPE  H10R 1992   2.721   0.884   1.220  2.5077  0.2956  0.0157
   16DOPE  C211 1993   2.669   1.102   1.231 -0.3537 -0.9909  0.1646
   16DOPE  H11R 1994   2.713   1.180   1.298  1.4136 -0.9901 -0.9453
   16DOPE  H11S 1995   2.560   1.121   1.220 -0.5443 -1.7787  0.6066
   16DOPE  C212 1996   2.732   1.115   1.087  0.4912 -0.1803 -0.0535
   16DOPE  H12R 1997   2.828   1.060   1.075  1.1523  1.3731 -2.7488
   16DOPE  H12S 1998   2.748   1.223   1.071  3.6121 -0.5349  0.0329
   16DOPE  C213 1999   2.638   1.065   0.979 -0.1635  0.1644  0.4717
   16DOPE  H13R 2000   2.564   1.144   0.954  0.1714  0.0489 -1.0245
   16DOPE  H13S 2001   2.583   0.978   1.018  1.2668 -1.1000 -0.2210
   16DOPE  C214 2002   2.714   1.028   0.854  0.4368 -0.3491 -0.6609
   16DOPE  H14R 2003   2.646   0.992   0.774 -1.4495  0.1327  0.6649
   16DOPE  H14S 2004   2.769   0.935   0.880 -1.6302 -1.2797  0.6531
   16DOPE  C215 2005   2.802   1.144   0.799  0.4657 -0.0106  0.5819
   16DOPE  H15R 2006   2.868   1.185   0.879  2.3499  1.1585 -1.4576
   16DOPE  H15S 2007   2.732   1.228   0.782  0.5274  0.4041  2.1516
   16DOPE  C216 2008   2.875   1.102   0.675 -0.3362  0.0163  0.5230
   16DOPE  H16R 2009   2.922   1.002   0.685  0.9255  0.2642 -2.1854
   16DOPE  H16S 2010   2.951   1.181   0.657 -1.0586  0.4554 -0.6948
   16DOPE  C217 2011   2.785   1.117   0.549  0.0358 -0.2608  0.1731
   16DOPE  H17R 2012   2.723   1.208   0.551 -2.2656 -1.7348 -0.3649
   16DOPE  H17S 2013   2.719   1.028   0.540  0.4251 -0.4834 -0.5955
   16DOPE  C218 2014   2.866   1.108   0.421 -0.5071  0.1049  0.0152
   16DOPE  H18R 2015   2.800   1.131   0.335 -0.5671 -0.4234 -0.0841
   16DOPE  H18S 2016   2.906   1.005   0.407  0.4205  0.5812 -0.9423
   16DOPE  H18T 2017   2.944   1.186   0.409 -0.7574  0.4294  0.4487
   16DOPE   C33 2018   3.011   0.682   1.709 -0.3172 -0.1505  0.2034
   16DOPE   H3X 2019   2.958   0.587   1.689 -0.6983  0.4726 -2.0671
   16DOPE   H3Y 2020   3.119   0.658   1.721  0.0232  0.9020 -0.5211
   16DOPE   C34 2021   2.994   0.766   1.581  0.2496 -0.1947  0.4033
   16DOPE   H4X 2022   2.934   0.709   1.507 -0.5419  1.9748 -0.7167
   16DOPE   H4Y 2023   2.932   0.856   1.603 -0.7146 -0.4938 -0.9283
   16DOPE   C35 2024   3.121   0.812   1.506  0.0827  0.1506  0.0439
   16DOPE   H5X 2025   3.198   0.732   1.509  0.8692  0.7060 -2.8142
   16DOPE   H5Y 2026   3.150   0.905   1.560  0.2570  2.3022 -3.4986
   16DOPE   C36 2027   3.098   0.848   1.359  0.1598 -0.1012  0.7765
   16DOPE   H6X 2028   3.177   0.921   1.333 -0.3402  0.4609  0.8138
   16DOPE   H6Y 2029   3.012   0.917   1.346  0.2538  0.0857  1.1358
   16DOPE   C37 2030   3.091   0.726   1.265 -0.2917  0.4826  0.5087
   16DOPE   H7X 2031   3.184   0.666   1.271 -0.0722  0.9069  1.7899
   16DOPE   H7Y 2032   3.022   0.654   1.315 -0.5415  1.0476  0.9966
   16DOPE   C38 2033   3.035   0.761   1.125 -0.5255 -0.1937  0.4877
   16DOPE   H8X 2034   2.935   0.810   1.128  0.0278  1.0221 -0.2973
   16DOPE   H8Y 2035   3.026   0.661   1.077  1.0262  0.0135 -0.2774
   16DOPE   C39 2036   3.126   0.863   1.058 -0.4205  0.5313 -0.3636
   16DOPE   H9X 2037   3.145   0.951   1.120 -1.1755  2.0145 -2.1620
   16DOPE  C310 2038   3.165   0.866   0.930  0.2732 -0.9603  0.4876
   16DOPE  H10X 2039   3.229   0.948   0.895  0.4350 -0.8855  0.9436
   16DOPE  C311 2040   3.144   0.759   0.827 -0.5114  0.0443 -0.0208
   16DOPE  H11X 2041   3.124   0.664   0.883 -2.0046  1.4018  1.8969
   16DOPE  H11Y 2042   3.049   0.792   0.780  0.4756  2.0795 -0.6606
   16DOPE  C312 2043   3.256   0.766   0.723  0.2641 -0.3885 -0.4714
   16DOPE  H12X 2044   3.356   0.744   0.767  1.4926  0.2678 -2.7842
   16DOPE  H12Y 2045   3.266   0.866   0.677 -1.7915 -0.9697 -2.3309
   16DOPE  C313 2046   3.236   0.664   0.607  0.2241  0.0468  0.8408
   16DOPE  H13X 2047   3.238   0.564   0.655 -1.5100  0.9888  3.0422
   16DOPE  H13Y 2048   3.138   0.684   0.560 -0.1445  0.0275  1.5848
   16DOPE  C314 2049   3.342   0.677   0.498 -0.1857  0.2032 -0.1215
   16DOPE  H14X 2050   3.436   0.642   0.546 -0.4923 -1.2481 -0.5132
   16DOPE  H14Y 2051   3.346   0.779   0.454 -0.0517  0.1950 -0.1308
   16DOPE  C315 2052   3.328   0.586   0.369  0.2223 -0.9476 -0.3506
   16DOPE  H15X 2053   3.352   0.478   0.386 -1.2568 -1.1001  0.9094
   16DOPE  H15Y 2054   3.407   0.616   0.297 -0.4997  0.9352 -0.4191
   16DOPE  C316 2055   3.189   0.594   0.311  0.8597  0.1773 -0.1359
   16DOPE  H16X 2056   3.110   0.563   0.382 -0.9326 -0.8821 -2.4450
   16DOPE  H16Y 2057   3.166   0.533   0.221 -4.2648  1.5318 -0.0436
   16DOPE  C317 2058   3.148   0.729   0.262 -0.5202  0.6414  0.4346
   16DOPE  H17X 2059   3.167   0.804   0.341  0.5739  0.7328  0.1121
   16DOPE  H17Y 2060   3.216   0.775   0.187  0.0540 -0.2139  0.4137
   16DOPE  C318 2061   3.005   0.742   0.207 -0.5561  0.0866  0.2335
   16DOPE  H18X 2062   2.959   0.843   0.198 -2.5070 -0.8415 -1.0761
   16DOPE  H18Y 2063   2.997   0.711   0.100  0.0775 -0.5395  0.3608
   16DOPE  H18Z 2064   2.928   0.691   0.268  0.1221  1.5168  2.4164
   17DOPE     N 2065  -0.991  -1.889   2.239 -0.1650 -0.0062  0.0107
   17DOPE   HN1 2066  -0.995  -1.816   2.313  0.1249  2.0568 -1.8939
   17DOPE   HN2 2067  -1.018  -1.980   2.281 -2.0950  1.5185  2.3439
   17DOPE   HN3 2068  -0.896  -1.896   2.196  0.2265 -0.7633  0.9483
   17DOPE   C12 2069  -1.093  -1.849   2.137 -0.2538  0.0410 -0.2018
   17DOPE  H12A 2070  -1.094  -1.921   2.052 -1.1676 -0.1577 -0.0427
   17DOPE  H12B 2071  -1.062  -1.754   2.088 -0.7721  0.5675  0.4709
   17DOPE   C11 2072  -1.232  -1.840   2.194  0.1533  0.0553 -0.2690
   17DOPE  H11A 2073  -1.278  -1.940   2.210 -2.4673  1.4059  1.4424
   17DOPE  H11B 2074  -1.308  -1.791   2.130 -1.1324  1.1256  1.9652
   17DOPE     P 2075  -1.256  -1.619   2.340  0.2053  0.2034 -0.4958
   17DOPE   O13 2076  -1.155  -1.551   2.421  0.2654  0.2784 -0.8452
   17DOPE   O14 2077  -1.399  -1.596   2.376 -0.4586 -0.2534 -0.4709
   17DOPE   O11 2078  -1.239  -1.562   2.183 -0.4477 -0.1192 -0.2016
   17DOPE   O12 2079  -1.228  -1.775   2.319  0.2098 -0.5473 -0.0938
   17DOPE    C1 2080  -1.113  -1.503   2.148  0.2672  0.3437 -0.1201
   17DOPE    HA 2081  -1.031  -1.575   2.169 -0.6174 -0.5188  0.4333
   17DOPE    HB 2082  -1.089  -1.412   2.207  1.9282  0.2677 -0.6292
   17DOPE    C2 2083  -1.115  -1.448   2.004  0.2075  0.4672 -0.5496
   17DOPE    HS 2084  -1.203  -1.385   1.979 -1.0844 -1.2028 -0.4504
   17DOPE   O21 2085  -1.111  -1.562   1.916 -0.1124  0.2188  0.2677
   17DOPE   C21 2086  -1.213  -1.581   1.842  0.2685  0.1367  0.2951
   17DOPE   O22 2087  -1.320  -1.527   1.842  0.0002  0.2551 -0.1358
   17DOPE   C22 2088  -1.165  -1.685   1.733  0.4565 -0.2105 -0.2202
   17DOPE   H2R 2089  -1.132  -1.774   1.791  1.1081 -0.2331 -0.6178
   17DOPE   H2S 2090  -1.071  -1.658   1.681  1.3053 -0.5848  1.0448
   17DOPE    C3 2091  -0.973  -1.374   1.982  0.4171  0.0256 -0.1586
   17DOPE    HX 2092  -0.897  -1.446   2.020  1.0419  0.9186  0.3325
   17DOPE    HY 2093  -0.973  -1.284   2.047 -1.3735  0.9494 -1.3551
   17DOPE   O31 2094  -0.962  -1.324   1.847  0.7696 -0.1489 -0.1093
   17DOPE   C31 2095  -0.840  -1.335   1.794  0.1355  0.1736 -0.1763
   17DOPE   O32 2096  -0.741  -1.369   1.851  0.1713 -0.3230 -0.0668
   17DOPE   C32 2097  -0.840  -1.296   1.648 -0.0716 -0.4006 -0.3443
   17DOPE   H2X 2098  -0.926  -1.229   1.629 -1.0174 -1.8252 -1.3391
   17DOPE   H2Y 2099  -0.744  -1.243   1.628 -1.5776  3.8467  2.3259
   17DOPE   C23 2100  -1.279  -1.708   1.634 -0.6981 -0.1470  0.2237
   17DOPE   H3R 2101  -1.327  -1.613   1.602 -0.3806 -0.3428 -0.8936
   17DOPE   H3S 2102  -1.358  -1.761   1.690 -0.5746  0.2609  0.7861
   17DOPE   C24 2103  -1.237  -1.763   1.495  0.0704  0.8832  0.3654
   17DOPE   H4R 2104  -1.318  -1.803   1.430 -0.2506  0.0279  1.2625
   17DOPE   H4S 2105  -1.183  -1.855   1.526 -2.9350 -1.3732 -0.5380
   17DOPE   C25 2106  -1.160  -1.670   1.397  0.4741  0.1585  0.3170
   17DOPE   H5R 2107  -1.090  -1.603   1.451 -1.0987  2.3755 -0.2379
   17DOPE   H5S 2108  -1.237  -1.604   1.352 -0.1494 -0.2635  0.7340
   17DOPE   C26 2109  -1.091  -1.747   1.282 -0.3477 -0.2170  0.4118
   17DOPE   H6R 2110  -1.167  -1.812   1.232 -1.0059  0.3870  0.6057
   17DOPE   H6S 2111  -1.022  -1.827   1.317 -0.5358 -0.8051 -0.5131
   17DOPE   C27 2112  -1.031  -1.661   1.172  0.2780  0.3030 -0.1231
   17DOPE   H7R 2113  -0.940  -1.608   1.209 -0.2223  2.1795 -1.4423
   17DOPE   H7S 2114  -1.104  -1.590   1.128 -0.0000  0.0117 -0.1292
   17DOPE   C28 2115  -0.974  -1.756   1.057 -0.4888 -0.5528 -0.5021
   17DOPE   H8R 2116  -1.054  -1.826   1.024  0.3774 -1.5203 -0.5758
   17DOPE   H8S 2117  -0.898  -1.826   1.096 -0.1807 -0.5296 -1.0499
   17DOPE   C29 2118  -0.918  -1.670   0.943  0.1491  0.0998  0.1914
   17DOPE   H9R 2119  -0.863  -1.581   0.975 -1.5760  1.3006 -0.0718
   17DOPE  C210 2120  -0.950  -1.690   0.812 -0.5102  0.1067 -0.1623
   17DOPE  H10R 2121  -0.937  -1.609   0.738  1.4882  2.3601  2.4435
   17DOPE  C211 2122  -1.025  -1.801   0.751  0.5814  0.8296  1.0591
   17DOPE  H11R 2123  -1.037  -1.890   0.816  1.0493  0.7461  1.0321
   17DOPE  H11S 2124  -0.962  -1.844   0.670  1.8582  2.5538  1.0835
   17DOPE  C212 2125  -1.163  -1.767   0.677 -0.0873 -0.1886 -0.2520
   17DOPE  H12R 2126  -1.233  -1.698   0.729 -0.9973  0.5268 -2.3055
   17DOPE  H12S 2127  -1.219  -1.863   0.667  1.4375 -1.2143  0.6598
   17DOPE  C213 2128  -1.147  -1.703   0.536 -0.4263  0.1604 -0.2702
   17DOPE  H13R 2129  -1.068  -1.759   0.481 -0.6116 -0.2414 -0.1370
   17DOPE  H13S 2130  -1.103  -1.601   0.542  1.1116 -0.4650 -0.1952
   17DOPE  C214 2131  -1.276  -1.710   0.459 -0.3329  0.1374 -0.0208
   17DOPE  H14R 2132  -1.351  -1.644   0.507 -1.1341 -1.4457  0.9716
   17DOPE  H14S 2133  -1.315  -1.814   0.462 -1.2680  0.3852 -1.8427
   17DOPE  C215 2134  -1.268  -1.670   0.304 -0.5432 -0.3318 -0.5685
   17DOPE  H15R 2135  -1.241  -1.563   0.305  0.6733 -0.6019 -1.9150
   17DOPE  H15S 2136  -1.373  -1.671   0.268 -0.4785 -0.2126 -0.7580
   17DOPE  C216 2137  -1.178  -1.751   0.218 -0.4131  0.5360  0.5696
   17DOPE  H16R 2138  -1.206  -1.857   0.237  0.4835 -0.3116 -2.3945
   17DOPE  H16S 2139  -1.079  -1.729   0.263  0.5846 -2.4902  0.0680
   17DOPE  C217 2140  -1.176  -1.710   0.069 -0.4810 -0.0633  0.0402
   17DOPE  H17R 2141  -1.123  -1.615   0.048  0.8932 -0.3135  2.1254
   17DOPE  H17S 2142  -1.279  -1.687   0.034  0.7440  3.3085 -1.8594
   17DOPE  C218 2143  -1.121  -1.812  -0.026  0.2591  0.0090 -0.4606
   17DOPE  H18R 2144  -1.130  -1.790  -0.134  0.4797  0.4891 -0.3813
   17DOPE  H18S 2145  -1.177  -1.907  -0.012 -0.6556  0.8906  2.6411
   17DOPE  H18T 2146  -1.015  -1.837  -0.005 -0.0661  0.1414  1.5671
   17DOPE   C33 2147  -0.861  -1.412   1.549  0.3291  0.2921  0.5049
   17DOPE   H3X 2148  -0.953  -1.469   1.574 -1.4146  2.1539 -1.2440
   17DOPE   H3Y 2149  -0.771  -1.476   1.564  0.7745  0.5810 -0.8239
   17DOPE   C34 2150  -0.847  -1.380   1.400 -0.1241 -0.1348  0.0385
   17DOPE   H4X 2151  -0.742  -1.374   1.366 -0.4196  2.0661 -0.6598
   17DOPE   H4Y 2152  -0.887  -1.475   1.358 -0.0465 -1.0245  1.9103
   17DOPE   C35 2153  -0.919  -1.255   1.341  0.4667 -0.0434 -0.2387
   17DOPE   H5X 2154  -0.889  -1.171   1.407 -1.2412  1.5313 -1.3507
   17DOPE   H5Y 2155  -1.029  -1.270   1.345  0.1817  1.0322 -2.4985
   17DOPE   C36 2156  -0.889  -1.211   1.196  0.1469 -0.0102 -0.4952
   17DOPE   H6X 2157  -0.784  -1.175   1.193  0.0238  0.3940  0.0223
   17DOPE   H6Y 2158  -0.964  -1.132   1.176 -0.5984 -0.8000 -0.9030
   17DOPE   C37 2159  -0.907  -1.327   1.100 -0.0453  1.3667  0.4910
   17DOPE   H7X 2160  -0.830  -1.401   1.131  0.0073  0.3779 -1.7811
   17DOPE   H7Y 2161  -1.007  -1.372   1.113  0.9705 -0.3660  3.1048
   17DOPE   C38 2162  -0.886  -1.294   0.951 -0.2019  0.2103  0.2875
   17DOPE   H8X 2163  -0.869  -1.393   0.903  0.7164  1.1057 -1.3182
   17DOPE   H8Y 2164  -0.805  -1.219   0.943 -0.5497  0.4415 -1.7709
   17DOPE   C39 2165  -1.007  -1.236   0.886  0.2664  0.9075 -0.2141
   17DOPE   H9X 2166  -1.093  -1.209   0.949 -0.2751 -0.9155 -0.1055
   17DOPE  C310 2167  -1.020  -1.234   0.751 -1.0833 -0.7891  0.2750
   17DOPE  H10X 2168  -1.106  -1.186   0.702 -0.6572  0.9307  1.1421
   17DOPE  C311 2169  -0.913  -1.278   0.650  0.7525 -0.1248 -0.2246
   17DOPE  H11X 2170  -0.812  -1.245   0.681  0.2383  2.3648 -0.9852
   17DOPE  H11Y 2171  -0.919  -1.386   0.622 -1.1452 -0.0838 -0.1042
   17DOPE  C312 2172  -0.931  -1.198   0.518  0.4635 -0.0025  0.1974
   17DOPE  H12X 2173  -0.838  -1.210   0.460  2.0564 -1.7679  2.8977
   17DOPE  H12Y 2174  -0.936  -1.088   0.528  2.3948  0.0724  0.6854
   17DOPE  C313 2175  -1.060  -1.245   0.444 -0.1511  0.2045 -0.2863
   17DOPE  H13X 2176  -1.069  -1.356   0.450 -0.8399  0.2023 -1.1037
   17DOPE  H13Y 2177  -1.147  -1.212   0.504  1.4824 -0.5112  2.6420
   17DOPE  C314 2178  -1.057  -1.197   0.303  0.4930 -0.0410  0.1149
   17DOPE  H14X 2179  -0.986  -1.266   0.253 -0.6160  1.2150 -3.4466
   17DOPE  H14Y 2180  -1.013  -1.095   0.308 -2.6168  1.3739  2.1206
   17DOPE  C315 2181  -1.190  -1.195   0.231 -0.2279  0.0715  0.3258
   17DOPE  H15X 2182  -1.253  -1.119   0.282  0.8690 -0.2774  2.2944
   17DOPE  H15Y 2183  -1.240  -1.294   0.244 -0.4809  0.1914  0.2695
   17DOPE  C316 2184  -1.172  -1.163   0.083  0.4327 -0.1189 -0.2851
   17DOPE  H16X 2185  -1.078  -1.215   0.055  1.8920  0.7396  2.6185
   17DOPE  H16Y 2186  -1.167  -1.053   0.070 -0.1479 -0.1179 -0.5346
   17DOPE  C317 2187  -1.295  -1.204   0.005  0.1486  0.3303 -0.1055
   17DOPE  H17X 2188  -1.303  -1.313   0.026  0.4427  0.4768  0.8256
   17DOPE  H17Y 2189  -1.386  -1.152   0.042 -0.6433 -1.6524  0.8921
   17DOPE  C318 2190  -1.290  -1.179  -0.143  0.3587 -0.5755  0.1581
   17DOPE  H18X 2191  -1.209  -1.245  -0.180 -0.6928 -0.6863 -2.1210
   17DOPE  H18Y 2192  -1.384  -1.203  -0.198  0.6627  1.0235 -1.1452
   17DOPE  H18Z 2193  -1.261  -1.077  -0.178  1.5811 -0.9309  0.0763
   18DOPE     N 2194   1.861   1.326   2.632 -0.3677 -0.5591  0.2291
   18DOPE   HN1 2195   1.863   1.305   2.530  3.0433 -0.5969  0.1879
   18DOPE   HN2 2196   1.830   1.424   2.646  2.2599  0.0844  2.5684
   18DOPE   HN3 2197   1.959   1.322   2.669  0.1531  1.3511 -0.7850
   18DOPE   C12 2198   1.766   1.242   2.706 -0.5963 -0.4490  0.1725
   18DOPE  H12A 2199   1.672   1.300   2.706 -0.0052  0.5217 -0.0588
   18DOPE  H12B 2200   1.801   1.229   2.811 -1.8500 -2.1241  0.4326
   18DOPE   C11 2201   1.755   1.108   2.631  1.1077 -0.2246  0.0282
   18DOPE  H11A 2202   1.698   1.045   2.702 -1.3103  2.1989  0.3778
   18DOPE  H11B 2203   1.860   1.075   2.616  1.0125  0.6977 -3.6251
   18DOPE     P 2204   1.691   1.027   2.391  0.2215 -0.0051 -0.3991
   18DOPE   O13 2205   1.621   1.088   2.270 -0.8301  0.2847  0.3703
   18DOPE   O14 2206   1.631   0.906   2.447 -0.1139 -0.0114 -0.1390
   18DOPE   O11 2207   1.847   1.001   2.362 -0.1281 -0.6835  0.6185
   18DOPE   O12 2208   1.697   1.138   2.505 -0.1903 -0.3178  0.5647
   18DOPE    C1 2209   1.882   0.882   2.292  0.1158 -0.2685 -0.3854
   18DOPE    HA 2210   1.800   0.806   2.288  0.9994 -1.3191  0.7914
   18DOPE    HB 2211   1.954   0.826   2.355 -0.0900  0.1930  0.2687
   18DOPE    C2 2212   1.947   0.918   2.157 -0.8475 -0.3439  0.4047
   18DOPE    HS 2213   2.040   0.968   2.189  0.2118 -0.9210 -1.5888
   18DOPE   O21 2214   1.863   1.005   2.079 -0.3916 -0.5102 -0.1382
   18DOPE   C21 2215   1.908   1.128   2.069 -0.2388  0.5987  0.2409
   18DOPE   O22 2216   2.000   1.180   2.130 -0.1042  0.2602  0.2130
   18DOPE   C22 2217   1.821   1.200   1.962 -0.4581  0.1820 -0.0664
   18DOPE   H2R 2218   1.713   1.187   1.984 -0.8266 -0.1869 -1.9273
   18DOPE   H2S 2219   1.838   1.157   1.861 -2.3019 -0.6427 -0.0659
   18DOPE    C3 2220   1.992   0.793   2.077  0.1860 -0.0816 -0.0784
   18DOPE    HX 2221   1.903   0.732   2.054  0.6289 -1.1762  1.0066
   18DOPE    HY 2222   2.048   0.728   2.148  0.4135 -1.8410 -1.8008
   18DOPE   O31 2223   2.081   0.813   1.966  0.8561 -0.6166  0.2127
   18DOPE   C31 2224   2.023   0.805   1.846  0.7260  0.7035  0.7768
   18DOPE   O32 2225   1.906   0.784   1.816  0.2952  1.0638  0.1785
   18DOPE   C32 2226   2.131   0.814   1.743  0.0200  0.4041 -0.2283
   18DOPE   H2X 2227   2.120   0.910   1.689  1.2106  0.7105  0.0447
   18DOPE   H2Y 2228   2.228   0.796   1.793  0.6507 -1.1728 -1.8910
   18DOPE   C23 2229   1.847   1.348   1.947  0.1183  0.0427  0.2191
   18DOPE   H3R 2230   1.956   1.365   1.937  0.4553 -1.6111  0.7740
   18DOPE   H3S 2231   1.816   1.399   2.041 -2.2779 -1.4547  0.3199
   18DOPE   C24 2232   1.772   1.425   1.830 -0.3844 -0.7546  0.7112
   18DOPE   H4R 2233   1.803   1.530   1.848 -0.0547 -1.0487  1.9788
   18DOPE   H4S 2234   1.662   1.417   1.848 -1.3302  0.8862 -3.3127
   18DOPE   C25 2235   1.825   1.385   1.691  0.3041  0.5218 -0.3233
   18DOPE   H5R 2236   1.806   1.281   1.657 -1.3599  1.2011 -1.6218
   18DOPE   H5S 2237   1.934   1.406   1.689  0.5029 -0.3676  0.5128
   18DOPE   C26 2238   1.775   1.476   1.580  0.4686 -0.2705 -0.2501
   18DOPE   H6R 2239   1.790   1.581   1.614 -1.8498  0.2660 -0.7088
   18DOPE   H6S 2240   1.667   1.464   1.561  0.5290 -1.2854 -0.0331
   18DOPE   C27 2241   1.837   1.447   1.439  0.2613 -0.7192 -0.1393
   18DOPE   H7R 2242   1.799   1.356   1.389 -1.8083  0.4695 -0.8483
   18DOPE   H7S 2243   1.946   1.427   1.448  0.3098 -1.1568 -1.4163
   18DOPE   C28 2244   1.824   1.566   1.341  0.2986 -0.3430  0.5214
   18DOPE   H8R 2245   1.881   1.542   1.248  0.3900  1.8580 -0.0607
   18DOPE   H8S 2246   1.873   1.652   1.391  1.8001 -2.3121  2.6227
   18DOPE   C29 2247   1.685   1.609   1.300  0.6387 -0.0417  0.1174
   18DOPE   H9R 2248   1.605   1.566   1.362  2.4670 -1.6689  1.4600
   18DOPE  C210 2249   1.653   1.666   1.180  0.6852  0.2337  0.3949
   18DOPE  H10R 2250   1.550   1.691   1.150  0.1220 -0.1909  1.8834
   18DOPE  C211 2251   1.764   1.709   1.086  0.3610  0.0437 -0.4920
   18DOPE  H11R 2252   1.857   1.714   1.146 -0.0156  1.5399  0.0237
   18DOPE  H11S 2253   1.743   1.814   1.057 -1.5071 -0.0193  0.4350
   18DOPE  C212 2254   1.757   1.622   0.962 -0.3265 -0.3775 -0.9824
   18DOPE  H12R 2255   1.655   1.618   0.918 -1.6819  2.5974  1.4930
   18DOPE  H12S 2256   1.783   1.519   0.994  0.4197  0.3729  0.9657
   18DOPE  C213 2257   1.873   1.674   0.864 -0.1792  0.5778 -0.2184
   18DOPE  H13R 2258   1.969   1.675   0.921 -0.7003  1.2751  0.6758
   18DOPE  H13S 2259   1.857   1.775   0.822 -1.7225 -0.2244 -1.6844
   18DOPE  C214 2260   1.886   1.587   0.736 -0.3488 -0.1679 -0.5393
   18DOPE  H14R 2261   1.910   1.487   0.779 -0.1614  0.5019  0.9601
   18DOPE  H14S 2262   1.968   1.633   0.676 -0.5048  0.4370 -0.2925
   18DOPE  C215 2263   1.769   1.584   0.636  0.8389 -0.2295  0.0479
   18DOPE  H15R 2264   1.677   1.547   0.686 -0.0621  2.2888  0.4366
   18DOPE  H15S 2265   1.798   1.518   0.551 -0.9428 -0.9405 -0.0432
   18DOPE  C216 2266   1.748   1.714   0.578 -0.3225 -0.5375  0.5447
   18DOPE  H16R 2267   1.844   1.760   0.547  0.0600 -1.2899  0.5993
   18DOPE  H16S 2268   1.713   1.784   0.656 -2.2512  0.7400 -1.3431
   18DOPE  C217 2269   1.634   1.710   0.472  0.3907  0.2499 -0.0278
   18DOPE  H17R 2270   1.603   1.816   0.468  1.4337  0.6501  1.6285
   18DOPE  H17S 2271   1.546   1.656   0.511  0.5813 -0.3373 -0.3933
   18DOPE  C218 2272   1.669   1.664   0.329  0.8683  0.9059  0.4255
   18DOPE  H18R 2273   1.765   1.704   0.290  0.9817  0.1031 -0.1332
   18DOPE  H18S 2274   1.590   1.702   0.261  0.4547  1.0824  0.9925
   18DOPE  H18T 2275   1.685   1.555   0.318 -0.1249  0.9366 -1.6992
   18DOPE   C33 2276   2.103   0.706   1.637 -0.2268  0.0284 -0.5022
   18DOPE   H3X 2277   2.006   0.726   1.587 -0.9505 -1.8464  0.0800
   18DOPE   H3Y 2278   2.101   0.605   1.684 -1.3044  0.9418  1.4850
   18DOPE   C34 2279   2.208   0.701   1.527  0.6129 -0.3690  0.7747
   18DOPE   H4X 2280   2.306   0.704   1.579  2.2728 -0.6878 -2.1310
   18DOPE   H4Y 2281   2.197   0.600   1.482 -0.8643 -0.9394  2.2970
   18DOPE   C35 2282   2.201   0.807   1.414  0.4190 -0.2606 -0.4197
   18DOPE   H5X 2283   2.216   0.910   1.453 -1.1788 -0.4356  0.7455
   18DOPE   H5Y 2284   2.100   0.792   1.369 -0.4192 -1.1487  1.6295
   18DOPE   C36 2285   2.308   0.770   1.306  0.4759 -0.0764  0.2057
   18DOPE   H6X 2286   2.286   0.667   1.270  2.0620 -0.3760  0.0166
   18DOPE   H6Y 2287   2.403   0.767   1.362 -0.4905 -1.1113  1.8550
   18DOPE   C37 2288   2.318   0.875   1.197 -0.2673  0.3553 -0.3631
   18DOPE   H7X 2289   2.330   0.978   1.239  0.2996  0.1327  0.0303
   18DOPE   H7Y 2290   2.410   0.853   1.139 -0.1736 -0.0899 -0.0479
   18DOPE   C38 2291   2.201   0.865   1.089  0.1280 -0.0033  0.2707
   18DOPE   H8X 2292   2.202   0.956   1.026  4.3275  0.6283  0.9617
   18DOPE   H8Y 2293   2.110   0.867   1.153 -0.2045 -1.7055 -0.0980
   18DOPE   C39 2294   2.203   0.738   1.009  0.4222 -0.2272 -0.0930
   18DOPE   H9X 2295   2.202   0.641   1.061  1.0775  0.6149  1.5930
   18DOPE  C310 2296   2.224   0.738   0.880  0.3400 -0.0956  0.6189
   18DOPE  H10X 2297   2.210   0.641   0.829 -1.3298  0.0526  0.7298
   18DOPE  C311 2298   2.228   0.858   0.789 -0.5516 -0.5787  0.2957
   18DOPE  H11X 2299   2.130   0.910   0.786 -0.5053 -0.5115 -2.1647
   18DOPE  H11Y 2300   2.292   0.939   0.831 -0.3910 -0.7170  0.3186
   18DOPE  C312 2301   2.270   0.836   0.642  0.2044 -0.4500  0.5759
   18DOPE  H12X 2302   2.177   0.801   0.593 -0.0444 -1.3072  1.6187
   18DOPE  H12Y 2303   2.355   0.766   0.627 -1.4056 -2.2015 -0.7992
   18DOPE  C313 2304   2.330   0.967   0.587 -0.0627  0.1360  0.6071
   18DOPE  H13X 2305   2.262   1.053   0.573 -0.1893 -0.3984 -2.8799
   18DOPE  H13Y 2306   2.410   0.998   0.658 -0.4931 -0.6486  1.4621
   18DOPE  C314 2307   2.406   0.956   0.444 -0.6569 -0.5978 -0.4545
   18DOPE  H14X 2308   2.505   0.906   0.459  0.0622  0.7893 -0.3906
   18DOPE  H14Y 2309   2.432   1.063   0.425 -0.1192 -0.8235 -1.0541
   18DOPE  C315 2310   2.339   0.906   0.316  0.1286 -0.1490 -1.0410
   18DOPE  H15X 2311   2.234   0.941   0.324  0.1941 -0.3407  3.2595
   18DOPE  H15Y 2312   2.346   0.796   0.318 -0.3660 -0.2536 -2.9606
   18DOPE  C316 2313   2.406   0.951   0.184 -0.2169 -0.4046 -0.0616
   18DOPE  H16X 2314   2.413   1.059   0.210  1.5640 -0.4753 -0.1193
   18DOPE  H16Y 2315   2.343   0.929   0.095  0.5357 -0.4385 -0.5933
   18DOPE  C317 2316   2.540   0.879   0.182 -0.1109 -0.1778  1.1640
   18DOPE  H17X 2317   2.609   0.915   0.261  1.5190 -2.7889  1.0794
   18DOPE  H17Y 2318   2.535   0.768   0.194 -0.7745 -0.2309  0.4796
   18DOPE  C318 2319   2.611   0.883   0.042 -0.2598 -0.3326  0.4097
   18DOPE  H18X 2320   2.661   0.981   0.028 -1.8102  0.7409  1.9121
   18DOPE  H18Y 2321   2.690   0.806   0.025 -0.2578  0.0468 -1.5606
   18DOPE  H18Z 2322   2.531   0.885  -0.036 -0.1660  2.0082  0.3142
   19DOPE     N 2323   1.750   2.107   2.742 -0.3333  0.1790 -0.3848
   19DOPE   HN1 2324   1.789   2.135   2.834 -1.8077  0.3717  0.2163
   19DOPE   HN2 2325   1.705   2.187   2.694 -0.9457  1.2121  1.7930
   19DOPE   HN3 2326   1.667   2.048   2.766 -0.0835 -0.1347 -0.2796
   19DOPE   C12 2327   1.859   2.045   2.653  0.7020  0.1904  0.6726
   19DOPE  H12A 2328   1.943   2.115   2.634  0.9323 -0.0970  0.6155
   19DOPE  H12B 2329   1.816   2.010   2.557 -0.2467  0.4777  0.9820
   19DOPE   C11 2330   1.917   1.920   2.726  0.4525 -0.5718 -0.3741
   19DOPE  H11A 2331   1.976   1.959   2.811  0.1519  0.5432 -0.6703
   19DOPE  H11B 2332   1.984   1.859   2.662  0.3341  1.1897 -2.2602
   19DOPE     P 2333   1.761   1.711   2.682  0.1348 -0.0341  0.2573
   19DOPE   O13 2334   1.617   1.691   2.714  0.1086 -0.8593  1.2301
   19DOPE   O14 2335   1.842   1.588   2.694  0.2573  0.2895  0.2539
   19DOPE   O11 2336   1.771   1.758   2.524  0.0281 -0.1100 -0.0731
   19DOPE   O12 2337   1.817   1.830   2.775  0.0491 -0.7767  0.1079
   19DOPE    C1 2338   1.881   1.706   2.450 -0.0703 -1.2746  0.0676
   19DOPE    HA 2339   1.896   1.597   2.458 -0.7482 -1.5337 -1.7811
   19DOPE    HB 2340   1.975   1.753   2.489 -1.3149  1.7889 -0.3308
   19DOPE    C2 2341   1.880   1.762   2.300  0.9313  1.2620 -0.2412
   19DOPE    HS 2342   1.887   1.872   2.313  1.2702  1.2069  0.0755
   19DOPE   O21 2343   1.758   1.719   2.237  0.4196 -0.2863 -0.9057
   19DOPE   C21 2344   1.679   1.810   2.179 -0.2109  0.4675 -0.4824
   19DOPE   O22 2345   1.691   1.929   2.192  0.0702  0.5064  0.0441
   19DOPE   C22 2346   1.569   1.743   2.094 -0.0517  0.2183 -0.1583
   19DOPE   H2R 2347   1.476   1.797   2.122 -0.2329 -1.1706  2.2505
   19DOPE   H2S 2348   1.560   1.642   2.139  2.9589 -0.7703 -1.5811
   19DOPE    C3 2349   2.004   1.711   2.228 -0.3995 -0.2372 -0.0294
   19DOPE    HX 2350   1.979   1.604   2.212 -1.4157 -0.4777  2.6166
   19DOPE    HY 2351   2.083   1.720   2.305 -1.8937  1.4180  1.4181
   19DOPE   O31 2352   2.034   1.775   2.103  0.1120 -0.5591  0.0804
   19DOPE   C31 2353   2.076   1.697   2.001 -0.0139  0.4011  0.4664
   19DOPE   O32 2354   2.079   1.573   2.000  0.3635  0.7362  0.7677
   19DOPE   C32 2355   2.119   1.780   1.878  0.0049 -0.1351 -0.6154
   19DOPE   H2X 2356   2.066   1.877   1.873 -0.5308 -0.2834  1.4618
   19DOPE   H2Y 2357   2.229   1.795   1.887  0.1205 -0.8459 -0.7527
   19DOPE   C23 2358   1.609   1.744   1.943 -0.4302  0.2379 -0.2336
   19DOPE   H3R 2359   1.614   1.636   1.920 -1.0397 -0.1849  1.4595
   19DOPE   H3S 2360   1.703   1.803   1.929 -0.1059  0.3657  2.0447
   19DOPE   C24 2361   1.496   1.795   1.852 -0.1257 -0.7824 -0.6688
   19DOPE   H4R 2362   1.472   1.899   1.883 -2.5147 -1.8448  1.3958
   19DOPE   H4S 2363   1.401   1.743   1.876  0.1339 -0.2775  1.7820
   19DOPE   C25 2364   1.520   1.792   1.700 -0.5609  0.0999 -0.3302
   19DOPE   H5R 2365   1.560   1.697   1.660 -1.9223  0.4331 -2.6694
   19DOPE   H5S 2366   1.601   1.868   1.692 -1.9422  1.4108 -3.1886
   19DOPE   C26 2367   1.397   1.818   1.622  0.3754 -0.1624 -0.2375
   19DOPE   H6R 2368   1.338   1.898   1.672  1.2480  0.9575 -0.9472
   19DOPE   H6S 2369   1.328   1.732   1.630 -1.0531  1.0053  0.5803
   19DOPE   C27 2370   1.422   1.847   1.469  0.4407 -0.0984  0.0288
   19DOPE   H7R 2371   1.478   1.758   1.433  0.2993 -0.3497  0.4156
   19DOPE   H7S 2372   1.493   1.932   1.462  0.6935 -0.0199  2.4966
   19DOPE   C28 2373   1.305   1.898   1.381  0.2373  0.4574 -0.3575
   19DOPE   H8R 2374   1.334   1.974   1.305  1.9159  2.3040  1.9991
   19DOPE   H8S 2375   1.228   1.948   1.444  0.0768  1.6088 -1.4301
   19DOPE   C29 2376   1.243   1.774   1.316  0.4959 -0.2310 -0.0976
   19DOPE   H9R 2377   1.212   1.692   1.382  2.1995 -1.3877 -0.6569
   19DOPE  C210 2378   1.214   1.758   1.186  0.9391 -0.1524  0.4633
   19DOPE  H10R 2379   1.160   1.668   1.154 -0.5919  1.8070 -3.0945
   19DOPE  C211 2380   1.228   1.847   1.070 -0.0225 -0.5718  0.3760
   19DOPE  H11R 2381   1.186   1.947   1.095 -0.9030 -0.2666 -2.0937
   19DOPE  H11S 2382   1.166   1.801   0.991  0.3550  0.3397 -0.4766
   19DOPE  C212 2383   1.365   1.853   1.002 -0.0207 -0.0463 -0.3224
   19DOPE  H12R 2384   1.409   1.751   1.000  1.7906  0.5901  2.3691
   19DOPE  H12S 2385   1.438   1.911   1.062 -1.0697  1.5378 -0.5481
   19DOPE  C213 2386   1.370   1.919   0.863  1.0126  0.8315 -0.3400
   19DOPE  H13R 2387   1.462   1.982   0.858  1.0414  0.8930  0.8694
   19DOPE  H13S 2388   1.283   1.986   0.845 -1.1865 -1.7258  0.1820
   19DOPE  C214 2389   1.394   1.819   0.752  0.2121  0.0231  0.3792
   19DOPE  H14R 2390   1.327   1.734   0.776 -2.3909  1.0610 -2.6080
   19DOPE  H14S 2391   1.497   1.776   0.755  0.2178 -0.0029 -0.1524
   19DOPE  C215 2392   1.375   1.867   0.612  0.2880 -0.1017 -0.1415
   19DOPE  H15R 2393   1.381   1.772   0.553  2.7761  0.1107 -0.3114
   19DOPE  H15S 2394   1.463   1.927   0.582 -0.3420  0.5857 -0.6368
   19DOPE  C216 2395   1.234   1.928   0.579  0.8810 -0.4721  0.0110
   19DOPE  H16R 2396   1.226   2.025   0.632  1.0359  0.1448 -1.0520
   19DOPE  H16S 2397   1.153   1.856   0.603  0.9150 -0.6439 -0.3837
   19DOPE  C217 2398   1.212   1.981   0.432  0.4840  0.3389 -0.5752
   19DOPE  H17R 2399   1.299   2.049   0.432  1.3575 -0.7454 -1.2142
   19DOPE  H17S 2400   1.115   2.035   0.425 -0.5075 -1.0632  1.2349
   19DOPE  C218 2401   1.232   1.866   0.323 -0.0125  0.6563  0.0480
   19DOPE  H18R 2402   1.180   1.772   0.348  2.5943 -1.2730 -1.3073
   19DOPE  H18S 2403   1.337   1.829   0.329 -0.7114 -1.5442 -0.5735
   19DOPE  H18T 2404   1.201   1.898   0.222  1.5548  2.8154  0.1628
   19DOPE   C33 2405   2.113   1.701   1.745 -0.1669  0.4703 -0.3868
   19DOPE   H3X 2406   2.007   1.697   1.712 -0.0906 -2.4330 -0.5174
   19DOPE   H3Y 2407   2.151   1.597   1.737  0.5611  0.7007 -0.0376
   19DOPE   C34 2408   2.188   1.779   1.629 -0.3135  1.2036  0.7445
   19DOPE   H4X 2409   2.150   1.882   1.612 -0.7818  1.0278  0.6989
   19DOPE   H4Y 2410   2.294   1.777   1.663 -0.3099 -1.3419  0.7831
   19DOPE   C35 2411   2.175   1.705   1.491 -0.2865 -0.6080 -0.9531
   19DOPE   H5X 2412   2.067   1.715   1.464 -1.1385  1.0319  2.5450
   19DOPE   H5Y 2413   2.197   1.596   1.496 -1.8720 -0.9330 -0.5338
   19DOPE   C36 2414   2.254   1.775   1.382  0.2132  0.0040 -0.4227
   19DOPE   H6X 2415   2.362   1.767   1.406  0.3661 -0.0485 -1.0962
   19DOPE   H6Y 2416   2.227   1.883   1.380 -1.1974 -0.3367 -0.6715
   19DOPE   C37 2417   2.231   1.718   1.244  0.3893 -0.3123  0.6674
   19DOPE   H7X 2418   2.295   1.627   1.253 -0.8210 -1.3027 -0.3194
   19DOPE   H7Y 2419   2.122   1.701   1.231  0.3378  0.5825 -0.1263
   19DOPE   C38 2420   2.287   1.807   1.127 -0.2133  0.3342 -0.1786
   19DOPE   H8X 2421   2.282   1.739   1.039 -0.8269 -1.0946  0.9075
   19DOPE   H8Y 2422   2.390   1.845   1.143  0.4422 -0.7354 -1.6584
   19DOPE   C39 2423   2.206   1.935   1.109 -0.1329 -0.6824  0.2790
   19DOPE   H9X 2424   2.147   1.972   1.194 -0.6654  1.0001 -0.7810
   19DOPE  C310 2425   2.200   2.012   1.003  0.4125  0.3178  0.3017
   19DOPE  H10X 2426   2.149   2.110   1.005  1.1271  0.7430 -0.8948
   19DOPE  C311 2427   2.254   1.974   0.869 -0.4906 -0.6748  1.0960
   19DOPE  H11X 2428   2.340   2.039   0.842  2.2280 -3.3710  2.5940
   19DOPE  H11Y 2429   2.293   1.870   0.869 -1.9282 -1.2784 -0.9175
   19DOPE  C312 2430   2.136   1.966   0.769 -0.0298 -0.5587  0.1205
   19DOPE  H12X 2431   2.115   2.063   0.718 -1.1061 -1.1081 -0.5183
   19DOPE  H12Y 2432   2.037   1.934   0.810 -0.7952  0.2031 -1.0564
   19DOPE  C313 2433   2.181   1.872   0.656  0.2774 -0.1233 -0.4835
   19DOPE  H13X 2434   2.289   1.889   0.636 -0.1236  1.9817 -1.0448
   19DOPE  H13Y 2435   2.168   1.770   0.698  2.3242 -0.3684 -0.3332
   19DOPE  C314 2436   2.118   1.902   0.524  0.2999  0.6224 -0.1170
   19DOPE  H14X 2437   2.152   2.005   0.499  1.3834  0.4642  0.6706
   19DOPE  H14Y 2438   2.007   1.903   0.532 -0.0271 -0.5349 -3.0339
   19DOPE  C315 2439   2.172   1.809   0.416  0.4082 -0.4866  0.7269
   19DOPE  H15X 2440   2.164   1.708   0.461 -0.1760 -2.6933 -3.7576
   19DOPE  H15Y 2441   2.279   1.839   0.410 -0.4197  3.0949  1.4635
   19DOPE  C316 2442   2.093   1.816   0.285 -0.2737 -0.4902  0.2463
   19DOPE  H16X 2443   2.123   1.909   0.231 -3.1412  2.2039  2.8718
   19DOPE  H16Y 2444   1.986   1.823   0.315 -0.3204 -1.8744  0.4306
   19DOPE  C317 2445   2.119   1.700   0.191 -0.3207 -0.0772  0.3815
   19DOPE  H17X 2446   2.230   1.694   0.187 -0.4359 -3.3297 -1.5129
   19DOPE  H17Y 2447   2.078   1.613   0.246  0.3066  0.1750  1.2716
   19DOPE  C318 2448   2.064   1.723   0.054 -0.8168  0.1220  0.4502
   19DOPE  H18X 2449   2.076   1.637  -0.015 -0.4248  0.4140  0.1484
   19DOPE  H18Y 2450   1.956   1.750   0.056 -0.5854  1.1423  0.0475
   19DOPE  H18Z 2451   2.116   1.811   0.009 -0.2573 -0.4197  0.0244
   20DOPE     N 2452   2.734  -2.976   2.648  0.5139 -0.0613 -0.7536
   20DOPE   HN1 2453   2.700  -2.880   2.628  0.8837 -0.2580 -2.4284
   20DOPE   HN2 2454   2.833  -2.967   2.676  0.4876  1.2561 -1.0307
   20DOPE   HN3 2455   2.736  -3.040   2.566 -3.7625  0.9387 -1.9248
   20DOPE   C12 2456   2.657  -3.043   2.762 -0.1941  0.4460 -0.4774
   20DOPE  H12A 2457   2.710  -3.004   2.852  1.3970 -1.7551 -0.3935
   20DOPE  H12B 2458   2.672  -3.152   2.749 -0.5752  0.6271 -2.9052
   20DOPE   C11 2459   2.505  -3.004   2.750 -0.0980 -0.2148 -0.1364
   20DOPE  H11A 2460   2.483  -2.896   2.744 -0.8246 -0.1892  2.2573
   20DOPE  H11B 2461   2.457  -3.038   2.844 -0.7071  2.7088  0.6946
   20DOPE     P 2462   2.306  -3.019   2.578 -0.1847  0.1293 -0.3488
   20DOPE   O13 2463   2.303  -2.873   2.599 -0.1663 -0.3694 -0.4524
   20DOPE   O14 2464   2.195  -3.097   2.634  0.0243 -0.5690 -0.6449
   20DOPE   O11 2465   2.317  -3.047   2.424 -1.3384 -0.8731  0.0282
   20DOPE   O12 2466   2.441  -3.076   2.643  0.0109  0.2333  0.4644
   20DOPE    C1 2467   2.447  -3.036   2.365 -0.1007 -0.0312 -0.5400
   20DOPE    HA 2468   2.502  -3.133   2.370  0.6324  0.3411 -1.1845
   20DOPE    HB 2469   2.511  -2.957   2.410 -1.2144  1.3115 -1.2421
   20DOPE    C2 2470   2.429  -3.002   2.213 -0.3406 -0.5801  0.2878
   20DOPE    HS 2471   2.381  -2.902   2.202 -0.1388 -0.4467  0.5895
   20DOPE   O21 2472   2.347  -3.110   2.167 -0.0310  0.6551  0.4270
   20DOPE   C21 2473   2.268  -3.090   2.055 -0.2426 -0.1202 -0.7623
   20DOPE   O22 2474   2.264  -2.977   2.002 -0.1419  0.2828 -0.4705
   20DOPE   C22 2475   2.226  -3.229   2.000  0.3436  0.4974 -0.9645
   20DOPE   H2R 2476   2.140  -3.265   2.061  0.5066  1.9253  0.1435
   20DOPE   H2S 2477   2.312  -3.300   2.001  0.4590  0.6393 -0.8347
   20DOPE    C3 2478   2.571  -2.992   2.151  1.1071  0.0833 -0.3122
   20DOPE    HX 2479   2.611  -3.096   2.159  1.1470  0.1490  0.3259
   20DOPE    HY 2480   2.638  -2.923   2.207  0.7623  0.0787  0.1077
   20DOPE   O31 2481   2.552  -2.957   2.009  0.4773 -0.7311  0.2688
   20DOPE   C31 2482   2.553  -2.829   1.982  0.0230 -1.0292 -0.1849
   20DOPE   O32 2483   2.560  -2.734   2.067  0.3848  0.6928 -0.4387
   20DOPE   C32 2484   2.549  -2.805   1.832 -0.0058 -0.2888 -0.2678
   20DOPE   H2X 2485   2.636  -2.859   1.789  1.1516  0.9523  0.4504
   20DOPE   H2Y 2486   2.451  -2.841   1.793 -1.6576  1.2092  2.2520
   20DOPE   C23 2487   2.175  -3.228   1.850 -0.2414  0.4263 -0.2879
   20DOPE   H3R 2488   2.175  -3.332   1.809 -2.1714  0.4761 -0.4794
   20DOPE   H3S 2489   2.236  -3.167   1.780 -1.9079 -0.7800 -2.9483
   20DOPE   C24 2490   2.030  -3.184   1.830 -0.0340 -0.2370  0.7349
   20DOPE   H4R 2491   2.010  -3.090   1.886  0.3175 -0.5249  1.3450
   20DOPE   H4S 2492   1.957  -3.263   1.857  0.9029 -0.5806  2.3825
   20DOPE   C25 2493   1.994  -3.132   1.689 -0.2863 -0.5966 -0.1344
   20DOPE   H5R 2494   2.054  -3.040   1.676  0.1180 -0.6815  1.0804
   20DOPE   H5S 2495   1.887  -3.103   1.686 -0.0237  0.4925  0.5813
   20DOPE   C26 2496   2.033  -3.221   1.573 -0.3996 -0.0491 -0.1850
   20DOPE   H6R 2497   1.988  -3.322   1.585  0.5111 -0.7050 -1.9328
   20DOPE   H6S 2498   2.142  -3.239   1.573 -0.2831  0.6074 -0.9030
   20DOPE   C27 2499   1.982  -3.170   1.439 -0.6632 -0.1604  0.1363
   20DOPE   H7R 2500   2.029  -3.082   1.392 -1.2492  0.0363 -0.0910
   20DOPE   H7S 2501   1.878  -3.135   1.460 -0.3328 -0.1953  2.0027
   20DOPE   C28 2502   1.968  -3.264   1.318  0.4776  0.0346  0.3143
   20DOPE   H8R 2503   1.889  -3.227   1.248 -0.6583 -0.7019  1.1764
   20DOPE   H8S 2504   1.919  -3.358   1.351  0.5072 -0.1964 -0.2759
   20DOPE   C29 2505   2.096  -3.287   1.239  0.2768  0.3374 -1.0661
   20DOPE   H9R 2506   2.183  -3.308   1.303  0.5381 -0.4030 -1.6413
   20DOPE  C210 2507   2.131  -3.279   1.113 -0.4553 -0.7305  0.1431
   20DOPE  H10R 2508   2.236  -3.290   1.082 -0.3126 -0.6738  0.6003
   20DOPE  C211 2509   2.036  -3.235   1.004 -0.8561 -0.5412  0.1143
   20DOPE  H11R 2510   1.927  -3.239   1.025 -1.3170  4.1653 -0.3137
   20DOPE  H11S 2511   2.051  -3.300   0.916 -0.0782  0.6164 -0.6371
   20DOPE  C212 2512   2.057  -3.081   0.970  0.2349  0.3636  0.0534
   20DOPE  H12R 2513   2.164  -3.057   0.950  0.3589  1.3736  1.6830
   20DOPE  H12S 2514   2.028  -3.018   1.057  1.2886  0.2816  0.4747
   20DOPE  C213 2515   1.976  -3.033   0.844  0.2384 -0.4263  0.6194
   20DOPE  H13R 2516   1.957  -2.924   0.836  0.4634 -0.4523 -0.3569
   20DOPE  H13S 2517   1.872  -3.069   0.862 -0.5411  1.1140 -0.5856
   20DOPE  C214 2518   2.020  -3.096   0.714  0.2063 -0.4077  0.2425
   20DOPE  H14R 2519   2.049  -3.201   0.730  0.5869 -0.0287  2.3117
   20DOPE  H14S 2520   2.117  -3.053   0.682 -0.8031  2.6929  0.9490
   20DOPE  C215 2521   1.911  -3.074   0.606  0.1724  0.0568  0.0614
   20DOPE  H15R 2522   1.877  -2.968   0.606 -2.8912 -0.8244 -0.3150
   20DOPE  H15S 2523   1.826  -3.138   0.639  0.5219 -0.2642  0.3455
   20DOPE  C216 2524   1.969  -3.104   0.467 -0.0450  0.2670  0.4225
   20DOPE  H16R 2525   1.887  -3.095   0.392  1.5031  0.0832 -1.3513
   20DOPE  H16S 2526   2.005  -3.209   0.461 -0.5130  0.1295 -0.1506
   20DOPE  C217 2527   2.089  -3.031   0.419 -0.3668  0.8513  0.2870
   20DOPE  H17R 2528   2.172  -3.052   0.490  1.0965 -1.0411 -1.8207
   20DOPE  H17S 2529   2.061  -2.924   0.415 -2.8373  0.2856  0.6639
   20DOPE  C218 2530   2.132  -3.077   0.279 -0.2165 -0.1319  0.4157
   20DOPE  H18R 2531   2.150  -3.186   0.291 -0.8265 -0.1533  1.1744
   20DOPE  H18S 2532   2.227  -3.023   0.260 -0.7677  1.0628  0.9500
   20DOPE  H18T 2533   2.054  -3.065   0.200  0.2323  0.1795  0.0128
   20DOPE   C33 2534   2.582  -2.661   1.798  0.0907  0.0252  0.7173
   20DOPE   H3X 2535   2.689  -2.654   1.828  0.0372  0.0157  0.9139
   20DOPE   H3Y 2536   2.512  -2.586   1.840  0.6004  0.1820  1.2931
   20DOPE   C34 2537   2.563  -2.640   1.644 -0.5499  0.2245  0.5175
   20DOPE   H4X 2538   2.620  -2.716   1.587 -2.7734 -0.1117 -1.4129
   20DOPE   H4Y 2539   2.456  -2.659   1.618 -0.7622  3.3464 -1.4767
   20DOPE   C35 2540   2.611  -2.496   1.601  0.4459 -0.2841 -0.7990
   20DOPE   H5X 2541   2.721  -2.483   1.601  0.4602 -0.3746  0.1382
   20DOPE   H5Y 2542   2.570  -2.429   1.678  1.4811  0.2678 -0.7096
   20DOPE   C36 2543   2.559  -2.448   1.468  0.2148 -0.3627 -0.7324
   20DOPE   H6X 2544   2.592  -2.348   1.431 -3.4028  1.2014 -0.1273
   20DOPE   H6Y 2545   2.450  -2.429   1.464  0.4888  1.2902 -1.2439
   20DOPE   C37 2546   2.594  -2.548   1.356 -0.3423  0.1261 -0.2489
   20DOPE   H7X 2547   2.705  -2.556   1.357 -0.4591 -2.9422  1.6062
   20DOPE   H7Y 2548   2.565  -2.653   1.381  0.6682 -0.0227  0.3525
   20DOPE   C38 2549   2.548  -2.517   1.209 -0.3139 -0.3817 -0.2212
   20DOPE   H8X 2550   2.442  -2.485   1.207 -0.1111  0.3179 -0.2209
   20DOPE   H8Y 2551   2.560  -2.609   1.148  2.5587  0.0240 -0.4014
   20DOPE   C39 2552   2.637  -2.406   1.161  0.1477 -0.0456  0.7674
   20DOPE   H9X 2553   2.626  -2.315   1.222  1.2417 -0.4920  1.6843
   20DOPE  C310 2554   2.720  -2.410   1.055  0.4624  0.1755  0.7925
   20DOPE  H10X 2555   2.788  -2.328   1.028  0.8869 -0.3583  0.2013
   20DOPE  C311 2556   2.751  -2.533   0.970  0.4346 -0.2640 -0.8775
   20DOPE  H11X 2557   2.849  -2.559   1.017 -1.4788 -1.7473  2.7446
   20DOPE  H11Y 2558   2.675  -2.613   0.980  0.9984 -0.5532  2.2413
   20DOPE  C312 2559   2.769  -2.506   0.823  0.0749  0.1249 -0.2216
   20DOPE  H12X 2560   2.808  -2.596   0.771  0.2636  0.6446 -1.0115
   20DOPE  H12Y 2561   2.842  -2.423   0.808  0.7382 -0.0608  1.6895
   20DOPE  C313 2562   2.633  -2.474   0.770  1.0807 -1.1968 -0.3011
   20DOPE  H13X 2563   2.569  -2.548   0.823  0.4844 -0.9246 -0.6295
   20DOPE  H13Y 2564   2.596  -2.374   0.801  0.8971 -0.9034 -1.4096
   20DOPE  C314 2565   2.613  -2.487   0.618  0.1653  0.1383  0.4340
   20DOPE  H14X 2566   2.623  -2.595   0.593  0.5510  0.3616 -0.4261
   20DOPE  H14Y 2567   2.700  -2.444   0.565 -0.2107 -1.9547 -2.1590
   20DOPE  C315 2568   2.476  -2.441   0.562  0.5816  0.0252 -0.2686
   20DOPE  H15X 2569   2.450  -2.354   0.626 -0.2245 -0.3739 -0.0440
   20DOPE  H15Y 2570   2.401  -2.519   0.589  0.1310  0.1435 -1.1220
   20DOPE  C316 2571   2.469  -2.406   0.411 -0.0099  0.7181  0.2254
   20DOPE  H16X 2572   2.527  -2.482   0.355  3.0151  2.8546  0.2238
   20DOPE  H16Y 2573   2.537  -2.319   0.401  0.4441  0.2140 -1.4195
   20DOPE  C317 2574   2.330  -2.378   0.346  1.0289 -0.1405 -0.0129
   20DOPE  H17X 2575   2.344  -2.376   0.236  3.7411 -0.9360  0.2515
   20DOPE  H17Y 2576   2.255  -2.457   0.369 -1.2545  0.9000 -3.1479
   20DOPE  C318 2577   2.276  -2.242   0.402 -0.3519 -0.2294  0.0915
   20DOPE  H18X 2578   2.198  -2.194   0.339  0.9133 -0.9859 -2.1395
   20DOPE  H18Y 2579   2.238  -2.255   0.506  0.3467  1.8587  0.6550
   20DOPE  H18Z 2580   2.362  -2.173   0.404  0.4825 -1.2440  2.4437
   21DOPE     N 2581  -0.996  -2.575   2.558  0.1170 -0.5335 -0.2968
   21DOPE   HN1 2582  -0.912  -2.516   2.577 -0.7044  0.4157  0.5811
   21DOPE   HN2 2583  -1.078  -2.512   2.541  0.2908  0.0786  0.9796
   21DOPE   HN3 2584  -1.016  -2.645   2.633 -3.5303 -0.6414 -1.1664
   21DOPE   C12 2585  -0.980  -2.638   2.431 -0.1362 -0.8778  0.1418
   21DOPE  H12A 2586  -0.903  -2.717   2.441 -0.2519 -1.2924 -1.8140
   21DOPE  H12B 2587  -0.956  -2.554   2.362 -2.7993  0.7611  1.0855
   21DOPE   C11 2588  -1.115  -2.705   2.385 -0.2894  0.3121  0.7595
   21DOPE  H11A 2589  -1.112  -2.804   2.436 -0.4441  0.6156  1.3527
   21DOPE  H11B 2590  -1.114  -2.733   2.277 -1.0918  1.5690  0.4017
   21DOPE     P 2591  -1.291  -2.515   2.329 -0.3319 -0.0431  0.1890
   21DOPE   O13 2592  -1.227  -2.395   2.378 -0.1410 -0.2337  0.1402
   21DOPE   O14 2593  -1.441  -2.519   2.339 -0.1559 -0.0489  0.8716
   21DOPE   O11 2594  -1.249  -2.536   2.177  0.0352 -0.2989 -0.5615
   21DOPE   O12 2595  -1.228  -2.632   2.420  0.1339  0.0166 -0.1220
   21DOPE    C1 2596  -1.167  -2.439   2.114  0.2226  1.1366  0.1325
   21DOPE    HA 2597  -1.125  -2.478   2.019 -1.1395  2.0161 -0.8838
   21DOPE    HB 2598  -1.084  -2.401   2.176  1.1001  1.5288 -1.2504
   21DOPE    C2 2599  -1.259  -2.320   2.059 -0.4016  0.2121 -0.0980
   21DOPE    HS 2600  -1.298  -2.267   2.148  0.4515  0.1285  0.3318
   21DOPE   O21 2601  -1.377  -2.368   1.984  0.4120  0.4091 -0.7835
   21DOPE   C21 2602  -1.471  -2.273   1.967  0.1256  0.1224  0.6191
   21DOPE   O22 2603  -1.467  -2.161   2.013  0.5911  0.2770  0.1188
   21DOPE   C22 2604  -1.588  -2.319   1.873 -0.8207  0.8343 -0.0476
   21DOPE   H2R 2605  -1.680  -2.315   1.934  0.2691  0.8660  1.6459
   21DOPE   H2S 2606  -1.570  -2.427   1.853 -2.6563  0.6660 -1.0482
   21DOPE    C3 2607  -1.173  -2.208   1.989  0.1302  0.0901 -0.4015
   21DOPE    HX 2608  -1.078  -2.192   2.044 -0.4097 -2.5367  1.4765
   21DOPE    HY 2609  -1.247  -2.125   1.997 -1.9295 -1.7948  2.0695
   21DOPE   O31 2610  -1.151  -2.243   1.851 -0.7613  0.2039  0.1126
   21DOPE   C31 2611  -1.103  -2.131   1.784 -0.3819  0.3040 -0.2586
   21DOPE   O32 2612  -1.105  -2.019   1.827 -0.4002 -0.6096  0.3994
   21DOPE   C32 2613  -1.059  -2.168   1.643  0.1211 -0.0820  0.2375
   21DOPE   H2X 2614  -1.141  -2.226   1.597 -0.4864  0.3674  0.7474
   21DOPE   H2Y 2615  -1.039  -2.083   1.574 -0.1569 -0.6433 -0.5467
   21DOPE   C23 2616  -1.602  -2.234   1.743  0.0358  0.1850  0.4350
   21DOPE   H3R 2617  -1.598  -2.129   1.778  2.5926 -0.6115  2.8242
   21DOPE   H3S 2618  -1.699  -2.250   1.690 -0.1154 -2.6090  1.4052
   21DOPE   C24 2619  -1.484  -2.245   1.640  0.1043  0.4097 -0.2953
   21DOPE   H4R 2620  -1.468  -2.346   1.596 -1.9773  1.3528 -3.5492
   21DOPE   H4S 2621  -1.386  -2.243   1.693  0.3159 -0.3986 -0.6389
   21DOPE   C25 2622  -1.499  -2.128   1.544 -0.0187  0.6929  0.2055
   21DOPE   H5R 2623  -1.494  -2.026   1.588  2.0622  0.9798 -0.5722
   21DOPE   H5S 2624  -1.607  -2.114   1.521  0.2400  1.5948 -0.5139
   21DOPE   C26 2625  -1.401  -2.143   1.425 -0.0174 -1.1456 -0.3238
   21DOPE   H6R 2626  -1.371  -2.249   1.407  0.8325 -1.1539  0.9677
   21DOPE   H6S 2627  -1.308  -2.099   1.467 -0.0758 -1.2755 -0.0566
   21DOPE   C27 2628  -1.438  -2.081   1.295  0.2287  0.3645 -0.2944
   21DOPE   H7R 2629  -1.460  -1.973   1.308  3.0931  1.0454 -0.3622
   21DOPE   H7S 2630  -1.534  -2.122   1.259 -0.2536  2.2580 -1.2851
   21DOPE   C28 2631  -1.317  -2.092   1.191  0.5960 -0.8460  0.2671
   21DOPE   H8R 2632  -1.322  -2.200   1.165  0.1551 -1.2152  1.7913
   21DOPE   H8S 2633  -1.219  -2.075   1.240  1.3645  1.1400 -1.7933
   21DOPE   C29 2634  -1.350  -2.016   1.061 -0.1697 -0.4575 -0.3623
   21DOPE   H9R 2635  -1.410  -1.925   1.080 -0.5864 -0.7014 -0.4903
   21DOPE  C210 2636  -1.340  -2.053   0.935  0.1687 -0.5152 -0.4482
   21DOPE  H10R 2637  -1.363  -1.984   0.852  1.7280 -1.0176 -1.3507
   21DOPE  C211 2638  -1.282  -2.190   0.905  0.0855  0.2853  0.4448
   21DOPE  H11R 2639  -1.365  -2.258   0.874  0.7973 -1.2780  1.7938
   21DOPE  H11S 2640  -1.233  -2.240   0.991 -1.2921  0.8692  1.6012
   21DOPE  C212 2641  -1.199  -2.179   0.776 -0.4638  0.2945  0.3732
   21DOPE  H12R 2642  -1.150  -2.277   0.758  0.5135  1.0698 -1.4076
   21DOPE  H12S 2643  -1.125  -2.097   0.785  0.8762 -0.7213 -1.0368
   21DOPE  C213 2644  -1.289  -2.160   0.648  0.1519 -0.1417 -0.5253
   21DOPE  H13R 2645  -1.229  -2.196   0.562  0.4186  0.2481 -0.5028
   21DOPE  H13S 2646  -1.315  -2.053   0.637  1.7671  0.2096 -1.1172
   21DOPE  C214 2647  -1.421  -2.248   0.639 -0.8765 -0.3108  0.8686
   21DOPE  H14R 2648  -1.497  -2.223   0.716 -1.3913  0.2724  0.1742
   21DOPE  H14S 2649  -1.399  -2.357   0.643 -1.0902 -0.5727 -2.3334
   21DOPE  C215 2650  -1.491  -2.214   0.506 -0.4227 -0.1733  0.6430
   21DOPE  H15R 2651  -1.438  -2.263   0.420 -2.6596  0.7522 -1.3781
   21DOPE  H15S 2652  -1.506  -2.107   0.482 -1.0007 -0.3667  0.0855
   21DOPE  C216 2653  -1.635  -2.273   0.491  0.8883  0.3210 -0.1500
   21DOPE  H16R 2654  -1.667  -2.232   0.392  0.3586  2.9267  1.0110
   21DOPE  H16S 2655  -1.700  -2.226   0.567  2.7328  0.8429  1.1667
   21DOPE  C217 2656  -1.644  -2.426   0.513 -0.6410  0.5480  0.1311
   21DOPE  H17R 2657  -1.751  -2.453   0.498 -0.4458  0.4978 -1.3686
   21DOPE  H17S 2658  -1.609  -2.446   0.617  0.4240 -0.3159 -0.3751
   21DOPE  C218 2659  -1.553  -2.519   0.428 -0.0860 -0.2932  0.3211
   21DOPE  H18R 2660  -1.446  -2.495   0.451  0.3227  0.2746 -1.9362
   21DOPE  H18S 2661  -1.573  -2.510   0.319  0.2094 -1.3740  0.1675
   21DOPE  H18T 2662  -1.573  -2.623   0.461 -1.7077  0.7224  2.9192
   21DOPE   C33 2663  -0.933  -2.249   1.650  0.1039  0.3583 -0.5573
   21DOPE   H3X 2664  -0.956  -2.334   1.718  0.8062  0.6478  0.0637
   21DOPE   H3Y 2665  -0.855  -2.182   1.693 -1.1527  0.7857  1.1854
   21DOPE   C34 2666  -0.883  -2.291   1.509  0.3070  0.3724  0.0171
   21DOPE   H4X 2667  -0.788  -2.349   1.516 -1.0069 -2.8917 -4.5389
   21DOPE   H4Y 2668  -0.968  -2.357   1.480 -0.0892  1.1156 -0.5254
   21DOPE   C35 2669  -0.851  -2.179   1.404 -0.2727  0.5007  0.2727
   21DOPE   H5X 2670  -0.763  -2.119   1.435  0.1829 -1.1868  2.4587
   21DOPE   H5Y 2671  -0.939  -2.113   1.389  0.4211  0.9713 -2.1795
   21DOPE   C36 2672  -0.817  -2.240   1.271  0.3403 -0.4681 -0.0712
   21DOPE   H6X 2673  -0.912  -2.297   1.255 -0.6482  0.5667  1.8126
   21DOPE   H6Y 2674  -0.729  -2.305   1.286  1.1336  1.1470  2.9581
   21DOPE   C37 2675  -0.785  -2.141   1.156  0.1265 -0.3683 -0.1836
   21DOPE   H7X 2676  -0.873  -2.074   1.141  0.2858  0.4695  2.2414
   21DOPE   H7Y 2677  -0.708  -2.067   1.185 -0.4698  1.0335 -1.9559
   21DOPE   C38 2678  -0.713  -2.196   1.025 -0.0573  0.1740 -0.5200
   21DOPE   H8X 2679  -0.638  -2.264   1.070 -1.5440 -1.1174  0.1090
   21DOPE   H8Y 2680  -0.661  -2.119   0.964 -0.4572  0.7647 -0.1212
   21DOPE   C39 2681  -0.811  -2.278   0.945 -0.2264 -0.0178  0.1927
   21DOPE   H9X 2682  -0.849  -2.370   0.991 -0.8528  0.3532  0.4233
   21DOPE  C310 2683  -0.852  -2.244   0.819 -0.4254  0.1573 -0.2050
   21DOPE  H10X 2684  -0.912  -2.322   0.770 -0.8329  0.1613  0.2812
   21DOPE  C311 2685  -0.821  -2.120   0.743 -0.5068  0.5954 -0.2010
   21DOPE  H11X 2686  -0.910  -2.066   0.705 -0.2410  0.7220 -0.6550
   21DOPE  H11Y 2687  -0.760  -2.044   0.795 -0.0267 -0.0577  0.2136
   21DOPE  C312 2688  -0.744  -2.155   0.611 -0.0438 -0.4030 -0.3172
   21DOPE  H12X 2689  -0.794  -2.235   0.553 -2.4073 -0.9850  2.3097
   21DOPE  H12Y 2690  -0.643  -2.185   0.647  0.1820  3.5928  3.1035
   21DOPE  C313 2691  -0.716  -2.027   0.526 -0.0460 -0.0199  0.2739
   21DOPE  H13X 2692  -0.819  -1.987   0.518 -0.3064 -0.7584 -0.1784
   21DOPE  H13Y 2693  -0.662  -1.950   0.585 -0.9972  0.3301  0.7094
   21DOPE  C314 2694  -0.662  -2.054   0.387 -0.7543  0.2691 -0.2898
   21DOPE  H14X 2695  -0.725  -2.123   0.328  2.3347 -1.1173 -2.2607
   21DOPE  H14Y 2696  -0.560  -2.099   0.386 -0.0109  1.9029 -0.2866
   21DOPE  C315 2697  -0.652  -1.923   0.308  0.2759 -0.2157  0.5890
   21DOPE  H15X 2698  -0.589  -1.847   0.360  1.2601 -0.9053  0.4261
   21DOPE  H15Y 2699  -0.752  -1.876   0.299 -0.5455 -1.5512  2.2030
   21DOPE  C316 2700  -0.568  -1.936   0.176  0.9165 -0.5625 -0.6267
   21DOPE  H16X 2701  -0.461  -1.931   0.203  0.5332 -1.2061  1.1611
   21DOPE  H16Y 2702  -0.579  -1.843   0.116 -2.1736  0.1845  0.8835
   21DOPE  C317 2703  -0.625  -2.043   0.074  0.2379  0.1322  0.1296
   21DOPE  H17X 2704  -0.560  -2.050  -0.016 -1.8576 -0.1358 -1.4491
   21DOPE  H17Y 2705  -0.617  -2.146   0.116  1.5706 -0.4958 -1.5570
   21DOPE  C318 2706  -0.770  -2.014   0.025 -0.0683  0.3662 -0.6054
   21DOPE  H18X 2707  -0.806  -2.092  -0.045 -1.1389  0.2795  0.0208
   21DOPE  H18Y 2708  -0.853  -2.012   0.099 -1.2534 -0.3011 -1.8946
   21DOPE  H18Z 2709  -0.781  -1.916  -0.027  0.1365  0.0852 -1.1866
   22DOPE     N 2710   3.014   0.979   2.549 -0.0351 -0.4687 -0.4312
   22DOPE   HN1 2711   2.956   0.940   2.626 -0.4950  0.1370 -0.4647
   22DOPE   HN2 2712   2.959   0.962   2.462 -1.9126  0.4495  0.5279
   22DOPE   HN3 2713   3.108   0.934   2.541 -0.6828 -1.5999 -2.8245
   22DOPE   C12 2714   3.021   1.125   2.569  0.2348 -0.2415 -0.1232
   22DOPE  H12A 2715   3.074   1.165   2.480  0.1875 -0.0293 -0.0578
   22DOPE  H12B 2716   3.071   1.149   2.666  0.8359  0.5645 -0.6127
   22DOPE   C11 2717   2.880   1.186   2.566 -0.3884 -0.3422 -0.2245
   22DOPE  H11A 2718   2.893   1.297   2.565  0.3835 -0.4265 -0.0161
   22DOPE  H11B 2719   2.827   1.154   2.659 -2.8137 -0.1002 -1.4434
   22DOPE     P 2720   2.657   1.208   2.434 -0.0661 -0.3043  0.1452
   22DOPE   O13 2721   2.620   1.293   2.551 -0.1711  0.1536 -0.7060
   22DOPE   O14 2722   2.561   1.105   2.404 -0.2929  0.2883 -0.0817
   22DOPE   O11 2723   2.673   1.298   2.303 -0.0822 -0.3773 -0.0607
   22DOPE   O12 2724   2.798   1.142   2.454 -0.4752 -0.5413  0.5737
   22DOPE    C1 2725   2.761   1.265   2.196 -0.0061 -0.0226 -0.6321
   22DOPE    HA 2726   2.827   1.177   2.210 -0.3669 -0.3274 -0.8378
   22DOPE    HB 2727   2.834   1.349   2.184  0.2929 -0.1456  0.2729
   22DOPE    C2 2728   2.685   1.233   2.061  0.5892  0.4585  0.4317
   22DOPE    HS 2729   2.654   1.126   2.061  2.8079 -0.2420 -0.7045
   22DOPE   O21 2730   2.776   1.250   1.952  0.1522 -0.0205  0.2456
   22DOPE   C21 2731   2.875   1.160   1.941 -0.4835 -0.3879 -0.9279
   22DOPE   O22 2732   2.884   1.067   2.019  0.1980 -0.1901 -0.4736
   22DOPE   C22 2733   2.980   1.194   1.838 -0.1604 -0.2908 -0.0811
   22DOPE   H2R 2734   3.076   1.144   1.863 -0.1653  0.5962  1.9419
   22DOPE   H2S 2735   3.015   1.299   1.847 -0.0617 -0.1626 -1.7651
   22DOPE    C3 2736   2.563   1.325   2.038  0.6800 -0.1605  1.1772
   22DOPE    HX 2737   2.608   1.418   1.996  3.0105 -1.4625  0.6139
   22DOPE    HY 2738   2.499   1.349   2.124 -1.2356  0.5784 -0.3791
   22DOPE   O31 2739   2.479   1.265   1.935  0.4034  0.4583  0.1905
   22DOPE   C31 2740   2.405   1.342   1.860 -0.2336 -0.4889 -0.1177
   22DOPE   O32 2741   2.395   1.465   1.873  0.5708 -0.4099  0.0739
   22DOPE   C32 2742   2.307   1.271   1.769  0.1395  0.4103 -0.2436
   22DOPE   H2X 2743   2.333   1.164   1.782 -1.6368 -0.0901 -0.4919
   22DOPE   H2Y 2744   2.205   1.276   1.814  0.3732 -1.8593  0.6428
   22DOPE   C23 2745   2.928   1.165   1.697  0.2181 -0.0265  0.1662
   22DOPE   H3R 2746   2.825   1.207   1.694 -0.3649 -1.0620  2.8542
   22DOPE   H3S 2747   2.914   1.055   1.686 -1.5791 -0.0245  1.8669
   22DOPE   C24 2748   3.020   1.227   1.590  0.4298 -0.3730  0.0686
   22DOPE   H4R 2749   3.122   1.182   1.589  0.1009 -1.1579 -1.8791
   22DOPE   H4S 2750   3.032   1.332   1.625 -1.0190 -0.1953  0.0876
   22DOPE   C25 2751   2.961   1.226   1.447 -0.2245  0.0149 -0.1445
   22DOPE   H5R 2752   2.856   1.262   1.435 -0.0181  0.5114 -0.4961
   22DOPE   H5S 2753   2.965   1.118   1.420  1.1327  0.9708 -4.7212
   22DOPE   C26 2754   3.053   1.303   1.346  0.4249  0.2097 -0.9249
   22DOPE   H6R 2755   3.159   1.284   1.372  0.2772 -0.1065 -0.5476
   22DOPE   H6S 2756   3.038   1.411   1.371  0.1478 -0.5015  2.5226
   22DOPE   C27 2757   3.033   1.267   1.195  0.3140  0.5003 -0.2887
   22DOPE   H7R 2758   2.935   1.306   1.160  1.2746  2.3968 -0.9742
   22DOPE   H7S 2759   3.033   1.156   1.184 -0.2055  0.3040  1.3965
   22DOPE   C28 2760   3.146   1.331   1.117  0.6114 -0.0960 -0.4693
   22DOPE   H8R 2761   3.237   1.296   1.170  0.4932  0.0365 -0.1783
   22DOPE   H8S 2762   3.152   1.442   1.122  4.8877 -0.0463 -2.2539
   22DOPE   C29 2763   3.145   1.278   0.976 -0.3864  0.3016  0.1068
   22DOPE   H9R 2764   3.164   1.169   0.971  0.0862  0.4415 -1.7647
   22DOPE  C210 2765   3.103   1.332   0.864 -0.4035 -0.9135  0.5019
   22DOPE  H10R 2766   3.094   1.275   0.770  1.0539 -0.3751  0.0141
   22DOPE  C211 2767   3.052   1.473   0.854  0.6389 -0.4528  0.3110
   22DOPE  H11R 2768   3.136   1.544   0.849  0.6244 -0.4705 -0.3597
   22DOPE  H11S 2769   3.004   1.495   0.951  1.2116  0.5702  0.3730
   22DOPE  C212 2770   2.956   1.489   0.730  0.5146  0.2679  0.1012
   22DOPE  H12R 2771   2.900   1.583   0.750 -0.7093 -0.3102 -0.4566
   22DOPE  H12S 2772   2.880   1.408   0.717  0.7500  0.1785 -0.7894
   22DOPE  C213 2773   3.023   1.513   0.593  0.9237  0.1431  0.2784
   22DOPE  H13R 2774   3.086   1.426   0.566  3.3960  1.9772 -0.2613
   22DOPE  H13S 2775   3.090   1.601   0.608  0.0619  0.5575  1.9911
   22DOPE  C214 2776   2.914   1.555   0.482 -0.6398  0.3528 -0.6258
   22DOPE  H14R 2777   2.860   1.648   0.509 -0.9697  0.3183 -1.1477
   22DOPE  H14S 2778   2.836   1.477   0.490 -0.0286 -0.3069 -0.8968
   22DOPE  C215 2779   2.983   1.565   0.342  0.3433 -0.0612 -0.1661
   22DOPE  H15R 2780   3.078   1.622   0.350 -0.4620  1.2877  0.3549
   22DOPE  H15S 2781   2.920   1.616   0.265  0.7032  0.1144 -0.3461
   22DOPE  C216 2782   3.022   1.429   0.284 -0.0849 -0.0456 -0.5148
   22DOPE  H16R 2783   2.926   1.383   0.251  0.0372 -2.4913  2.1196
   22DOPE  H16S 2784   3.058   1.364   0.367  0.2483 -0.3218 -0.8744
   22DOPE  C217 2785   3.119   1.432   0.164  1.2978  0.0024 -0.0946
   22DOPE  H17R 2786   3.118   1.325   0.133 -1.7170 -1.0329  2.8613
   22DOPE  H17S 2787   3.223   1.459   0.193  0.7294  1.3286  0.8376
   22DOPE  C218 2788   3.069   1.534   0.061  0.2631  0.5148 -0.5329
   22DOPE  H18R 2789   3.098   1.505  -0.043  0.8656  1.3197 -0.5900
   22DOPE  H18S 2790   3.109   1.636   0.077  0.3135  0.2068  1.5947
   22DOPE  H18T 2791   2.958   1.528   0.064  0.3341 -2.0958  2.7967
   22DOPE   C33 2792   2.313   1.315   1.621 -0.0581 -0.5040 -0.3854
   22DOPE   H3X 2793   2.416   1.297   1.585  0.1020 -0.2132 -0.0709
   22DOPE   H3Y 2794   2.308   1.425   1.612 -0.2994 -0.5080 -0.2984
   22DOPE   C34 2795   2.202   1.263   1.527  0.1710  0.5274 -0.1213
   22DOPE   H4X 2796   2.219   1.154   1.514  0.7144  0.3909  1.5096
   22DOPE   H4Y 2797   2.103   1.286   1.572 -0.1445  0.3819 -0.7362
   22DOPE   C35 2798   2.213   1.328   1.395 -0.1359 -0.2072 -0.2092
   22DOPE   H5X 2799   2.318   1.354   1.372  0.1732 -1.2789 -0.0305
   22DOPE   H5Y 2800   2.149   1.418   1.381 -0.8898 -0.6440  0.3410
   22DOPE   C36 2801   2.154   1.247   1.286 -0.4760 -0.1173 -1.1072
   22DOPE   H6X 2802   2.054   1.214   1.322 -0.4946  3.2209  2.6950
   22DOPE   H6Y 2803   2.212   1.153   1.274  0.3653  0.0086  1.4202
   22DOPE   C37 2804   2.132   1.311   1.152  0.5975 -0.4395  0.3559
   22DOPE   H7X 2805   2.107   1.225   1.086  0.3151  1.6782 -2.5017
   22DOPE   H7Y 2806   2.056   1.391   1.156  0.3276 -0.6750  0.0386
   22DOPE   C38 2807   2.263   1.366   1.088  0.2679  0.3000  0.0865
   22DOPE   H8X 2808   2.336   1.284   1.066 -0.2257 -0.3665  0.8441
   22DOPE   H8Y 2809   2.311   1.429   1.166 -0.3688 -1.3126  1.8791
   22DOPE   C39 2810   2.225   1.449   0.966 -0.1107 -0.0318 -0.2508
   22DOPE   H9X 2811   2.172   1.542   0.992  3.7709  1.8459  1.6975
   22DOPE  C310 2812   2.247   1.422   0.832  0.0180 -0.0314  0.1500
   22DOPE  H10X 2813   2.223   1.500   0.758 -0.7340 -1.2061 -0.8756
   22DOPE  C311 2814   2.305   1.289   0.779 -0.2940 -0.2707 -0.5077
   22DOPE  H11X 2815   2.303   1.224   0.870 -0.9078  1.0204  0.4357
   22DOPE  H11Y 2816   2.240   1.247   0.700  1.4515 -0.5007 -1.8975
   22DOPE  C312 2817   2.445   1.305   0.720 -0.5400  0.4312 -0.8299
   22DOPE  H12X 2818   2.489   1.208   0.688  1.4807  1.1085 -0.2815
   22DOPE  H12Y 2819   2.520   1.338   0.795  0.3979 -0.8703 -1.1681
   22DOPE  C313 2820   2.452   1.406   0.602 -0.4368  0.6865  0.0089
   22DOPE  H13X 2821   2.412   1.504   0.635  0.6472  0.4043  2.2974
   22DOPE  H13Y 2822   2.556   1.416   0.564 -0.1419 -2.4051 -0.2347
   22DOPE  C314 2823   2.369   1.357   0.487  0.0004  0.1753  0.1919
   22DOPE  H14X 2824   2.266   1.385   0.518  0.6407  0.2334  2.4136
   22DOPE  H14Y 2825   2.387   1.248   0.475  1.1110  0.2598  0.9740
   22DOPE  C315 2826   2.384   1.438   0.355  0.0013  0.3708  0.3082
   22DOPE  H15X 2827   2.380   1.545   0.381 -1.7673  0.5085 -0.3774
   22DOPE  H15Y 2828   2.291   1.413   0.298  0.0646 -2.9372  1.3882
   22DOPE  C316 2829   2.497   1.390   0.267  0.4475  0.2517 -1.2641
   22DOPE  H16X 2830   2.479   1.282   0.246  0.1013 -0.1115  0.6705
   22DOPE  H16Y 2831   2.590   1.389   0.328  0.0818 -0.9665 -0.6904
   22DOPE  C317 2832   2.522   1.469   0.137  0.6916 -0.0097  0.2503
   22DOPE  H17X 2833   2.435   1.437   0.076  0.1437 -1.7960  1.8339
   22DOPE  H17Y 2834   2.519   1.579   0.146 -0.4287  0.0223 -0.3906
   22DOPE  C318 2835   2.651   1.429   0.058  0.1912 -0.1385  0.4549
   22DOPE  H18X 2836   2.729   1.392   0.128  0.3897 -1.2460 -0.3140
   22DOPE  H18Y 2837   2.629   1.352  -0.019  0.3077 -0.8506  1.1188
   22DOPE  H18Z 2838   2.686   1.525   0.015  0.4290  0.9545  2.9481
   23DOPE     N 2839   1.529  -2.131   2.728  0.6619  0.1142 -0.2653
   23DOPE   HN1 2840   1.495  -2.033   2.723  0.6510  0.0650 -1.5379
   23DOPE   HN2 2841   1.463  -2.194   2.677  0.2985 -0.6699  1.1374
   23DOPE   HN3 2842   1.535  -2.162   2.827 -0.2975  0.5955 -0.0493
   23DOPE   C12 2843   1.669  -2.105   2.674  0.0707 -0.6584  0.2569
   23DOPE  H12A 2844   1.657  -2.094   2.564  0.7181  0.7737  0.3110
   23DOPE  H12B 2845   1.735  -2.188   2.707 -0.9434 -1.0692  1.2820
   23DOPE   C11 2846   1.706  -1.965   2.718  0.2339  0.0986 -0.0294
   23DOPE  H11A 2847   1.805  -1.943   2.673  1.1629  1.2041  2.4133
   23DOPE  H11B 2848   1.708  -1.971   2.829 -2.3460 -0.8189  0.0364
   23DOPE     P 2849   1.640  -1.720   2.703  0.8794 -0.2438 -0.2379
   23DOPE   O13 2850   1.675  -1.710   2.851 -0.0681 -0.6114  0.4199
   23DOPE   O14 2851   1.524  -1.634   2.670  0.2305  0.2397 -0.1157
   23DOPE   O11 2852   1.763  -1.684   2.619  0.1021 -0.0862 -0.3454
   23DOPE   O12 2853   1.614  -1.872   2.667  0.3032 -0.6684  0.0569
   23DOPE    C1 2854   1.784  -1.741   2.488  0.3640  0.0977 -0.1690
   23DOPE    HA 2855   1.718  -1.828   2.466 -0.3110  0.2626  1.1317
   23DOPE    HB 2856   1.886  -1.783   2.481  0.9194  0.9991  1.9115
   23DOPE    C2 2857   1.756  -1.643   2.370  0.3842  0.4241 -0.1423
   23DOPE    HS 2858   1.816  -1.555   2.399 -1.3488  2.4759 -2.3420
   23DOPE   O21 2859   1.616  -1.619   2.374  0.2794 -0.6715  0.6651
   23DOPE   C21 2860   1.584  -1.494   2.357  0.2664 -0.2040  0.4783
   23DOPE   O22 2861   1.664  -1.402   2.344 -0.7295  0.0680  0.4860
   23DOPE   C22 2862   1.433  -1.474   2.365  0.0596  0.1693 -0.8755
   23DOPE   H2R 2863   1.396  -1.371   2.343  0.3610  0.8377  1.4204
   23DOPE   H2S 2864   1.403  -1.486   2.471 -0.6721  0.3739 -1.0538
   23DOPE    C3 2865   1.796  -1.695   2.236 -0.2542  0.3023  0.0374
   23DOPE    HX 2866   1.734  -1.774   2.191  0.1660  0.6356 -1.1622
   23DOPE    HY 2867   1.896  -1.740   2.252  0.1991  2.0409  2.8746
   23DOPE   O31 2868   1.799  -1.589   2.139  0.1882 -0.3365  0.1367
   23DOPE   C31 2869   1.885  -1.492   2.141 -0.5268 -0.2699 -0.1975
   23DOPE   O32 2870   1.988  -1.492   2.208  0.0320 -0.1417  0.1493
   23DOPE   C32 2871   1.830  -1.376   2.059 -0.0939  0.1247 -0.8114
   23DOPE   H2X 2872   1.782  -1.401   1.963 -1.4155 -1.0341  0.1183
   23DOPE   H2Y 2873   1.754  -1.333   2.128 -1.2090 -0.4811 -1.6427
   23DOPE   C23 2874   1.354  -1.572   2.276 -0.3726  0.3868  0.7141
   23DOPE   H3R 2875   1.251  -1.581   2.315 -0.1922 -0.7629  0.9606
   23DOPE   H3S 2876   1.402  -1.672   2.284  1.2316  0.7862 -2.3901
   23DOPE   C24 2877   1.339  -1.535   2.123  0.6457  0.0743 -0.2417
   23DOPE   H4R 2878   1.292  -1.435   2.109  1.8227  0.6137 -0.4639
   23DOPE   H4S 2879   1.276  -1.611   2.071  0.3558  0.5057 -0.5288
   23DOPE   C25 2880   1.471  -1.547   2.050  0.5856 -0.5139  0.2019
   23DOPE   H5R 2881   1.531  -1.637   2.078  2.0761  0.2251 -0.5070
   23DOPE   H5S 2882   1.537  -1.461   2.074 -0.8119  0.4349  0.8122
   23DOPE   C26 2883   1.451  -1.560   1.902  0.0247 -0.2311  0.5522
   23DOPE   H6R 2884   1.380  -1.483   1.865  0.6342 -0.6507 -1.6285
   23DOPE   H6S 2885   1.398  -1.657   1.889  0.7152 -0.6789  1.0421
   23DOPE   C27 2886   1.588  -1.540   1.823  0.1196  0.0585 -0.1348
   23DOPE   H7R 2887   1.666  -1.610   1.861  3.0266  2.1543 -1.8379
   23DOPE   H7S 2888   1.619  -1.434   1.832 -0.3387  0.2556 -0.7796
   23DOPE   C28 2889   1.570  -1.561   1.673  0.0798  0.0692 -0.0408
   23DOPE   H8R 2890   1.491  -1.489   1.642  1.0587  1.3592  0.3523
   23DOPE   H8S 2891   1.539  -1.665   1.652 -0.4324  0.2474 -0.1884
   23DOPE   C29 2892   1.703  -1.538   1.605  0.0342 -0.3637  0.1146
   23DOPE   H9R 2893   1.789  -1.581   1.658  0.0624 -0.9682 -0.4131
   23DOPE  C210 2894   1.729  -1.476   1.493  0.0053  0.2807 -0.2307
   23DOPE  H10R 2895   1.836  -1.466   1.466 -0.5881  1.3030 -2.4684
   23DOPE  C211 2896   1.629  -1.419   1.392  0.1108 -0.6419 -0.1290
   23DOPE  H11R 2897   1.659  -1.313   1.381 -2.0689 -0.1150 -1.5773
   23DOPE  H11S 2898   1.529  -1.403   1.436  0.7402 -0.1050  1.1537
   23DOPE  C212 2899   1.636  -1.492   1.260 -0.8830  0.1660 -0.1139
   23DOPE  H12R 2900   1.544  -1.459   1.209 -1.4712  0.6962  1.2414
   23DOPE  H12S 2901   1.620  -1.601   1.273  3.8475 -0.7602 -0.3187
   23DOPE  C213 2902   1.752  -1.442   1.178 -0.1569  0.5415 -0.0870
   23DOPE  H13R 2903   1.847  -1.462   1.233 -0.1170  0.1122 -0.3091
   23DOPE  H13S 2904   1.750  -1.332   1.163  0.9419  0.5986  0.0978
   23DOPE  C214 2905   1.757  -1.518   1.039  0.9049 -0.6277 -0.2504
   23DOPE  H14R 2906   1.652  -1.532   1.003  0.2912  0.9303  0.8005
   23DOPE  H14S 2907   1.793  -1.620   1.061 -0.8437 -0.9295  1.5491
   23DOPE  C215 2908   1.842  -1.444   0.930  0.8683 -0.5734  0.0648
   23DOPE  H15R 2909   1.930  -1.404   0.985  0.6192 -0.6931  0.5549
   23DOPE  H15S 2910   1.786  -1.353   0.899 -0.8084 -0.5852  2.7021
   23DOPE  C216 2911   1.887  -1.530   0.809 -0.6034 -0.0085  0.0496
   23DOPE  H16R 2912   1.928  -1.624   0.852 -0.1788 -0.0311 -0.3906
   23DOPE  H16S 2913   1.959  -1.484   0.738  1.3105 -2.5021  0.2126
   23DOPE  C217 2914   1.771  -1.573   0.720 -0.0766  0.1242 -0.3007
   23DOPE  H17R 2915   1.764  -1.496   0.640 -0.2121  0.0883 -0.3230
   23DOPE  H17S 2916   1.677  -1.575   0.779 -0.1135  1.6915 -0.2587
   23DOPE  C218 2917   1.796  -1.702   0.647 -0.0374 -0.2841  0.5492
   23DOPE  H18R 2918   1.905  -1.712   0.629  0.0583  3.0245 -1.4289
   23DOPE  H18S 2919   1.745  -1.708   0.549 -1.0822  0.7559  1.0195
   23DOPE  H18T 2920   1.776  -1.787   0.716 -1.2605 -1.2018 -0.8661
   23DOPE   C33 2921   1.937  -1.270   2.037  0.5780  0.0084  0.2741
   23DOPE   H3X 2922   2.027  -1.316   1.990 -0.3441 -0.8514 -0.7363
   23DOPE   H3Y 2923   1.963  -1.241   2.141  1.8885  0.3524 -0.1277
   23DOPE   C34 2924   1.884  -1.146   1.966 -0.0899  0.0115 -0.8151
   23DOPE   H4X 2925   1.789  -1.107   2.009 -0.4092 -0.4999 -1.0484
   23DOPE   H4Y 2926   1.962  -1.070   1.989  0.2877 -0.7173  0.3961
   23DOPE   C35 2927   1.883  -1.166   1.810 -0.3347 -0.5269 -0.1458
   23DOPE   H5X 2928   1.789  -1.218   1.782  1.3016 -3.8973  0.1498
   23DOPE   H5Y 2929   1.975  -1.221   1.780 -0.4421 -1.3970  1.0397
   23DOPE   C36 2930   1.873  -1.031   1.732  0.9850  0.5821  0.6530
   23DOPE   H6X 2931   1.958  -0.967   1.764  3.7984 -2.4038 -0.1777
   23DOPE   H6Y 2932   1.769  -0.995   1.739 -0.7061 -2.9558 -2.3112
   23DOPE   C37 2933   1.893  -1.071   1.585 -0.8429 -0.1427  0.1283
   23DOPE   H7X 2934   1.984  -1.134   1.578 -0.6433 -0.0301  1.4445
   23DOPE   H7Y 2935   1.809  -1.137   1.556  0.0614 -0.8560 -0.9451
   23DOPE   C38 2936   1.904  -0.952   1.486 -0.2019  0.3747 -0.2618
   23DOPE   H8X 2937   1.944  -1.006   1.397 -0.1123  1.3993 -0.8562
   23DOPE   H8Y 2938   1.972  -0.871   1.520 -0.7133 -0.0681  1.9731
   23DOPE   C39 2939   1.766  -0.903   1.456 -0.3240  0.0902  0.4394
   23DOPE   H9X 2940   1.697  -0.897   1.541  0.8009 -1.0093  1.4492
   23DOPE  C310 2941   1.713  -0.876   1.335  0.0411 -0.1089  0.0128
   23DOPE  H10X 2942   1.613  -0.832   1.337  0.0741 -0.0504  1.4710
   23DOPE  C311 2943   1.774  -0.909   1.201  0.7385  0.8025 -0.2895
   23DOPE  H11X 2944   1.758  -0.812   1.149 -0.3937  1.4511  1.1959
   23DOPE  H11Y 2945   1.885  -0.909   1.199  0.8829 -1.6733  1.8310
   23DOPE  C312 2946   1.700  -1.035   1.145  0.2258 -0.3964 -0.3541
   23DOPE  H12X 2947   1.598  -0.996   1.124 -0.0326  1.2096  3.1073
   23DOPE  H12Y 2948   1.695  -1.113   1.224  0.7790  0.5664  0.6597
   23DOPE  C313 2949   1.769  -1.088   1.019 -0.5449  0.0249 -0.4710
   23DOPE  H13X 2950   1.873  -1.119   1.043 -0.5146 -1.0398 -1.8358
   23DOPE  H13Y 2951   1.715  -1.174   0.974 -0.6626 -2.3149  3.6572
   23DOPE  C314 2952   1.802  -0.984   0.912  0.8387 -0.4803 -0.4801
   23DOPE  H14X 2953   1.865  -0.901   0.951  0.9230 -1.0156  0.5753
   23DOPE  H14Y 2954   1.705  -0.934   0.897  0.5364 -0.1189  2.2168
   23DOPE  C315 2955   1.866  -1.034   0.782 -0.9295  0.2071  0.7621
   23DOPE  H15X 2956   1.810  -1.113   0.728 -0.9952 -0.1308  1.3135
   23DOPE  H15Y 2957   1.971  -1.062   0.806 -0.4786  1.9444  0.9991
   23DOPE  C316 2958   1.887  -0.928   0.667 -0.9738  0.1531 -0.9835
   23DOPE  H16X 2959   1.977  -0.959   0.610 -0.4722  0.1387 -0.2040
   23DOPE  H16Y 2960   1.916  -0.828   0.707 -0.2934 -0.7215  0.8112
   23DOPE  C317 2961   1.764  -0.902   0.580  0.2800 -0.6689 -0.0953
   23DOPE  H17X 2962   1.715  -0.981   0.520 -0.6994 -0.2093  0.0720
   23DOPE  H17Y 2963   1.684  -0.861   0.645  1.5387  3.2223 -0.6821
   23DOPE  C318 2964   1.800  -0.806   0.473  0.3817  0.0411 -0.0735
   23DOPE  H18X 2965   1.709  -0.771   0.420  0.9065  1.1419 -0.2869
   23DOPE  H18Y 2966   1.855  -0.721   0.520 -0.3102  0.7000 -0.4408
   23DOPE  H18Z 2967   1.868  -0.854   0.399  0.5172  1.5848 -0.9906
   24DOPE     N 2968   1.502   2.326   2.415 -0.2501 -0.0037  0.3800
   24DOPE   HN1 2969   1.557   2.312   2.503 -0.4366  1.8530  0.8404
   24DOPE   HN2 2970   1.417   2.268   2.406  0.3588 -0.7052 -1.1061
   24DOPE   HN3 2971   1.565   2.288   2.342 -0.9089 -2.5594  1.0131
   24DOPE   C12 2972   1.477   2.474   2.394  0.0512  0.4105  0.4829
   24DOPE  H12A 2973   1.572   2.527   2.420  0.4577 -0.9303  1.8879
   24DOPE  H12B 2974   1.400   2.512   2.465 -0.7628  1.6510 -0.9974
   24DOPE   C11 2975   1.449   2.508   2.248 -0.6208 -0.3650  0.4052
   24DOPE  H11A 2976   1.341   2.487   2.231 -0.9403  0.6381  1.1143
   24DOPE  H11B 2977   1.509   2.437   2.186  2.0782  0.4213  1.9358
   24DOPE     P 2978   1.405   2.760   2.244  0.3278 -0.2361 -0.1750
   24DOPE   O13 2979   1.495   2.829   2.339  0.6173 -0.3970  0.2335
   24DOPE   O14 2980   1.267   2.725   2.290 -0.6954 -0.0581  0.3360
   24DOPE   O11 2981   1.386   2.841   2.110 -0.4278  0.2109  0.0175
   24DOPE   O12 2982   1.493   2.635   2.210  0.2968 -0.4229  0.0071
   24DOPE    C1 2983   1.477   2.926   2.044 -0.1952  0.6176 -0.8564
   24DOPE    HA 2984   1.572   2.943   2.101  0.9202 -1.7673 -1.8873
   24DOPE    HB 2985   1.422   3.022   2.030 -1.3785  0.2576  0.9980
   24DOPE    C2 2986   1.527   2.863   1.904  0.4162  0.0125 -0.3478
   24DOPE    HS 2987   1.447   2.865   1.827 -0.5716 -1.0461  0.6124
   24DOPE   O21 2988   1.585   2.724   1.930 -0.1712 -0.1078  0.0483
   24DOPE   C21 2989   1.504   2.623   1.907  0.2119 -0.1277  0.2299
   24DOPE   O22 2990   1.385   2.627   1.884 -0.6563 -0.0974 -0.4738
   24DOPE   C22 2991   1.584   2.494   1.915  0.0774  0.3262 -0.4111
   24DOPE   H2R 2992   1.515   2.407   1.923  2.5956 -1.6686  1.3231
   24DOPE   H2S 2993   1.631   2.498   2.016  0.6435  1.4226 -0.7065
   24DOPE    C3 2994   1.643   2.959   1.859  0.0495 -0.3323 -0.0125
   24DOPE    HX 2995   1.737   2.925   1.908  0.0337 -0.9675 -0.4052
   24DOPE    HY 2996   1.623   3.061   1.898  0.1490 -0.4875  0.4490
   24DOPE   O31 2997   1.667   2.956   1.718  0.1662  0.1894  0.1823
   24DOPE   C31 2998   1.713   3.074   1.659  0.0372 -0.1597  1.0869
   24DOPE   O32 2999   1.745   3.176   1.721 -0.2313  0.4872 -0.8925
   24DOPE   C32 3000   1.721   3.045   1.509  0.0049  0.1735 -0.0279
   24DOPE   H2X 3001   1.827   3.034   1.481 -0.5026  0.6227 -2.3227
   24DOPE   H2Y 3002   1.651   2.963   1.483 -1.3364  1.5035 -0.8038
   24DOPE   C23 3003   1.679   2.476   1.795 -0.1247  0.4695 -0.6220
   24DOPE   H3R 3004   1.713   2.370   1.798 -1.4920  0.0266  0.7588
   24DOPE   H3S 3005   1.769   2.539   1.806  2.1383 -2.6365  0.1057
   24DOPE   C24 3006   1.611   2.482   1.658  0.8495 -0.1673 -0.1601
   24DOPE   H4R 3007   1.595   2.587   1.628  0.1719 -0.2315 -0.0299
   24DOPE   H4S 3008   1.512   2.433   1.648  0.7802 -0.1577  0.4489
   24DOPE   C25 3009   1.692   2.430   1.535 -0.1938  0.4244  0.2989
   24DOPE   H5R 3010   1.672   2.321   1.540 -0.1522  0.3450 -0.8901
   24DOPE   H5S 3011   1.796   2.455   1.566  0.3230 -0.6634 -0.4853
   24DOPE   C26 3012   1.650   2.493   1.400  0.2977 -0.1422 -0.2965
   24DOPE   H6R 3013   1.542   2.469   1.389  0.3893 -0.4893 -0.4791
   24DOPE   H6S 3014   1.706   2.448   1.316  0.2392  0.2078 -0.5244
   24DOPE   C27 3015   1.682   2.640   1.387 -0.5065  0.0386 -0.4464
   24DOPE   H7R 3016   1.782   2.677   1.418 -0.6852  0.3000 -0.1805
   24DOPE   H7S 3017   1.607   2.697   1.447  1.3415 -0.8926  3.0026
   24DOPE   C28 3018   1.681   2.686   1.235  0.3496  0.4745  0.4550
   24DOPE   H8R 3019   1.762   2.640   1.175 -0.5981  1.2447 -1.5045
   24DOPE   H8S 3020   1.715   2.791   1.232 -0.2932  0.6557 -1.0164
   24DOPE   C29 3021   1.545   2.687   1.169  0.1073  0.6069  0.6387
   24DOPE   H9R 3022   1.463   2.686   1.243  0.1698  0.2062  0.7045
   24DOPE  C210 3023   1.511   2.649   1.044  1.1508 -0.0669  0.1606
   24DOPE  H10R 3024   1.404   2.657   1.019  1.0338  0.2659  0.7463
   24DOPE  C211 3025   1.600   2.629   0.928 -0.1077  0.2058  0.5629
   24DOPE  H11R 3026   1.610   2.524   0.891  5.0502  1.1831 -1.6954
   24DOPE  H11S 3027   1.705   2.660   0.946 -0.2326  1.8813 -1.2515
   24DOPE  C212 3028   1.559   2.723   0.803 -0.1638  0.5899  0.0558
   24DOPE  H12R 3029   1.603   2.823   0.825  0.9053  0.0833  0.2671
   24DOPE  H12S 3030   1.451   2.730   0.777  0.1790  0.0512 -1.5822
   24DOPE  C213 3031   1.621   2.676   0.670 -0.5896 -0.0615  0.1786
   24DOPE  H13R 3032   1.595   2.753   0.594 -0.0910  1.2994  1.3463
   24DOPE  H13S 3033   1.583   2.576   0.640 -4.2153  1.2041  0.0718
   24DOPE  C214 3034   1.770   2.661   0.681 -0.1809  0.1748  0.3812
   24DOPE  H14R 3035   1.792   2.584   0.759  2.5405  1.1653  0.7069
   24DOPE  H14S 3036   1.818   2.756   0.711 -0.8261 -0.2000  2.9006
   24DOPE  C215 3037   1.832   2.614   0.554  0.1926 -0.7066  0.5455
   24DOPE  H15R 3038   1.764   2.542   0.504 -1.1886  0.7390  0.2452
   24DOPE  H15S 3039   1.930   2.562   0.562  1.2583  1.3573  1.8229
   24DOPE  C216 3040   1.863   2.735   0.467  0.3976 -0.4469 -0.6516
   24DOPE  H16R 3041   1.942   2.790   0.524  1.2058  0.3938 -2.5019
   24DOPE  H16S 3042   1.773   2.799   0.459  1.3820  1.1527  0.4266
   24DOPE  C217 3043   1.915   2.704   0.323 -0.7647  0.2684 -0.1285
   24DOPE  H17R 3044   1.833   2.649   0.272 -0.7296  1.7044 -1.8244
   24DOPE  H17S 3045   2.008   2.646   0.345  0.0706  2.1179  1.5101
   24DOPE  C218 3046   1.957   2.826   0.249  0.3020  0.1913  0.1834
   24DOPE  H18R 3047   1.997   2.790   0.152  1.0661 -1.0492  0.9295
   24DOPE  H18S 3048   2.025   2.890   0.310 -0.6782 -0.5410  2.1324
   24DOPE  H18T 3049   1.865   2.888   0.236  0.6722  0.4032 -1.6949
   24DOPE   C33 3050   1.683   3.182   1.443  0.5283 -0.2450  0.1077
   24DOPE   H3X 3051   1.754   3.255   1.488 -0.5562  0.7606  0.2292
   24DOPE   H3Y 3052   1.582   3.209   1.479 -0.1100 -2.0953 -0.2229
   24DOPE   C34 3053   1.680   3.198   1.289 -0.1642  0.0217 -0.3185
   24DOPE   H4X 3054   1.634   3.298   1.269 -2.1182 -0.6968  0.3218
   24DOPE   H4Y 3055   1.785   3.187   1.255  0.5785  3.0121  0.7071
   24DOPE   C35 3056   1.604   3.086   1.216  0.2024 -0.3844  0.1611
   24DOPE   H5X 3057   1.497   3.092   1.248  0.1900  0.8424 -0.0574
   24DOPE   H5Y 3058   1.647   2.985   1.232  2.5732  0.4938 -0.3482
   24DOPE   C36 3059   1.610   3.102   1.063 -0.2902  0.4395 -0.0150
   24DOPE   H6X 3060   1.550   3.193   1.040  1.7592  2.2840  1.5718
   24DOPE   H6Y 3061   1.571   3.010   1.013 -0.7947  0.5309  0.2025
   24DOPE   C37 3062   1.739   3.113   0.980 -0.6138  0.9972  0.5710
   24DOPE   H7X 3063   1.798   3.191   1.033  0.0460 -0.9536  2.8600
   24DOPE   H7Y 3064   1.804   3.023   0.983 -1.5096  0.2925 -0.3212
   24DOPE   C38 3065   1.705   3.159   0.839 -0.1761 -0.0087  0.1745
   24DOPE   H8X 3066   1.627   3.238   0.845 -0.1336  0.1802 -1.2849
   24DOPE   H8Y 3067   1.654   3.081   0.779  1.6679  1.0245 -2.9768
   24DOPE   C39 3068   1.826   3.227   0.768  0.1248  0.1538  0.8192
   24DOPE   H9X 3069   1.890   3.295   0.826  1.5166 -0.0068 -0.4885
   24DOPE  C310 3070   1.869   3.200   0.645 -0.1025  0.0866  0.3531
   24DOPE  H10X 3071   1.955   3.260   0.611 -2.1091  1.7465 -2.1828
   24DOPE  C311 3072   1.824   3.102   0.539  0.8523  0.4138 -0.1912
   24DOPE  H11X 3073   1.876   3.008   0.564  0.0110 -0.0904 -0.2859
   24DOPE  H11Y 3074   1.716   3.077   0.550  0.1551  3.3476  0.5772
   24DOPE  C312 3075   1.843   3.152   0.397  0.5399 -0.0231  0.1479
   24DOPE  H12X 3076   1.813   3.072   0.325  1.2316 -0.0144 -0.1579
   24DOPE  H12Y 3077   1.949   3.171   0.370  1.1420 -0.6503  1.9064
   24DOPE  C313 3078   1.754   3.268   0.353 -0.3913 -0.0565 -0.0467
   24DOPE  H13X 3079   1.649   3.252   0.386 -0.2991 -0.2828  0.1313
   24DOPE  H13Y 3080   1.800   3.357   0.400  0.7431 -0.8898  0.4465
   24DOPE  C314 3081   1.769   3.311   0.206  0.8018 -0.1711 -0.0508
   24DOPE  H14X 3082   1.736   3.220   0.152 -0.3749  1.2919 -1.9160
   24DOPE  H14Y 3083   1.877   3.328   0.184  0.4662  1.3480 -0.6007
   24DOPE  C315 3084   1.679   3.433   0.170  0.7572 -0.2797  0.2763
   24DOPE  H15X 3085   1.689   3.444   0.060  0.4490  1.6145  0.4078
   24DOPE  H15Y 3086   1.716   3.522   0.226  0.3963 -1.0303  1.7665
   24DOPE  C316 3087   1.528   3.420   0.202 -0.1933  0.1883 -0.3896
   24DOPE  H16X 3088   1.509   3.420   0.311  1.1867 -2.0609 -0.0825
   24DOPE  H16Y 3089   1.487   3.325   0.161  1.1564 -0.5504 -0.0900
   24DOPE  C317 3090   1.442   3.522   0.122 -0.4883 -0.1360  0.1004
   24DOPE  H17X 3091   1.461   3.623   0.166  1.0982 -0.2218 -0.3511
   24DOPE  H17Y 3092   1.479   3.518   0.018 -0.2563  1.7182  0.0827
   24DOPE  C318 3093   1.293   3.480   0.133  0.6013  0.2191  0.3192
   24DOPE  H18X 3094   1.286   3.371   0.118 -0.6108 -0.0668  2.5731
   24DOPE  H18Y 3095   1.246   3.497   0.233  0.5602 -1.4182  0.6050
   24DOPE  H18Z 3096   1.236   3.539   0.058  3.2195  0.8244 -1.3237
   25DOPE     N 3097   2.973   2.835   2.728 -0.7161  0.7356  0.3248
   25DOPE   HN1 3098   3.055   2.878   2.681 -0.3374  0.5890  0.8423
   25DOPE   HN2 3099   2.900   2.823   2.655  0.2297 -1.3237 -0.3480
   25DOPE   HN3 3100   2.951   2.904   2.803  2.3955  0.4270  1.6544
   25DOPE   C12 3101   3.010   2.699   2.776  0.3806 -0.3171 -0.0935
   25DOPE  H12A 3102   2.913   2.646   2.786 -0.0305  0.2198 -1.0077
   25DOPE  H12B 3103   3.074   2.705   2.866 -0.1677  0.0759  0.2779
   25DOPE   C11 3104   3.080   2.622   2.659  0.5434 -0.4063 -0.2830
   25DOPE  H11A 3105   3.108   2.524   2.703 -0.9325 -0.0693  1.5221
   25DOPE  H11B 3106   3.173   2.680   2.640  0.9555 -1.9127 -3.5072
   25DOPE     P 3107   2.948   2.483   2.484 -0.1988  0.2243  0.3693
   25DOPE   O13 3108   2.816   2.496   2.419 -0.3504  0.3247  0.1423
   25DOPE   O14 3109   2.953   2.376   2.591  0.5242 -0.3439  0.1420
   25DOPE   O11 3110   3.054   2.450   2.376 -0.1836  0.2224 -0.2720
   25DOPE   O12 3111   3.001   2.619   2.538  0.1652 -0.4333  0.6679
   25DOPE    C1 3112   3.171   2.527   2.349 -0.6866 -0.3336 -0.2325
   25DOPE    HA 3113   3.252   2.459   2.316  1.4326  0.8365  2.2542
   25DOPE    HB 3114   3.207   2.577   2.441  0.0658  0.6933 -1.0557
   25DOPE    C2 3115   3.147   2.637   2.238 -0.4202 -0.8220 -0.2927
   25DOPE    HS 3116   3.043   2.674   2.252 -0.6737 -1.2619 -0.9534
   25DOPE   O21 3117   3.158   2.576   2.103  0.9175  0.1131  0.0125
   25DOPE   C21 3118   3.114   2.662   2.005 -0.2638  0.1720 -0.2241
   25DOPE   O22 3119   3.050   2.761   2.026 -0.4492 -0.2048  0.1070
   25DOPE   C22 3120   3.149   2.599   1.870 -0.5546  0.3095 -0.6919
   25DOPE   H2R 3121   3.136   2.489   1.874  1.3969  0.0763  2.0287
   25DOPE   H2S 3122   3.256   2.618   1.845 -0.7061 -0.5183 -2.0857
   25DOPE    C3 3123   3.257   2.748   2.270  0.1273  1.4091 -0.2852
   25DOPE    HX 3124   3.350   2.688   2.263 -0.7429  0.1030 -1.1026
   25DOPE    HY 3125   3.244   2.767   2.379 -2.0880 -1.6379  0.1236
   25DOPE   O31 3126   3.274   2.858   2.175  0.0967  0.3367 -0.6088
   25DOPE   C31 3127   3.179   2.947   2.185  0.1073  0.3615  0.4702
   25DOPE   O32 3128   3.097   2.963   2.266 -0.0110  0.1547 -0.5881
   25DOPE   C32 3129   3.187   3.033   2.061 -0.1271 -0.5599 -0.1454
   25DOPE   H2X 3130   3.270   3.008   1.991  2.3968  0.0232  2.4502
   25DOPE   H2Y 3131   3.099   3.007   1.998  1.6773 -0.0503 -3.0853
   25DOPE   C23 3132   3.076   2.668   1.751  1.1477 -0.6697  1.0204
   25DOPE   H3R 3133   3.107   2.773   1.731 -0.0703 -0.6183 -0.7635
   25DOPE   H3S 3134   2.967   2.654   1.761  1.0474  0.0328  1.0002
   25DOPE   C24 3135   3.112   2.611   1.614 -0.3558 -0.1179  0.6785
   25DOPE   H4R 3136   3.081   2.504   1.614  1.2946 -0.6344  1.6091
   25DOPE   H4S 3137   3.223   2.616   1.605 -0.5248  1.2968 -1.4155
   25DOPE   C25 3138   3.037   2.681   1.503 -1.1366 -0.0525 -0.2170
   25DOPE   H5R 3139   3.061   2.789   1.506 -1.4599  0.0116  0.0365
   25DOPE   H5S 3140   2.929   2.662   1.520 -1.1149  1.7937  2.5669
   25DOPE   C26 3141   3.092   2.621   1.374  0.5366  0.1139 -0.2647
   25DOPE   H6R 3142   3.071   2.512   1.373  0.8111  0.0598 -0.4822
   25DOPE   H6S 3143   3.201   2.645   1.368  0.0853  2.1002 -1.4821
   25DOPE   C27 3144   3.024   2.687   1.255 -0.1655 -0.0438 -0.4069
   25DOPE   H7R 3145   3.041   2.796   1.270  0.2174 -0.1540 -0.0066
   25DOPE   H7S 3146   2.916   2.660   1.251 -0.9946  2.8601  0.0539
   25DOPE   C28 3147   3.084   2.647   1.122  0.0383  0.5559 -0.0346
   25DOPE   H8R 3148   3.088   2.536   1.114  2.7841  0.6893 -1.9449
   25DOPE   H8S 3149   3.192   2.672   1.125  0.5170 -1.3434  0.2009
   25DOPE   C29 3150   3.014   2.698   1.000 -0.0415  0.0080  0.9653
   25DOPE   H9R 3151   2.971   2.798   1.021 -2.1746 -0.8930  1.1420
   25DOPE  C210 3152   2.996   2.644   0.876 -0.8004 -0.3044  0.0746
   25DOPE  H10R 3153   2.921   2.694   0.813  0.5575 -0.1608 -1.4794
   25DOPE  C211 3154   3.066   2.521   0.824 -0.2837  0.0875  0.2091
   25DOPE  H11R 3155   2.991   2.445   0.795  0.1256  0.3758 -1.7914
   25DOPE  H11S 3156   3.136   2.479   0.899 -0.8743  1.9233  1.8674
   25DOPE  C212 3157   3.164   2.556   0.704 -0.3454  0.6243  0.1328
   25DOPE  H12R 3158   3.248   2.484   0.698 -0.9949 -0.4272  2.4648
   25DOPE  H12S 3159   3.224   2.645   0.734  0.3821  0.1495  0.0922
   25DOPE  C213 3160   3.100   2.571   0.564 -0.1567 -0.3734  0.5428
   25DOPE  H13R 3161   3.021   2.649   0.566 -1.4109 -1.6187  1.9266
   25DOPE  H13S 3162   3.063   2.469   0.540  1.0646 -0.3962 -1.4716
   25DOPE  C214 3163   3.183   2.613   0.445 -0.4164  0.5164  0.0380
   25DOPE  H14R 3164   3.265   2.538   0.443  1.0168  2.0484 -0.8152
   25DOPE  H14S 3165   3.228   2.713   0.462 -0.2061  0.3860  0.2597
   25DOPE  C215 3166   3.102   2.630   0.312 -0.0745  0.7530 -0.3125
   25DOPE  H15R 3167   3.034   2.717   0.328 -1.4460 -0.2368 -0.6429
   25DOPE  H15S 3168   3.033   2.544   0.299  0.9167 -0.1064  0.0039
   25DOPE  C216 3169   3.189   2.655   0.182 -0.1220  0.0884 -0.8204
   25DOPE  H16R 3170   3.273   2.726   0.202  2.1675 -3.1865  2.5656
   25DOPE  H16S 3171   3.124   2.699   0.104  0.5230 -1.0588 -2.0411
   25DOPE  C217 3172   3.235   2.531   0.123  0.2440 -0.3266  0.0305
   25DOPE  H17R 3173   3.146   2.471   0.094 -0.1246  0.1599  0.1373
   25DOPE  H17S 3174   3.303   2.475   0.190 -1.1443 -0.7555  1.1317
   25DOPE  C218 3175   3.305   2.559  -0.020 -0.2080  0.1676 -0.3147
   25DOPE  H18R 3176   3.316   2.465  -0.077  0.4365  1.2976 -2.1466
   25DOPE  H18S 3177   3.409   2.596  -0.009 -1.3601  3.1761  1.6681
   25DOPE  H18T 3178   3.249   2.634  -0.080  0.8246  0.6318 -0.7062
   25DOPE   C33 3179   3.192   3.185   2.086  0.0476 -0.1593 -0.2754
   25DOPE   H3X 3180   3.270   3.203   2.162  0.4985  0.2642 -0.8312
   25DOPE   H3Y 3181   3.099   3.227   2.130 -0.0249 -2.7500  2.3439
   25DOPE   C34 3182   3.226   3.271   1.956  0.5884 -0.2778 -0.5276
   25DOPE   H4X 3183   3.275   3.367   1.982 -1.4379  1.0367 -1.3050
   25DOPE   H4Y 3184   3.294   3.212   1.891  1.9158  1.2052 -0.5370
   25DOPE   C35 3185   3.102   3.309   1.874  1.0183 -0.0876 -0.3267
   25DOPE   H5X 3186   3.043   3.392   1.918  1.0000 -0.3376  0.1286
   25DOPE   H5Y 3187   3.023   3.231   1.877  0.6081  0.0076 -3.9953
   25DOPE   C36 3188   3.126   3.334   1.720  0.4341 -0.6031  0.0712
   25DOPE   H6X 3189   3.162   3.237   1.680  0.0082 -0.5333 -0.4833
   25DOPE   H6Y 3190   3.209   3.403   1.696 -1.3233  2.2313  1.6069
   25DOPE   C37 3191   3.002   3.390   1.645 -0.2591  0.1487  0.3376
   25DOPE   H7X 3192   2.920   3.316   1.643  0.1804 -0.3423  0.2856
   25DOPE   H7Y 3193   2.959   3.480   1.694 -0.2525 -0.0707  0.7484
   25DOPE   C38 3194   3.028   3.403   1.488 -0.3274 -0.0645 -0.3409
   25DOPE   H8X 3195   3.112   3.335   1.458 -0.0453  0.1588 -0.0626
   25DOPE   H8Y 3196   3.094   3.491   1.472 -0.4075  0.0715  0.0839
   25DOPE   C39 3197   2.904   3.384   1.405 -0.3604 -0.2729 -0.0654
   25DOPE   H9X 3198   2.820   3.335   1.456 -0.2443 -0.2664  0.1336
   25DOPE  C310 3199   2.893   3.412   1.272  0.2601 -0.0812  0.3698
   25DOPE  H10X 3200   2.799   3.412   1.214  0.6917  0.9919 -0.3578
   25DOPE  C311 3201   3.010   3.450   1.187  0.3306  0.2183  0.0192
   25DOPE  H11X 3202   2.984   3.531   1.116  0.6058  1.1887  0.9967
   25DOPE  H11Y 3203   3.092   3.499   1.244 -0.8142  1.3593  0.7239
   25DOPE  C312 3204   3.063   3.313   1.131 -0.1793 -0.5619 -0.0379
   25DOPE  H12X 3205   3.062   3.235   1.211 -1.8239 -1.4799 -0.9065
   25DOPE  H12Y 3206   3.168   3.341   1.108 -0.1315 -0.6680  0.0506
   25DOPE  C313 3207   2.998   3.260   1.008  0.4800 -0.4844 -0.5552
   25DOPE  H13X 3208   2.894   3.232   1.035  0.0823  1.6395  0.3388
   25DOPE  H13Y 3209   2.993   3.332   0.924  2.4361  1.0919  0.5895
   25DOPE  C314 3210   3.061   3.136   0.948 -0.5490 -0.1535  0.2226
   25DOPE  H14X 3211   3.104   3.090   1.040 -0.4031  0.2574  0.3644
   25DOPE  H14Y 3212   3.144   3.178   0.887  1.1309 -0.0925  2.4063
   25DOPE  C315 3213   2.965   3.035   0.880  0.3531 -0.1990 -0.0324
   25DOPE  H15X 3214   2.908   2.983   0.960  1.4356  2.1934  2.4216
   25DOPE  H15Y 3215   3.017   2.950   0.831  2.4648  1.1827 -0.3068
   25DOPE  C316 3216   2.885   3.092   0.761 -0.2265 -0.4588 -0.5930
   25DOPE  H16X 3217   2.826   3.182   0.789 -0.8361 -1.3959  1.3405
   25DOPE  H16Y 3218   2.808   3.019   0.726 -1.8906  0.0644  1.7013
   25DOPE  C317 3219   2.974   3.138   0.639  0.0865 -0.3130 -0.8985
   25DOPE  H17X 3220   3.033   3.223   0.678 -0.3764 -1.5640  3.0129
   25DOPE  H17Y 3221   3.042   3.052   0.617 -0.7713 -0.8053 -1.7197
   25DOPE  C318 3222   2.890   3.160   0.517 -0.0680 -0.3728  0.4961
   25DOPE  H18X 3223   2.813   3.238   0.535  0.8333  0.4445  0.8461
   25DOPE  H18Y 3224   2.947   3.201   0.431 -0.4141  2.7588  1.6305
   25DOPE  H18Z 3225   2.828   3.070   0.495  1.1864 -1.3567  0.8307
   26DOPE     N 3226  -2.999  -2.861   2.339 -0.0426  0.0359  0.0055
   26DOPE   HN1 3227  -2.906  -2.884   2.298 -0.1131  1.7670 -1.2847
   26DOPE   HN2 3228  -2.992  -2.773   2.393  1.1382  0.5540 -0.9251
   26DOPE   HN3 3229  -3.036  -2.943   2.390  1.1558 -1.0493 -0.8266
   26DOPE   C12 3230  -3.089  -2.847   2.224  0.4268 -0.7299 -0.1394
   26DOPE  H12A 3231  -3.028  -2.832   2.132  0.9497 -0.0023  0.3153
   26DOPE  H12B 3232  -3.133  -2.746   2.240  3.7070  0.6688  0.9489
   26DOPE   C11 3233  -3.202  -2.950   2.215 -0.1496 -0.0984 -0.7803
   26DOPE  H11A 3234  -3.216  -2.958   2.105  0.8735  0.6423 -0.9711
   26DOPE  H11B 3235  -3.293  -2.905   2.261  0.5372 -0.5658  1.1220
   26DOPE     P 3236  -3.238  -3.206   2.229  0.3244  0.3069 -0.5540
   26DOPE   O13 3237  -3.384  -3.181   2.248 -0.1184  0.1506 -0.5023
   26DOPE   O14 3238  -3.185  -3.320   2.312  0.3515 -0.3162  0.8973
   26DOPE   O11 3239  -3.195  -3.219   2.080 -0.4565 -0.2774 -0.0978
   26DOPE   O12 3240  -3.158  -3.076   2.274 -0.1674 -0.3710  0.3845
   26DOPE    C1 3241  -3.053  -3.216   2.041 -0.3574  0.6703 -0.9560
   26DOPE    HA 3242  -2.985  -3.273   2.107 -0.9271  2.4121  1.2648
   26DOPE    HB 3243  -3.012  -3.113   2.042  0.5358  0.3169 -0.6637
   26DOPE    C2 3244  -3.034  -3.289   1.911 -0.0656  0.5077  0.3741
   26DOPE    HS 3245  -2.929  -3.274   1.878 -0.6168  0.0875 -1.7103
   26DOPE   O21 3246  -3.116  -3.239   1.806  0.5505  0.2152  0.0440
   26DOPE   C21 3247  -3.145  -3.112   1.798  0.2082 -0.1978  0.3908
   26DOPE   O22 3248  -3.061  -3.019   1.812  0.0346 -0.0943  0.1988
   26DOPE   C22 3249  -3.301  -3.115   1.774  0.3803  0.0009 -0.4183
   26DOPE   H2R 3250  -3.350  -3.074   1.865 -2.5523 -2.0584 -0.9350
   26DOPE   H2S 3251  -3.333  -3.221   1.781  2.0601 -0.4808  0.6374
   26DOPE    C3 3252  -3.041  -3.440   1.914  0.2623 -0.1410 -0.3355
   26DOPE    HX 3253  -3.139  -3.489   1.933 -0.2103  1.7680  2.7983
   26DOPE    HY 3254  -2.982  -3.476   2.001  0.7541  0.1365 -0.5513
   26DOPE   O31 3255  -2.976  -3.493   1.801 -0.2435  0.3978  0.7958
   26DOPE   C31 3256  -3.042  -3.519   1.692  0.2279  0.6552  0.0510
   26DOPE   O32 3257  -3.160  -3.539   1.682 -0.2810  0.5597  0.0589
   26DOPE   C32 3258  -2.945  -3.501   1.566  0.7798 -0.0190 -0.4860
   26DOPE   H2X 3259  -2.910  -3.395   1.567  1.7249 -0.3046  1.2921
   26DOPE   H2Y 3260  -2.852  -3.561   1.578  2.2425  1.8274 -1.9796
   26DOPE   C23 3261  -3.345  -3.042   1.646 -0.3377 -0.3877 -0.2447
   26DOPE   H3R 3262  -3.298  -2.942   1.636  0.6161 -0.9946 -2.6517
   26DOPE   H3S 3263  -3.454  -3.026   1.634 -0.1827  1.3633  0.4718
   26DOPE   C24 3264  -3.284  -3.118   1.528 -0.5672  0.7925  0.9007
   26DOPE   H4R 3265  -3.319  -3.223   1.537 -2.0985  1.2354  0.4053
   26DOPE   H4S 3266  -3.173  -3.120   1.536 -0.5336  1.7175  0.7696
   26DOPE   C25 3267  -3.314  -3.053   1.392 -0.5616 -0.4575  0.2612
   26DOPE   H5R 3268  -3.260  -2.956   1.392  1.9183 -1.7535  1.3345
   26DOPE   H5S 3269  -3.422  -3.044   1.368 -0.1721 -0.5616 -1.6317
   26DOPE   C26 3270  -3.260  -3.141   1.274  0.2963  0.3252  0.1484
   26DOPE   H6R 3271  -3.304  -3.243   1.280 -2.1067  1.3296  0.9126
   26DOPE   H6S 3272  -3.150  -3.151   1.286  0.4501  0.3138 -1.1161
   26DOPE   C27 3273  -3.292  -3.096   1.134 -0.1821 -0.8293 -0.4128
   26DOPE   H7R 3274  -3.274  -2.986   1.130 -0.1064 -0.8476 -0.6010
   26DOPE   H7S 3275  -3.399  -3.125   1.121 -0.6199  0.5628 -0.1780
   26DOPE   C28 3276  -3.214  -3.157   1.023 -0.6346  1.1041 -0.2106
   26DOPE   H8R 3277  -3.235  -3.266   1.028 -0.7070  1.1753  1.6111
   26DOPE   H8S 3278  -3.106  -3.152   1.048 -0.1005  0.1757 -2.1863
   26DOPE   C29 3279  -3.217  -3.097   0.885  0.1415  0.0181  0.3679
   26DOPE   H9R 3280  -3.194  -2.989   0.882  1.9617 -0.2915  1.6715
   26DOPE  C210 3281  -3.259  -3.152   0.771  0.3401  0.0136  0.8715
   26DOPE  H10R 3282  -3.264  -3.094   0.678 -2.2671 -1.6791 -0.1560
   26DOPE  C211 3283  -3.301  -3.297   0.760 -0.1054 -0.7271 -0.3101
   26DOPE  H11R 3284  -3.364  -3.315   0.850  0.3345  2.7183  0.8566
   26DOPE  H11S 3285  -3.208  -3.357   0.752  1.4151  1.0314  2.3858
   26DOPE  C212 3286  -3.399  -3.319   0.641 -0.3627 -0.1691 -0.5861
   26DOPE  H12R 3287  -3.490  -3.259   0.664  0.5137  0.7942  0.4619
   26DOPE  H12S 3288  -3.437  -3.423   0.653  0.2029 -0.4084 -0.8514
   26DOPE  C213 3289  -3.335  -3.314   0.504  0.7249 -0.1645 -0.7545
   26DOPE  H13R 3290  -3.255  -3.390   0.504  1.2983  0.2888  2.4638
   26DOPE  H13S 3291  -3.279  -3.218   0.496  1.1266 -0.2904  0.4192
   26DOPE  C214 3292  -3.430  -3.327   0.386 -0.0142 -0.4893 -0.7126
   26DOPE  H14R 3293  -3.502  -3.243   0.382 -1.2036 -1.4711 -0.6081
   26DOPE  H14S 3294  -3.501  -3.408   0.413 -0.0807  0.1949  1.3397
   26DOPE  C215 3295  -3.371  -3.312   0.243 -0.6401  0.0011 -0.3610
   26DOPE  H15R 3296  -3.312  -3.403   0.218 -2.6531 -1.8691  1.1870
   26DOPE  H15S 3297  -3.311  -3.219   0.239 -1.3561  0.5466  0.9921
   26DOPE  C216 3298  -3.489  -3.292   0.142 -0.0321 -0.4694  0.2150
   26DOPE  H16R 3299  -3.541  -3.198   0.173  0.8049  0.1636 -0.2627
   26DOPE  H16S 3300  -3.562  -3.374   0.160 -0.6080 -0.6618 -2.5480
   26DOPE  C217 3301  -3.448  -3.288  -0.004 -0.8352 -0.7027 -0.0482
   26DOPE  H17R 3302  -3.365  -3.360  -0.023 -0.6836 -0.8206  1.0178
   26DOPE  H17S 3303  -3.400  -3.190  -0.025 -1.7694  0.1250  1.4935
   26DOPE  C218 3304  -3.560  -3.299  -0.098 -0.0305 -0.0260 -0.4906
   26DOPE  H18R 3305  -3.504  -3.311  -0.194  1.0382 -1.9511  0.3211
   26DOPE  H18S 3306  -3.599  -3.196  -0.113  0.1183  0.0152 -0.6086
   26DOPE  H18T 3307  -3.635  -3.378  -0.078  0.1194  0.2185  1.1746
   26DOPE   C33 3308  -3.011  -3.545   1.435 -0.4334 -0.2229 -0.3038
   26DOPE   H3X 3309  -3.110  -3.497   1.424 -0.3597 -0.0202 -0.0991
   26DOPE   H3Y 3310  -3.032  -3.654   1.446 -0.3626 -0.0286  2.3888
   26DOPE   C34 3311  -2.919  -3.531   1.313 -0.0169  0.0518  0.2756
   26DOPE   H4X 3312  -2.823  -3.580   1.340 -0.2910 -1.1489 -0.8048
   26DOPE   H4Y 3313  -2.961  -3.603   1.240  2.0497 -0.9734  0.0248
   26DOPE   C35 3314  -2.910  -3.393   1.244  0.2802 -0.0703  0.0204
   26DOPE   H5X 3315  -2.856  -3.327   1.315 -0.9188  0.0213  0.8719
   26DOPE   H5Y 3316  -3.007  -3.346   1.217  0.7734  0.4602 -0.8838
   26DOPE   C36 3317  -2.830  -3.402   1.108 -0.3926  0.0442  0.0207
   26DOPE   H6X 3318  -2.735  -3.458   1.118  1.3380  2.5279 -1.3923
   26DOPE   H6Y 3319  -2.797  -3.299   1.083  0.9834 -0.5817 -0.8974
   26DOPE   C37 3320  -2.904  -3.457   0.986 -0.0019 -0.8312 -0.3639
   26DOPE   H7X 3321  -2.963  -3.548   1.012 -2.9459  0.2877 -2.4819
   26DOPE   H7Y 3322  -2.985  -3.386   0.957  1.0574  0.0087 -1.3379
   26DOPE   C38 3323  -2.803  -3.494   0.873  0.0964 -0.2759 -0.7277
   26DOPE   H8X 3324  -2.864  -3.530   0.787 -1.3779 -1.0996  0.6123
   26DOPE   H8Y 3325  -2.745  -3.584   0.903 -1.9690 -1.2550  0.5023
   26DOPE   C39 3326  -2.725  -3.375   0.831  0.0427  0.4042 -0.3355
   26DOPE   H9X 3327  -2.629  -3.365   0.883 -0.3693  1.5269  0.2386
   26DOPE  C310 3328  -2.767  -3.293   0.733 -0.0514  0.2481 -0.1114
   26DOPE  H10X 3329  -2.690  -3.217   0.716 -0.4073  0.7909  0.6513
   26DOPE  C311 3330  -2.893  -3.290   0.652 -0.5447  0.2186 -0.0346
   26DOPE  H11X 3331  -2.988  -3.305   0.707 -1.4499  0.8353 -1.3541
   26DOPE  H11Y 3332  -2.901  -3.184   0.620 -0.9258 -0.1172 -1.1021
   26DOPE  C312 3333  -2.912  -3.367   0.520 -1.0658 -1.2019 -0.7339
   26DOPE  H12X 3334  -3.009  -3.337   0.475 -0.1289 -0.7378 -2.5690
   26DOPE  H12Y 3335  -2.914  -3.473   0.552 -1.5526 -0.9271  0.1794
   26DOPE  C313 3336  -2.801  -3.345   0.413 -0.0326 -0.7169  0.1522
   26DOPE  H13X 3337  -2.704  -3.360   0.465  0.3411  2.6779  0.7168
   26DOPE  H13Y 3338  -2.814  -3.404   0.320  0.5862  0.2754 -0.5844
   26DOPE  C314 3339  -2.794  -3.193   0.370  0.2654 -0.4144 -0.4756
   26DOPE  H14X 3340  -2.695  -3.169   0.325  0.2847  2.9220  1.0653
   26DOPE  H14Y 3341  -2.814  -3.129   0.458  0.6476 -0.7815 -0.1208
   26DOPE  C315 3342  -2.890  -3.162   0.252 -0.3347 -0.1412  0.8008
   26DOPE  H15X 3343  -2.998  -3.166   0.279 -0.2594 -0.6890  1.0560
   26DOPE  H15Y 3344  -2.874  -3.237   0.172 -3.7982 -0.0422 -0.1505
   26DOPE  C316 3345  -2.847  -3.025   0.188  0.1910  0.4843 -0.0386
   26DOPE  H16X 3346  -2.738  -3.032   0.169 -0.1056 -0.6992 -1.4684
   26DOPE  H16Y 3347  -2.866  -2.942   0.259  0.0468  0.3312  0.1039
   26DOPE  C317 3348  -2.930  -2.997   0.059 -0.1587  0.1868  0.1317
   26DOPE  H17X 3349  -3.040  -3.000   0.075 -0.4542  2.4795 -1.1196
   26DOPE  H17Y 3350  -2.901  -2.895   0.026  2.0083 -0.2831  0.4404
   26DOPE  C318 3351  -2.902  -3.095  -0.064  0.0506 -0.4743 -0.5507
   26DOPE  H18X 3352  -2.794  -3.109  -0.081  0.1131 -3.0026  1.3091
   26DOPE  H18Y 3353  -2.948  -3.195  -0.047 -2.4809  0.2336 -2.5807
   26DOPE  H18Z 3354  -2.964  -3.063  -0.150 -2.5834 -1.1817  0.9617
   27DOPE     N 3355  -2.191  -2.239   2.238  0.2474 -0.2404  0.3649
   27DOPE   HN1 3356  -2.255  -2.314   2.206 -0.1550  0.3018 -0.1094
   27DOPE   HN2 3357  -2.140  -2.202   2.156  0.1899  1.6656  1.1445
   27DOPE   HN3 3358  -2.117  -2.293   2.289 -1.8452 -3.2893  0.4549
   27DOPE   C12 3359  -2.250  -2.136   2.323 -0.3053 -0.4645  0.6614
   27DOPE  H12A 3360  -2.165  -2.068   2.345 -1.9214  1.7159  0.5226
   27DOPE  H12B 3361  -2.287  -2.194   2.410  0.2475 -0.7402  0.7137
   27DOPE   C11 3362  -2.358  -2.059   2.258  0.9008  0.0330 -0.4209
   27DOPE  H11A 3363  -2.318  -1.994   2.178 -2.1458 -0.0182 -2.1136
   27DOPE  H11B 3364  -2.401  -1.992   2.336 -0.0129 -0.8070 -0.1723
   27DOPE     P 3365  -2.593  -2.070   2.140 -0.3796 -0.2956 -0.3142
   27DOPE   O13 3366  -2.624  -1.944   2.211 -0.3897 -0.6404 -0.3099
   27DOPE   O14 3367  -2.694  -2.182   2.128  0.3136 -0.1068  0.2896
   27DOPE   O11 3368  -2.534  -2.042   1.997 -0.5454  0.1827  0.1329
   27DOPE   O12 3369  -2.465  -2.140   2.211  0.7132  0.7209  0.3815
   27DOPE    C1 3370  -2.434  -2.106   1.929 -0.2691  0.4843  0.3384
   27DOPE    HA 3371  -2.416  -2.193   1.996 -1.5904 -1.2935 -1.4902
   27DOPE    HB 3372  -2.343  -2.044   1.918  0.6898 -0.7748  0.8477
   27DOPE    C2 3373  -2.474  -2.141   1.784 -0.2002  0.2861  0.4497
   27DOPE    HS 3374  -2.492  -2.045   1.731  2.7156  1.4367  1.3350
   27DOPE   O21 3375  -2.595  -2.214   1.791 -0.1702  0.4684 -0.2407
   27DOPE   C21 3376  -2.713  -2.147   1.792  0.3624  1.1103  0.2298
   27DOPE   O22 3377  -2.729  -2.029   1.785  0.7843  0.2382  0.5633
   27DOPE   C22 3378  -2.832  -2.247   1.813  0.2504  0.3902  0.1125
   27DOPE   H2R 3379  -2.804  -2.302   1.905 -1.2006  0.8175  0.8568
   27DOPE   H2S 3380  -2.829  -2.315   1.726  0.4212 -0.4038  0.7276
   27DOPE    C3 3381  -2.368  -2.215   1.697  0.5992 -0.7035  0.9292
   27DOPE    HX 3382  -2.333  -2.309   1.744  0.2785 -1.0317  0.5275
   27DOPE    HY 3383  -2.285  -2.141   1.690 -1.4894  1.6247 -2.8314
   27DOPE   O31 3384  -2.409  -2.244   1.563  0.3120  0.0534  0.4483
   27DOPE   C31 3385  -2.448  -2.363   1.536  0.5179  0.0004 -0.1589
   27DOPE   O32 3386  -2.463  -2.459   1.611  1.0511  0.2257 -0.2605
   27DOPE   C32 3387  -2.467  -2.380   1.386  0.3039  0.4877  0.5819
   27DOPE   H2X 3388  -2.464  -2.489   1.365 -0.9994  0.6597 -0.7024
   27DOPE   H2Y 3389  -2.566  -2.344   1.351  0.5956 -0.4858 -1.4214
   27DOPE   C23 3390  -2.963  -2.168   1.824 -0.5158  0.7271 -0.2295
   27DOPE   H3R 3391  -2.958  -2.102   1.912 -1.5664 -0.6309  0.8965
   27DOPE   H3S 3392  -3.042  -2.242   1.848 -1.5845  0.9099 -2.8062
   27DOPE   C24 3393  -3.016  -2.110   1.697  0.4797  0.1503 -0.4232
   27DOPE   H4R 3394  -2.952  -2.023   1.670  1.7625 -1.0077 -1.2605
   27DOPE   H4S 3395  -3.114  -2.068   1.728 -0.3072 -2.6560  1.1809
   27DOPE   C25 3396  -3.034  -2.212   1.583 -0.2332 -0.8487  0.1187
   27DOPE   H5R 3397  -3.101  -2.297   1.612 -3.3163  0.6842 -1.8947
   27DOPE   H5S 3398  -2.935  -2.252   1.552  0.4104  1.2078 -0.6220
   27DOPE   C26 3399  -3.085  -2.143   1.458 -0.3158  0.2083  0.6547
   27DOPE   H6R 3400  -3.016  -2.061   1.430 -2.3284  1.5367 -0.6445
   27DOPE   H6S 3401  -3.185  -2.099   1.477 -0.7615 -0.4042 -0.1880
   27DOPE   C27 3402  -3.103  -2.240   1.335 -0.2323 -0.3940 -0.1941
   27DOPE   H7R 3403  -3.187  -2.311   1.355  1.4998 -2.2277  0.9407
   27DOPE   H7S 3404  -3.016  -2.309   1.333  0.0972 -0.0580  1.1817
   27DOPE   C28 3405  -3.134  -2.184   1.200 -0.2653 -0.9078  0.1172
   27DOPE   H8R 3406  -3.220  -2.113   1.207 -1.5372 -2.1357 -1.8534
   27DOPE   H8S 3407  -3.174  -2.253   1.122  0.4581  1.1540 -2.2207
   27DOPE   C29 3408  -3.023  -2.109   1.131 -0.3125 -0.0095  0.2929
   27DOPE   H9R 3409  -2.993  -2.018   1.185  0.5951 -1.3008  2.0960
   27DOPE  C210 3410  -2.938  -2.160   1.045  0.2474  0.7063  0.9943
   27DOPE  H10R 3411  -2.862  -2.089   1.010 -0.6423  1.5283  0.6683
   27DOPE  C211 3412  -2.935  -2.298   0.972 -0.0053  0.0920  0.2836
   27DOPE  H11R 3413  -2.940  -2.378   1.050 -0.0317 -1.1390 -0.9365
   27DOPE  H11S 3414  -2.835  -2.309   0.925  0.0161  0.5992  0.2080
   27DOPE  C212 3415  -3.045  -2.335   0.875 -0.1369  0.0783  0.2235
   27DOPE  H12R 3416  -3.150  -2.327   0.911 -0.2873  3.2940 -0.5762
   27DOPE  H12S 3417  -3.036  -2.438   0.836 -2.3854  0.3609 -1.2694
   27DOPE  C213 3418  -3.054  -2.247   0.750  0.6680 -0.1783 -0.4685
   27DOPE  H13R 3419  -2.959  -2.256   0.693  0.5466 -1.2880 -0.5118
   27DOPE  H13S 3420  -3.082  -2.143   0.777 -1.7240 -0.6999 -0.7304
   27DOPE  C214 3421  -3.164  -2.281   0.648 -0.0082  0.1187 -0.4725
   27DOPE  H14R 3422  -3.260  -2.254   0.698  1.5588  1.8756  1.7865
   27DOPE  H14S 3423  -3.150  -2.390   0.633  1.4854  0.2536 -0.2198
   27DOPE  C215 3424  -3.143  -2.204   0.520  0.0405 -0.0882  0.4202
   27DOPE  H15R 3425  -3.043  -2.206   0.470 -1.2669 -0.2992 -2.3611
   27DOPE  H15S 3426  -3.170  -2.097   0.530 -2.6393 -0.6676  0.0984
   27DOPE  C216 3427  -3.237  -2.259   0.410 -0.0902 -0.5591 -0.0660
   27DOPE  H16R 3428  -3.336  -2.242   0.457  0.7552  0.5184  1.4481
   27DOPE  H16S 3429  -3.201  -2.363   0.395  0.1077 -0.7129  1.3144
   27DOPE  C217 3430  -3.228  -2.202   0.261  0.1502 -0.4988 -0.5441
   27DOPE  H17R 3431  -3.289  -2.257   0.187  2.6339 -0.4191 -2.8212
   27DOPE  H17S 3432  -3.122  -2.201   0.226  1.0579 -1.9315  1.9363
   27DOPE  C218 3433  -3.287  -2.065   0.255  0.2600  0.1097 -0.4139
   27DOPE  H18R 3434  -3.377  -2.057   0.320 -0.3199  0.9240 -1.2677
   27DOPE  H18S 3435  -3.291  -2.032   0.148  0.3031 -1.1734 -0.8287
   27DOPE  H18T 3436  -3.230  -1.993   0.317 -0.6323 -0.4706  1.1410
   27DOPE   C33 3437  -2.356  -2.319   1.296  0.0127  0.0047  0.0909
   27DOPE   H3X 3438  -2.258  -2.340   1.346  0.2458  2.4174  0.7401
   27DOPE   H3Y 3439  -2.364  -2.209   1.295 -0.5184 -0.0348  0.1082
   27DOPE   C34 3440  -2.355  -2.371   1.158  0.0137 -0.1725 -0.0508
   27DOPE   H4X 3441  -2.263  -2.326   1.115  0.9999 -2.1181 -0.1000
   27DOPE   H4Y 3442  -2.327  -2.479   1.153  2.1016  0.3824 -3.2037
   27DOPE   C35 3443  -2.479  -2.335   1.072 -0.4115 -0.6067 -0.2910
   27DOPE   H5X 3444  -2.465  -2.232   1.034  1.2279 -0.6706  0.0451
   27DOPE   H5Y 3445  -2.569  -2.342   1.136  1.4828 -1.5014  2.4905
   27DOPE   C36 3446  -2.503  -2.430   0.954  0.4485 -0.7949 -0.5221
   27DOPE   H6X 3447  -2.606  -2.438   0.914 -0.5953 -1.7176  2.1076
   27DOPE   H6Y 3448  -2.494  -2.529   1.004  3.0600 -0.8426 -0.9213
   27DOPE   C37 3449  -2.402  -2.411   0.847 -0.1574  0.1319  0.5230
   27DOPE   H7X 3450  -2.298  -2.406   0.885 -0.0286  0.4337  0.1426
   27DOPE   H7Y 3451  -2.403  -2.511   0.799  0.4762 -0.0217  0.8138
   27DOPE   C38 3452  -2.409  -2.286   0.760  0.0337  0.6032  0.0450
   27DOPE   H8X 3453  -2.332  -2.288   0.679 -0.3708 -0.0801 -0.3330
   27DOPE   H8Y 3454  -2.383  -2.192   0.812  1.5349  0.4953 -0.4490
   27DOPE   C39 3455  -2.542  -2.268   0.698  0.0794 -0.5871 -0.4128
   27DOPE   H9X 3456  -2.622  -2.227   0.762  0.7798 -0.1661  0.2179
   27DOPE  C310 3457  -2.583  -2.329   0.589  0.7488 -0.1184  0.0983
   27DOPE  H10X 3458  -2.682  -2.302   0.549  0.9991 -0.0330 -0.4804
   27DOPE  C311 3459  -2.502  -2.425   0.501  0.4880  0.0582  0.0905
   27DOPE  H11X 3460  -2.415  -2.470   0.554  0.3361 -2.1845 -1.4115
   27DOPE  H11Y 3461  -2.570  -2.511   0.481  1.5295 -0.2355 -2.6791
   27DOPE  C312 3462  -2.455  -2.354   0.370  0.1693  0.2272  0.0559
   27DOPE  H12X 3463  -2.414  -2.254   0.396 -0.1715  0.1566  0.8996
   27DOPE  H12Y 3464  -2.537  -2.346   0.295 -0.4499 -1.4967  0.4957
   27DOPE  C313 3465  -2.335  -2.426   0.299 -0.1821 -0.1174 -0.3307
   27DOPE  H13X 3466  -2.258  -2.430   0.379 -0.2699  2.3826 -0.0513
   27DOPE  H13Y 3467  -2.363  -2.531   0.278  0.0563  0.0455 -1.5346
   27DOPE  C314 3468  -2.303  -2.362   0.170 -0.1349  0.1912  0.3822
   27DOPE  H14X 3469  -2.305  -2.252   0.181  1.3050  0.1455  1.2984
   27DOPE  H14Y 3470  -2.379  -2.383   0.092  1.3261 -1.6478 -0.6324
   27DOPE  C315 3471  -2.159  -2.383   0.125 -0.1251  0.0326 -0.8264
   27DOPE  H15X 3472  -2.150  -2.492   0.106  0.5997  0.1973 -1.4954
   27DOPE  H15Y 3473  -2.093  -2.356   0.209 -0.9987 -1.8740  0.5501
   27DOPE  C316 3474  -2.123  -2.307   0.003 -0.7848 -0.7944 -0.0809
   27DOPE  H16X 3475  -2.135  -2.197   0.017  2.1437  0.0516 -2.8901
   27DOPE  H16Y 3476  -2.188  -2.344  -0.078  0.4621  0.9509 -1.9690
   27DOPE  C317 3477  -1.975  -2.323  -0.047  0.5018  0.1076 -0.2588
   27DOPE  H17X 3478  -1.965  -2.261  -0.139 -0.4697  1.8954  0.7784
   27DOPE  H17Y 3479  -1.927  -2.271   0.038 -0.9323  0.5024  0.3354
   27DOPE  C318 3480  -1.913  -2.462  -0.041  0.2431 -0.2483 -0.7561
   27DOPE  H18X 3481  -1.960  -2.530  -0.116  0.2489  0.8699 -1.8142
   27DOPE  H18Y 3482  -1.805  -2.470  -0.064  0.5083  2.3467 -0.7042
   27DOPE  H18Z 3483  -1.922  -2.494   0.064 -1.9060  2.0712 -0.1228
   28DOPE     N 3484   3.123  -3.014   2.263 -0.3811  0.2783  0.1014
   28DOPE   HN1 3485   3.141  -2.919   2.303 -0.7013  1.2819 -2.0093
   28DOPE   HN2 3486   3.209  -3.064   2.233  0.3253  1.3969  0.1908
   28DOPE   HN3 3487   3.053  -3.009   2.187 -0.9909 -0.0745  0.6351
   28DOPE   C12 3488   3.061  -3.105   2.363 -0.4151  0.4006 -0.0744
   28DOPE  H12A 3489   2.972  -3.048   2.398  0.8318  1.5322  1.3703
   28DOPE  H12B 3490   3.136  -3.133   2.440  1.4856 -0.7427 -2.2505
   28DOPE   C11 3491   3.012  -3.237   2.311  0.2460 -0.7680 -0.5521
   28DOPE  H11A 3492   3.103  -3.290   2.276  0.7396 -0.5652  0.3904
   28DOPE  H11B 3493   2.941  -3.212   2.229 -1.9912 -1.6263  1.0134
   28DOPE     P 3494   2.793  -3.286   2.448  0.0890 -0.5805  0.3226
   28DOPE   O13 3495   2.756  -3.141   2.443 -0.6641  0.2536  0.2499
   28DOPE   O14 3496   2.758  -3.359   2.572 -0.2885 -0.9652 -0.1541
   28DOPE   O11 3497   2.718  -3.358   2.333 -0.0028 -0.1377 -0.0071
   28DOPE   O12 3498   2.947  -3.307   2.414  0.6860 -0.0100 -0.1763
   28DOPE    C1 3499   2.758  -3.487   2.282 -0.4497 -0.2808  0.2980
   28DOPE    HA 3500   2.681  -3.564   2.307  1.8696 -2.3740  1.4294
   28DOPE    HB 3501   2.855  -3.524   2.320  0.8727  0.2873 -2.3201
   28DOPE    C2 3502   2.789  -3.485   2.129 -0.1611  0.1029  0.6311
   28DOPE    HS 3503   2.886  -3.436   2.104 -0.4738 -0.2430 -1.4561
   28DOPE   O21 3504   2.675  -3.435   2.060  0.3123 -0.4002  0.2133
   28DOPE   C21 3505   2.697  -3.326   1.981  0.4493 -0.6850  0.1207
   28DOPE   O22 3506   2.799  -3.259   1.997  0.1315 -0.2706 -0.2199
   28DOPE   C22 3507   2.580  -3.285   1.891  0.1767 -0.4616 -0.1098
   28DOPE   H2R 3508   2.513  -3.212   1.941 -0.4410  0.4306 -2.1234
   28DOPE   H2S 3509   2.529  -3.381   1.867  0.0488 -1.0255  2.1921
   28DOPE    C3 3510   2.815  -3.629   2.082 -0.8725 -0.4965  0.2785
   28DOPE    HX 3511   2.724  -3.682   2.117 -1.2533 -1.6466 -2.2638
   28DOPE    HY 3512   2.901  -3.667   2.142 -2.0840  0.8787  3.0895
   28DOPE   O31 3513   2.842  -3.625   1.941  0.0305 -0.2932 -0.3151
   28DOPE   C31 3514   2.806  -3.728   1.864 -0.6348 -0.2102 -0.5928
   28DOPE   O32 3515   2.733  -3.818   1.893  0.1184  0.3687  0.0758
   28DOPE   C32 3516   2.860  -3.710   1.716 -0.6656  0.5944  0.6892
   28DOPE   H2X 3517   2.927  -3.621   1.710  1.2755 -0.6493  2.5343
   28DOPE   H2Y 3518   2.920  -3.801   1.697 -3.1426 -0.4619 -3.4248
   28DOPE   C23 3519   2.629  -3.240   1.753  0.1407 -0.4128  0.4236
   28DOPE   H3R 3520   2.720  -3.300   1.730  1.7518  2.3059 -0.7999
   28DOPE   H3S 3521   2.668  -3.138   1.774  0.9838 -1.1869  3.0839
   28DOPE   C24 3522   2.525  -3.244   1.642  0.6791 -0.3762  0.6338
   28DOPE   H4R 3523   2.442  -3.186   1.687 -0.5367 -2.4476  1.1675
   28DOPE   H4S 3524   2.478  -3.338   1.608 -2.8883  2.2696 -2.7075
   28DOPE   C25 3525   2.561  -3.168   1.507 -0.4455 -0.3761  0.0555
   28DOPE   H5R 3526   2.651  -3.215   1.463 -0.7132 -1.6610  0.8285
   28DOPE   H5S 3527   2.592  -3.064   1.530 -0.9511  0.0035 -0.8866
   28DOPE   C26 3528   2.448  -3.180   1.403 -0.1490 -0.2197 -0.4906
   28DOPE   H6R 3529   2.371  -3.249   1.444 -0.3326  1.5363  2.3890
   28DOPE   H6S 3530   2.488  -3.222   1.308 -0.7686 -0.2501 -0.7434
   28DOPE   C27 3531   2.371  -3.046   1.380 -0.0032 -0.3024  0.4430
   28DOPE   H7R 3532   2.309  -3.015   1.467  0.2216 -1.4880  1.0436
   28DOPE   H7S 3533   2.308  -3.054   1.290 -1.9542 -0.9287  1.7915
   28DOPE   C28 3534   2.460  -2.925   1.364 -0.5223  0.4977  0.1949
   28DOPE   H8R 3535   2.522  -2.888   1.448 -0.5800  0.2344  0.3519
   28DOPE   H8S 3536   2.396  -2.837   1.342 -0.6337  0.8025  1.6362
   28DOPE   C29 3537   2.563  -2.948   1.258 -0.2884 -0.6801  0.1586
   28DOPE   H9R 3538   2.666  -2.970   1.289 -0.9890 -0.4733  2.8619
   28DOPE  C210 3539   2.545  -2.936   1.126  0.1855  0.2855 -0.0946
   28DOPE  H10R 3540   2.627  -2.937   1.052 -0.2231  1.4548 -0.5921
   28DOPE  C211 3541   2.413  -2.905   1.064 -0.7124 -0.9246 -0.2489
   28DOPE  H11R 3542   2.338  -2.859   1.131 -0.2364 -1.4617  0.6639
   28DOPE  H11S 3543   2.363  -2.999   1.031  2.2443 -2.6189 -0.2329
   28DOPE  C212 3544   2.433  -2.815   0.939 -0.1235 -0.2693 -0.0387
   28DOPE  H12R 3545   2.470  -2.714   0.967  0.3114 -0.3660 -0.2491
   28DOPE  H12S 3546   2.334  -2.788   0.897  0.2749  1.1358 -0.1214
   28DOPE  C213 3547   2.508  -2.882   0.814 -0.0665 -0.0421  0.0569
   28DOPE  H13R 3548   2.518  -2.989   0.843 -0.4943 -0.2297 -0.4598
   28DOPE  H13S 3549   2.608  -2.834   0.817 -0.7575  1.4526 -0.1970
   28DOPE  C214 3550   2.433  -2.857   0.686  0.6330  0.0906 -0.0403
   28DOPE  H14R 3551   2.380  -2.761   0.700  0.9825  0.0402  1.7902
   28DOPE  H14S 3552   2.351  -2.931   0.678  0.1809  0.2731  2.2866
   28DOPE  C215 3553   2.511  -2.860   0.558 -0.2289 -0.0914  0.7825
   28DOPE  H15R 3554   2.534  -2.967   0.537 -2.2684 -0.0139 -2.4866
   28DOPE  H15S 3555   2.606  -2.805   0.572 -1.5353  3.4709 -2.5401
   28DOPE  C216 3556   2.438  -2.794   0.438  0.3414  0.1225  0.0723
   28DOPE  H16R 3557   2.455  -2.684   0.429  0.7331  0.0497 -0.0968
   28DOPE  H16S 3558   2.327  -2.797   0.450  0.3433 -0.1239  0.0196
   28DOPE  C217 3559   2.465  -2.855   0.303 -0.7734  0.4123  0.5585
   28DOPE  H17R 3560   2.429  -2.959   0.293  0.2747 -0.1209  1.9651
   28DOPE  H17S 3561   2.575  -2.868   0.294 -1.1209 -2.2757 -0.5846
   28DOPE  C218 3562   2.423  -2.771   0.185 -0.0068  0.3780 -0.0079
   28DOPE  H18R 3563   2.481  -2.676   0.182  1.8436 -0.6992 -0.4353
   28DOPE  H18S 3564   2.313  -2.763   0.175 -0.3312 -2.8872 -0.3473
   28DOPE  H18T 3565   2.450  -2.829   0.094 -2.8485 -2.4142  0.7497
   28DOPE   C33 3566   2.735  -3.708   1.616 -0.0105  0.0448 -0.6581
   28DOPE   H3X 3567   2.670  -3.627   1.655  1.1089  0.2978  0.7662
   28DOPE   H3Y 3568   2.687  -3.807   1.631 -0.6753  0.6770  1.9326
   28DOPE   C34 3569   2.767  -3.684   1.467  0.3894 -0.5315 -0.0668
   28DOPE   H4X 3570   2.827  -3.591   1.459 -2.3541  1.3394 -0.1606
   28DOPE   H4Y 3571   2.823  -3.775   1.437  0.6884 -0.6062  0.6896
   28DOPE   C35 3572   2.630  -3.666   1.393 -0.3127  0.9062  0.1278
   28DOPE   H5X 3573   2.558  -3.620   1.463 -0.2418 -0.9947  1.5291
   28DOPE   H5Y 3574   2.596  -3.770   1.377  1.4289  0.1074  1.3053
   28DOPE   C36 3575   2.647  -3.583   1.267  0.4723  0.2332 -0.3963
   28DOPE   H6X 3576   2.712  -3.649   1.205 -0.3188 -1.5335  0.5814
   28DOPE   H6Y 3577   2.688  -3.484   1.296 -0.5116  0.8052 -0.8987
   28DOPE   C37 3578   2.512  -3.550   1.198  0.7439 -0.1973 -0.0634
   28DOPE   H7X 3579   2.464  -3.643   1.162  0.7204 -0.0871 -0.3250
   28DOPE   H7Y 3580   2.450  -3.494   1.271 -0.1463  0.5797 -1.3786
   28DOPE   C38 3581   2.518  -3.446   1.072 -0.6506 -0.3020 -0.7475
   28DOPE   H8X 3582   2.562  -3.349   1.103  0.0924 -1.1488  1.0036
   28DOPE   H8Y 3583   2.414  -3.413   1.052 -1.3534 -1.8758  0.1061
   28DOPE   C39 3584   2.563  -3.510   0.945  0.6824  0.0745 -0.2167
   28DOPE   H9X 3585   2.664  -3.553   0.949  0.9009  0.6393  0.4047
   28DOPE  C310 3586   2.496  -3.521   0.830  0.3347  0.0047 -0.1757
   28DOPE  H10X 3587   2.545  -3.576   0.749  2.9366 -1.2891  2.1074
   28DOPE  C311 3588   2.361  -3.456   0.795  0.1763 -0.1941  0.4977
   28DOPE  H11X 3589   2.308  -3.524   0.726  1.9121  0.2474 -1.3604
   28DOPE  H11Y 3590   2.299  -3.435   0.885 -0.0496  1.9222 -0.0947
   28DOPE  C312 3591   2.372  -3.316   0.727  0.6496  0.2189 -0.1645
   28DOPE  H12X 3592   2.441  -3.258   0.792  0.8007  1.6185 -1.5246
   28DOPE  H12Y 3593   2.270  -3.273   0.718 -0.1369 -1.6767 -0.8284
   28DOPE  C313 3594   2.444  -3.320   0.591  0.1170  0.0941  0.3144
   28DOPE  H13X 3595   2.426  -3.223   0.540  2.0378 -0.0089 -0.6892
   28DOPE  H13Y 3596   2.554  -3.328   0.610  0.0729  1.7785  1.4058
   28DOPE  C314 3597   2.398  -3.432   0.494  0.1880 -0.3227  0.2683
   28DOPE  H14X 3598   2.288  -3.426   0.484  0.3499  0.4882 -1.3526
   28DOPE  H14Y 3599   2.415  -3.535   0.532 -2.4080 -0.3265  1.6201
   28DOPE  C315 3600   2.444  -3.426   0.347 -0.2103 -0.1119 -0.1041
   28DOPE  H15X 3601   2.547  -3.469   0.350 -0.9102 -1.8448  1.8205
   28DOPE  H15Y 3602   2.450  -3.324   0.304  1.0273  0.2967  0.9387
   28DOPE  C316 3603   2.372  -3.523   0.263 -1.5366 -0.4610  0.5335
   28DOPE  H16X 3604   2.362  -3.623   0.310 -1.7423 -0.7578 -0.1416
   28DOPE  H16Y 3605   2.436  -3.545   0.176 -2.0500 -0.2634  0.1035
   28DOPE  C317 3606   2.234  -3.475   0.216 -0.4825  0.1910 -0.4019
   28DOPE  H17X 3607   2.171  -3.446   0.303 -1.4670 -0.0591 -1.0189
   28DOPE  H17Y 3608   2.253  -3.377   0.167 -1.6568  0.4559 -0.3591
   28DOPE  C318 3609   2.170  -3.566   0.118  0.4423 -0.7474 -0.1713
   28DOPE  H18X 3610   2.242  -3.572   0.033  1.2030  0.5644  0.3560
   28DOPE  H18Y 3611   2.164  -3.665   0.168  0.9545  0.6394  2.8332
   28DOPE  H18Z 3612   2.071  -3.526   0.089  1.7347  0.8897 -2.7298
   29DOPE     N 3613  -2.928  -1.831   2.603  0.2087 -0.0173  0.6033
   29DOPE   HN1 3614  -2.859  -1.876   2.666 -1.2296 -1.1972  1.3992
   29DOPE   HN2 3615  -2.903  -1.731   2.585 -3.8374  1.1708  0.6374
   29DOPE   HN3 3616  -3.024  -1.808   2.637  0.6681  4.8323 -0.5466
   29DOPE   C12 3617  -2.954  -1.906   2.469  0.1677  0.2917 -0.3660
   29DOPE  H12A 3618  -2.931  -2.013   2.483  2.6598  0.9539  1.2728
   29DOPE  H12B 3619  -2.870  -1.876   2.404  1.0763 -2.6767 -0.6768
   29DOPE   C11 3620  -3.096  -1.867   2.413  0.0849  0.9502  0.5019
   29DOPE  H11A 3621  -3.116  -1.918   2.316 -1.4425  2.5033 -0.0500
   29DOPE  H11B 3622  -3.105  -1.757   2.398  0.4324  0.9314  0.1475
   29DOPE     P 3623  -3.255  -2.038   2.550  0.0017 -0.1527  0.0492
   29DOPE   O13 3624  -3.368  -2.018   2.648  0.3741 -0.0745 -0.3240
   29DOPE   O14 3625  -3.151  -2.144   2.573 -0.4622 -0.4527  0.3143
   29DOPE   O11 3626  -3.334  -2.071   2.417  0.1234 -0.2824  0.0513
   29DOPE   O12 3627  -3.194  -1.897   2.510 -0.5655  0.0976 -0.0621
   29DOPE    C1 3628  -3.425  -1.976   2.358 -0.3458  0.3507 -0.0010
   29DOPE    HA 3629  -3.378  -1.879   2.331  3.6401 -1.3842 -0.0246
   29DOPE    HB 3630  -3.503  -1.948   2.433 -1.9049 -0.8704 -1.1179
   29DOPE    C2 3631  -3.497  -2.038   2.235 -1.0325 -0.1471  0.0313
   29DOPE    HS 3632  -3.546  -2.132   2.269 -0.1754  0.0294  1.8685
   29DOPE   O21 3633  -3.400  -2.076   2.135  0.3579 -0.1927  0.8754
   29DOPE   C21 3634  -3.458  -2.150   2.043  0.4255 -0.4057 -0.0936
   29DOPE   O22 3635  -3.559  -2.215   2.052  0.2547 -0.2514 -0.1208
   29DOPE   C22 3636  -3.379  -2.136   1.914 -0.6889 -0.2300 -0.6760
   29DOPE   H2R 3637  -3.396  -2.226   1.852  1.2714 -0.5257 -0.8600
   29DOPE   H2S 3638  -3.271  -2.142   1.942 -1.0990 -0.6315  0.9382
   29DOPE    C3 3639  -3.603  -1.941   2.181  0.3120  0.3335  1.3265
   29DOPE    HX 3640  -3.672  -1.904   2.260 -0.2796  0.7310  0.6403
   29DOPE    HY 3641  -3.679  -1.988   2.115  1.8237 -0.5282  0.1216
   29DOPE   O31 3642  -3.545  -1.845   2.094 -0.3745 -0.6181  0.1820
   29DOPE   C31 3643  -3.536  -1.722   2.143 -0.5633  0.0552  0.7102
   29DOPE   O32 3644  -3.570  -1.683   2.251 -0.4264  0.0981  0.0951
   29DOPE   C32 3645  -3.480  -1.636   2.030  0.3869  0.0770  0.6777
   29DOPE   H2X 3646  -3.372  -1.660   2.023  0.2884 -0.0931 -0.3753
   29DOPE   H2Y 3647  -3.536  -1.674   1.942 -2.2132  1.1944  1.7648
   29DOPE   C23 3648  -3.409  -2.004   1.846  0.7942  0.1110 -0.2842
   29DOPE   H3R 3649  -3.351  -1.918   1.887  1.9574 -0.3567 -0.8848
   29DOPE   H3S 3650  -3.518  -1.987   1.853  0.1588 -2.7839 -1.6399
   29DOPE   C24 3651  -3.403  -2.007   1.691  0.6070  0.0915  0.3787
   29DOPE   H4R 3652  -3.474  -2.077   1.643 -1.4466  0.8014  2.2228
   29DOPE   H4S 3653  -3.300  -2.031   1.658  0.2337  3.1389 -3.8501
   29DOPE   C25 3654  -3.442  -1.869   1.637  0.2303 -0.1125 -0.2997
   29DOPE   H5R 3655  -3.374  -1.790   1.675 -1.8199  1.4930  0.1948
   29DOPE   H5S 3656  -3.543  -1.845   1.676  1.3114  0.1614  2.5961
   29DOPE   C26 3657  -3.429  -1.849   1.488  0.5453  0.2671  0.5487
   29DOPE   H6R 3658  -3.345  -1.914   1.456 -0.7698 -0.6901 -1.1717
   29DOPE   H6S 3659  -3.394  -1.744   1.477 -0.0072  0.4783  0.7593
   29DOPE   C27 3660  -3.566  -1.856   1.417 -0.5418  0.5837  0.4565
   29DOPE   H7R 3661  -3.627  -1.764   1.423 -1.1565  0.1567  0.8812
   29DOPE   H7S 3662  -3.626  -1.928   1.477  1.5839 -0.3277  1.5772
   29DOPE   C28 3663  -3.545  -1.920   1.272  0.4412 -0.1874  0.3105
   29DOPE   H8R 3664  -3.639  -1.966   1.233  0.5589  0.0120 -0.2143
   29DOPE   H8S 3665  -3.478  -2.008   1.284  1.4498  0.6497  0.9548
   29DOPE   C29 3666  -3.483  -1.835   1.167 -0.6230  0.3796 -0.5419
   29DOPE   H9R 3667  -3.375  -1.812   1.173 -0.4901 -0.3975  0.5662
   29DOPE  C210 3668  -3.543  -1.764   1.071 -0.2740  0.1902  0.2294
   29DOPE  H10R 3669  -3.472  -1.709   1.008  1.7867 -2.5263 -0.0102
   29DOPE  C211 3670  -3.689  -1.754   1.033 -0.7378  0.8292 -0.1200
   29DOPE  H11R 3671  -3.753  -1.761   1.124  1.3136  2.6340  1.5760
   29DOPE  H11S 3672  -3.717  -1.844   0.975 -0.8146  1.1138 -0.5274
   29DOPE  C212 3673  -3.730  -1.627   0.962 -0.2148 -0.0702  0.0509
   29DOPE  H12R 3674  -3.659  -1.607   0.879  0.2044 -2.7074 -0.3077
   29DOPE  H12S 3675  -3.728  -1.547   1.039 -0.8597 -1.0066  1.0823
   29DOPE  C213 3676  -3.870  -1.651   0.907  0.5077  0.4125  0.6709
   29DOPE  H13R 3677  -3.948  -1.649   0.986  0.7603  0.6091  0.9166
   29DOPE  H13S 3678  -3.875  -1.749   0.854 -0.4686  1.8044 -1.9874
   29DOPE  C214 3679  -3.902  -1.550   0.796 -0.5468 -0.4051  0.3671
   29DOPE  H14R 3680  -3.817  -1.549   0.725 -1.7828  0.6078 -1.1760
   29DOPE  H14S 3681  -3.903  -1.446   0.834  1.8836 -0.4059  0.5892
   29DOPE  C215 3682  -4.023  -1.579   0.711  0.4493 -0.1085  0.6381
   29DOPE  H15R 3683  -4.110  -1.585   0.780  0.1960  0.7546  0.4114
   29DOPE  H15S 3684  -4.001  -1.674   0.659 -1.8628  0.7555 -2.1968
   29DOPE  C216 3685  -4.054  -1.471   0.607 -0.3934 -0.2308  0.3086
   29DOPE  H16R 3686  -3.965  -1.445   0.547 -2.3629  0.2189 -2.6123
   29DOPE  H16S 3687  -4.108  -1.392   0.663 -1.8208 -0.2535 -0.9583
   29DOPE  C217 3688  -4.152  -1.508   0.494 -0.2933 -0.5835 -0.1417
   29DOPE  H17R 3689  -4.185  -1.421   0.433  1.1015 -1.0140 -1.5678
   29DOPE  H17S 3690  -4.250  -1.546   0.531 -0.0818  0.7784  2.0034
   29DOPE  C218 3691  -4.105  -1.602   0.381 -0.0819 -0.7708  0.0594
   29DOPE  H18R 3692  -4.007  -1.568   0.340  0.7387 -1.3211  1.5018
   29DOPE  H18S 3693  -4.177  -1.605   0.296 -1.9141  0.1677  1.5085
   29DOPE  H18T 3694  -4.092  -1.709   0.405  3.7985 -0.7125 -1.0813
   29DOPE   C33 3695  -3.497  -1.483   2.045 -0.4365  0.0615  0.3270
   29DOPE   H3X 3696  -3.454  -1.457   2.144  0.6195 -0.3155 -0.0228
   29DOPE   H3Y 3697  -3.603  -1.450   2.034  0.1237  1.8965  0.0334
   29DOPE   C34 3698  -3.398  -1.408   1.955 -0.1053 -0.6370 -0.0685
   29DOPE   H4X 3699  -3.419  -1.300   1.970  0.6705 -0.3010 -1.2722
   29DOPE   H4Y 3700  -3.297  -1.433   1.995  0.7578  0.7380 -1.2679
   29DOPE   C35 3701  -3.413  -1.440   1.807 -0.2554 -0.6819  0.9140
   29DOPE   H5X 3702  -3.378  -1.544   1.789 -0.1959 -0.2859 -1.5650
   29DOPE   H5Y 3703  -3.348  -1.367   1.753 -1.2207 -0.4848  0.0038
   29DOPE   C36 3704  -3.549  -1.433   1.739  0.7899 -0.5571  0.0098
   29DOPE   H6X 3705  -3.569  -1.326   1.715 -0.5130 -0.5753  0.8600
   29DOPE   H6Y 3706  -3.626  -1.462   1.814 -0.8289  1.8710 -0.6003
   29DOPE   C37 3707  -3.556  -1.490   1.593 -0.6802  0.1596  0.2278
   29DOPE   H7X 3708  -3.536  -1.598   1.614  0.2588  0.4177  0.6842
   29DOPE   H7Y 3709  -3.657  -1.494   1.548  0.3083  2.8354 -2.5686
   29DOPE   C38 3710  -3.456  -1.433   1.487 -0.0833 -0.3147  0.1438
   29DOPE   H8X 3711  -3.443  -1.510   1.408 -0.9747  2.0350 -2.4993
   29DOPE   H8Y 3712  -3.358  -1.417   1.535 -0.8851 -0.1180  1.7693
   29DOPE   C39 3713  -3.518  -1.305   1.437  0.0488  0.3495  0.1065
   29DOPE   H9X 3714  -3.538  -1.240   1.524  0.9417 -1.2156  1.5495
   29DOPE  C310 3715  -3.530  -1.268   1.308 -0.6107 -0.0403 -0.3558
   29DOPE  H10X 3716  -3.574  -1.170   1.285 -0.0725  0.7453  1.7472
   29DOPE  C311 3717  -3.475  -1.342   1.190  0.0386 -0.1055 -0.6065
   29DOPE  H11X 3718  -3.366  -1.322   1.185 -0.3829  2.8622 -0.0874
   29DOPE  H11Y 3719  -3.488  -1.452   1.191 -0.3516 -0.1440 -2.9092
   29DOPE  C312 3720  -3.541  -1.289   1.066 -0.0069 -0.5926  0.3496
   29DOPE  H12X 3721  -3.528  -1.178   1.061  0.9003 -0.6963  0.2469
   29DOPE  H12Y 3722  -3.646  -1.323   1.054 -0.2798 -0.0327  1.0967
   29DOPE  C313 3723  -3.476  -1.337   0.932  0.0030 -0.1883 -0.5688
   29DOPE  H13X 3724  -3.374  -1.296   0.920 -0.8737  2.9787  1.5493
   29DOPE  H13Y 3725  -3.478  -1.448   0.941 -2.2514 -0.2139 -0.7921
   29DOPE  C314 3726  -3.561  -1.316   0.807  0.1901  0.1742  0.7629
   29DOPE  H14X 3727  -3.575  -1.208   0.788  0.7859  0.0670 -0.3983
   29DOPE  H14Y 3728  -3.660  -1.367   0.808  1.1631 -1.8303  0.1023
   29DOPE  C315 3729  -3.488  -1.387   0.692 -0.4529  0.4504  0.2046
   29DOPE  H15X 3730  -3.447  -1.484   0.726  0.8072 -0.0172 -2.3779
   29DOPE  H15Y 3731  -3.395  -1.335   0.660  0.9629 -2.3468 -0.5496
   29DOPE  C316 3732  -3.572  -1.420   0.566 -0.5360 -0.3863  0.3511
   29DOPE  H16X 3733  -3.668  -1.468   0.594 -0.9947  1.2026  1.7068
   29DOPE  H16Y 3734  -3.518  -1.496   0.505  2.0589  1.9196 -0.4534
   29DOPE  C317 3735  -3.602  -1.299   0.476 -0.2830  0.3465  0.2890
   29DOPE  H17X 3736  -3.560  -1.203   0.514  0.1228  0.5360 -0.6232
   29DOPE  H17Y 3737  -3.552  -1.321   0.380 -2.1418 -1.8407 -0.2616
   29DOPE  C318 3738  -3.752  -1.270   0.445 -0.3123 -0.7567  0.0829
   29DOPE  H18X 3739  -3.791  -1.344   0.372  0.9079 -2.2993  0.9270
   29DOPE  H18Y 3740  -3.819  -1.253   0.532 -0.9656  2.4086 -0.8986
   29DOPE  H18Z 3741  -3.744  -1.173   0.391 -0.5163 -0.7999 -0.0226
   30DOPE     N 3742  -1.663  -2.945   2.441  0.4565  0.4446  0.2886
   30DOPE   HN1 3743  -1.591  -2.924   2.370 -1.2697  1.8377 -1.1642
   30DOPE   HN2 3744  -1.680  -3.048   2.444  0.3391  0.4622  0.2155
   30DOPE   HN3 3745  -1.745  -2.905   2.391  0.7887  0.0433 -0.5972
   30DOPE   C12 3746  -1.630  -2.887   2.576  0.3553 -1.2168  0.6564
   30DOPE  H12A 3747  -1.617  -2.777   2.573  0.6587 -1.2166  1.5501
   30DOPE  H12B 3748  -1.541  -2.938   2.618  2.1119  0.9543 -0.2567
   30DOPE   C11 3749  -1.747  -2.907   2.675  0.0508  0.4541 -0.3033
   30DOPE  H11A 3750  -1.714  -2.870   2.775  0.3051 -1.3511  0.3150
   30DOPE  H11B 3751  -1.768  -3.013   2.698 -1.2797  1.1194  1.8584
   30DOPE     P 3752  -1.924  -2.713   2.674  0.0156 -0.1741  0.0464
   30DOPE   O13 3753  -1.817  -2.607   2.670 -0.3273  0.6905  0.1090
   30DOPE   O14 3754  -1.994  -2.726   2.806 -0.1024 -0.3915  0.5831
   30DOPE   O11 3755  -2.030  -2.680   2.561  0.2245 -0.2861  0.3830
   30DOPE   O12 3756  -1.867  -2.849   2.618  0.2529  0.1688 -0.3425
   30DOPE    C1 3757  -2.142  -2.760   2.530  0.3130 -0.1737 -0.0297
   30DOPE    HA 3758  -2.234  -2.699   2.530 -0.2145 -0.9488 -0.8055
   30DOPE    HB 3759  -2.153  -2.850   2.594 -1.7723 -0.5615 -0.8526
   30DOPE    C2 3760  -2.142  -2.817   2.385  0.0897  0.0213 -0.5695
   30DOPE    HS 3761  -2.080  -2.909   2.375 -1.8085 -1.1986 -1.6074
   30DOPE   O21 3762  -2.083  -2.720   2.297 -0.7533  0.1227  0.3692
   30DOPE   C21 3763  -1.954  -2.737   2.258 -0.1722 -0.1213 -0.7871
   30DOPE   O22 3764  -1.888  -2.837   2.279 -0.3696 -0.0360 -0.2438
   30DOPE   C22 3765  -1.908  -2.615   2.186 -0.0816 -0.3310  0.3392
   30DOPE   H2R 3766  -1.807  -2.636   2.145 -0.1501 -0.7536  0.3870
   30DOPE   H2S 3767  -1.900  -2.539   2.268 -0.5872 -0.1905  0.2652
   30DOPE    C3 3768  -2.284  -2.856   2.344 -0.5503 -0.4340 -0.3192
   30DOPE    HX 3769  -2.340  -2.760   2.340  1.6580  0.8723 -2.0622
   30DOPE    HY 3770  -2.335  -2.928   2.412 -2.2910  1.0839  0.0387
   30DOPE   O31 3771  -2.285  -2.909   2.211  0.7399  0.3076  0.2646
   30DOPE   C31 3772  -2.316  -2.826   2.114 -0.1344  0.6437  0.3308
   30DOPE   O32 3773  -2.366  -2.712   2.125 -0.2415  0.2212 -0.1524
   30DOPE   C32 3774  -2.272  -2.892   1.979  0.1972 -0.4038 -0.0119
   30DOPE   H2X 3775  -2.162  -2.904   1.982  0.0108 -2.4582  0.1181
   30DOPE   H2Y 3776  -2.330  -2.987   1.980 -1.4203  0.5012  2.3946
   30DOPE   C23 3777  -1.998  -2.563   2.069  0.5937  0.4992 -1.2882
   30DOPE   H3R 3778  -2.102  -2.558   2.106  0.7725  0.4979 -0.7768
   30DOPE   H3S 3779  -2.007  -2.647   1.997  0.2936 -1.6783  1.1565
   30DOPE   C24 3780  -1.951  -2.428   2.006  0.2923  0.2369 -0.2283
   30DOPE   H4R 3781  -1.842  -2.432   1.987  0.4976 -0.4741  1.0480
   30DOPE   H4S 3782  -1.971  -2.346   2.078  1.5558  1.2201 -0.9545
   30DOPE   C25 3783  -2.028  -2.394   1.878 -0.6332  0.5910 -0.2408
   30DOPE   H5R 3784  -2.033  -2.284   1.861 -1.7234  0.7108  0.7501
   30DOPE   H5S 3785  -2.132  -2.434   1.875 -0.6187  0.5898 -1.5270
   30DOPE   C26 3786  -1.948  -2.438   1.752 -0.2671 -0.8967  0.2572
   30DOPE   H6R 3787  -1.907  -2.538   1.779 -0.8276 -0.8799  1.2179
   30DOPE   H6S 3788  -1.859  -2.372   1.746 -0.5091 -0.6577 -0.9121
   30DOPE   C27 3789  -2.028  -2.427   1.624  0.5124 -0.3903 -0.6116
   30DOPE   H7R 3790  -2.037  -2.318   1.606  1.1528  0.0485  1.4610
   30DOPE   H7S 3791  -2.127  -2.466   1.656  0.3099  1.6001  1.4778
   30DOPE   C28 3792  -1.964  -2.489   1.500  0.1192  0.2544 -0.5502
   30DOPE   H8R 3793  -2.024  -2.462   1.411 -0.1012 -1.0607 -0.8222
   30DOPE   H8S 3794  -1.958  -2.599   1.514 -0.4664  0.1931 -0.7536
   30DOPE   C29 3795  -1.821  -2.442   1.476  0.1485 -0.9475  0.8014
   30DOPE   H9R 3796  -1.764  -2.414   1.566  1.6104  2.2393 -0.9383
   30DOPE  C210 3797  -1.757  -2.409   1.359 -0.6585 -0.5907 -0.4809
   30DOPE  H10R 3798  -1.660  -2.357   1.362 -0.9675  0.1043 -1.8837
   30DOPE  C211 3799  -1.819  -2.411   1.218  0.0597  0.8159 -0.4147
   30DOPE  H11R 3800  -1.927  -2.440   1.221 -0.1694  1.6301 -0.5139
   30DOPE  H11S 3801  -1.760  -2.481   1.156 -0.0271  1.0632 -0.7788
   30DOPE  C212 3802  -1.801  -2.269   1.149 -0.3583  0.5076  0.0231
   30DOPE  H12R 3803  -1.696  -2.232   1.157 -0.0623  1.2542 -4.6348
   30DOPE  H12S 3804  -1.869  -2.197   1.200 -2.0187 -1.6114  0.9422
   30DOPE  C213 3805  -1.824  -2.272   1.002 -0.1252  0.2396 -0.1564
   30DOPE  H13R 3806  -1.777  -2.361   0.956  0.2652  0.9448 -1.1480
   30DOPE  H13S 3807  -1.784  -2.184   0.947  1.0539 -1.1727 -1.6414
   30DOPE  C214 3808  -1.973  -2.294   0.972  0.0357 -0.5943  0.4913
   30DOPE  H14R 3809  -2.039  -2.227   1.032 -1.7672 -1.5996 -0.2967
   30DOPE  H14S 3810  -2.008  -2.391   1.014  1.9795 -1.8142 -0.5477
   30DOPE  C215 3811  -2.012  -2.281   0.823  0.4380  0.2391  0.6702
   30DOPE  H15R 3812  -2.123  -2.275   0.825  0.4514  0.4000  1.1678
   30DOPE  H15S 3813  -1.980  -2.366   0.759 -1.6513 -1.2532  1.4873
   30DOPE  C216 3814  -1.965  -2.151   0.762  0.1595  0.3051 -0.5289
   30DOPE  H16R 3815  -1.860  -2.165   0.729  0.0934 -1.9377  0.0509
   30DOPE  H16S 3816  -1.967  -2.068   0.836  0.0970 -1.3687  1.4291
   30DOPE  C217 3817  -2.051  -2.105   0.644 -0.9803  0.1096  0.0128
   30DOPE  H17R 3818  -2.020  -2.000   0.623  0.7545 -0.5052 -0.6972
   30DOPE  H17S 3819  -2.156  -2.096   0.680 -0.6657  1.7650  0.6061
   30DOPE  C218 3820  -2.057  -2.206   0.527 -0.1465 -0.8042  0.5482
   30DOPE  H18R 3821  -2.139  -2.172   0.461  0.9496  2.0063  0.4952
   30DOPE  H18S 3822  -2.077  -2.308   0.566 -0.1072 -0.8316  0.4981
   30DOPE  H18T 3823  -1.964  -2.217   0.466 -0.2246  1.7835 -0.1712
   30DOPE   C33 3824  -2.316  -2.810   1.858 -0.5823  0.1397 -0.5462
   30DOPE   H3X 3825  -2.269  -2.711   1.877 -0.7498 -0.1929  1.8644
   30DOPE   H3Y 3826  -2.426  -2.798   1.855 -1.2694 -4.0314  1.3696
   30DOPE   C34 3827  -2.257  -2.874   1.729  0.2404  0.5036  0.4672
   30DOPE   H4X 3828  -2.147  -2.892   1.735  0.1782  0.2876  1.0103
   30DOPE   H4Y 3829  -2.309  -2.973   1.733  1.0929 -0.1192 -1.9166
   30DOPE   C35 3830  -2.308  -2.791   1.612  0.8815 -0.2147 -0.0975
   30DOPE   H5X 3831  -2.274  -2.687   1.628  0.3608 -0.1152  0.3785
   30DOPE   H5Y 3832  -2.417  -2.797   1.594  0.8146 -0.6549  0.4121
   30DOPE   C36 3833  -2.233  -2.833   1.489  0.3255  0.2127  0.2043
   30DOPE   H6X 3834  -2.250  -2.938   1.458 -1.5647  0.2754  0.8775
   30DOPE   H6Y 3835  -2.125  -2.816   1.509 -0.0802  0.4418  2.4173
   30DOPE   C37 3836  -2.287  -2.767   1.360 -0.2220  0.8346 -0.1051
   30DOPE   H7X 3837  -2.389  -2.804   1.337  0.0636 -1.5134  1.9075
   30DOPE   H7Y 3838  -2.286  -2.656   1.369 -0.9997  0.8443 -0.1107
   30DOPE   C38 3839  -2.202  -2.811   1.236 -0.2161 -0.3878 -0.6894
   30DOPE   H8X 3840  -2.202  -2.919   1.211  3.0727 -0.6296  0.0081
   30DOPE   H8Y 3841  -2.098  -2.788   1.266 -0.6424  0.4791  0.1886
   30DOPE   C39 3842  -2.248  -2.735   1.113  0.1648  0.9304  0.1568
   30DOPE   H9X 3843  -2.354  -2.707   1.120 -0.6443 -1.4021 -1.6328
   30DOPE  C310 3844  -2.192  -2.719   0.991 -0.8023  0.7764  0.0036
   30DOPE  H10X 3845  -2.242  -2.655   0.918 -2.2796  1.3039  1.4249
   30DOPE  C311 3846  -2.046  -2.758   0.962 -0.6478 -0.8583  0.1604
   30DOPE  H11X 3847  -1.984  -2.666   0.954  0.0566 -1.3356 -0.0028
   30DOPE  H11Y 3848  -2.006  -2.816   1.048 -0.8591 -2.9210 -1.0682
   30DOPE  C312 3849  -2.042  -2.831   0.833  0.6244  0.5388 -0.1739
   30DOPE  H12X 3850  -2.109  -2.919   0.831  0.1843  0.8769 -1.8810
   30DOPE  H12Y 3851  -1.940  -2.874   0.821 -0.1210 -0.8234 -2.4607
   30DOPE  C313 3852  -2.090  -2.745   0.712 -0.3687  0.2722 -0.6332
   30DOPE  H13X 3853  -2.197  -2.715   0.721  0.4448  3.1488  0.3292
   30DOPE  H13Y 3854  -2.032  -2.651   0.706  0.8980 -0.5179 -1.1878
   30DOPE  C314 3855  -2.052  -2.814   0.586 -0.4540 -0.1847  0.2960
   30DOPE  H14X 3856  -2.115  -2.905   0.579  0.7312 -1.1192  1.2852
   30DOPE  H14Y 3857  -1.947  -2.845   0.603 -0.2617  0.4874  0.3967
   30DOPE  C315 3858  -2.056  -2.721   0.465  0.0312 -0.0234 -0.3667
   30DOPE  H15X 3859  -2.003  -2.626   0.485 -1.3567  0.7550 -0.3299
   30DOPE  H15Y 3860  -2.162  -2.695   0.446 -0.6330 -1.3062  1.3360
   30DOPE  C316 3861  -2.009  -2.778   0.331 -0.8986 -0.1291 -0.0094
   30DOPE  H16X 3862  -2.019  -2.690   0.263 -2.3115 -1.3891 -1.5144
   30DOPE  H16Y 3863  -2.079  -2.859   0.303  0.9529 -2.4643  1.7360
   30DOPE  C317 3864  -1.868  -2.837   0.334  0.2515 -0.7407  0.0933
   30DOPE  H17X 3865  -1.814  -2.776   0.410 -1.8158  2.2944 -0.7088
   30DOPE  H17Y 3866  -1.876  -2.945   0.361 -1.6672 -0.9119 -1.0059
   30DOPE  C318 3867  -1.792  -2.833   0.197 -0.3951  1.0654  0.1867
   30DOPE  H18X 3868  -1.818  -2.931   0.152  0.3527  0.8627  0.1938
   30DOPE  H18Y 3869  -1.810  -2.749   0.126  1.4747 -0.2255 -1.9319
   30DOPE  H18Z 3870  -1.682  -2.837   0.210 -0.4769  0.9314  0.8511
   31DOPE     N 3871  -1.934   1.346  -2.443  0.2637 -0.2955  0.3036
   31DOPE   HN1 3872  -1.939   1.446  -2.413 -0.9200 -0.3275  0.2507
   31DOPE   HN2 3873  -1.904   1.300  -2.354  0.4785  0.4651  0.6361
   31DOPE   HN3 3874  -1.856   1.338  -2.512  0.9228 -1.5243  1.1459
   31DOPE   C12 3875  -2.074   1.304  -2.494 -0.5496  0.3113 -0.0856
   31DOPE  H12A 3876  -2.108   1.385  -2.562 -0.7338  0.7022  0.4593
   31DOPE  H12B 3877  -2.145   1.307  -2.408 -0.3863 -0.3173  0.0713
   31DOPE   C11 3878  -2.082   1.163  -2.555  0.5382  0.2570  0.2355
   31DOPE  H11A 3879  -2.018   1.151  -2.645  2.5062  0.0097  1.5932
   31DOPE  H11B 3880  -2.185   1.136  -2.587  1.4178 -1.1529 -1.6019
   31DOPE     P 3881  -2.027   0.918  -2.480  0.3713  0.1453 -0.2401
   31DOPE   O13 3882  -1.882   0.886  -2.480  0.0295 -0.3612  0.1065
   31DOPE   O14 3883  -2.113   0.887  -2.593  0.1926 -0.2997 -0.6664
   31DOPE   O11 3884  -2.085   0.839  -2.357  0.0629  0.0782  0.0038
   31DOPE   O12 3885  -2.046   1.067  -2.450 -0.4381 -0.3117  0.3069
   31DOPE    C1 3886  -2.120   0.903  -2.233  1.3056 -0.4701  0.0720
   31DOPE    HA 3887  -2.203   0.846  -2.188 -0.5944  0.8565 -1.5740
   31DOPE    HB 3888  -2.157   1.006  -2.253 -0.0998 -0.7678  1.0174
   31DOPE    C2 3889  -1.999   0.920  -2.140 -0.7619  0.9606 -0.8752
   31DOPE    HS 3890  -1.917   0.974  -2.193  0.4623  0.7956  0.7885
   31DOPE   O21 3891  -1.957   0.790  -2.097 -0.4055 -0.3813  0.0340
   31DOPE   C21 3892  -1.823   0.770  -2.078 -0.0297  0.3931 -0.2731
   31DOPE   O22 3893  -1.738   0.847  -2.113 -0.3695 -0.2765  0.3371
   31DOPE   C22 3894  -1.802   0.632  -2.022 -0.0048 -0.3222  0.4973
   31DOPE   H2R 3895  -1.826   0.561  -2.104 -1.3786  0.9738 -0.2614
   31DOPE   H2S 3896  -1.879   0.607  -1.946  0.1176  0.3998  0.8725
   31DOPE    C3 3897  -2.026   1.003  -2.009  0.1778  0.5431  0.0011
   31DOPE    HX 3898  -2.059   1.100  -2.051 -3.6242 -0.4307  0.3950
   31DOPE    HY 3899  -1.935   1.030  -1.952  1.4151 -0.4521 -1.4352
   31DOPE   O31 3900  -2.131   0.946  -1.923 -0.6391  0.8559 -0.1738
   31DOPE   C31 3901  -2.088   0.873  -1.812  0.2397  0.1053  0.4190
   31DOPE   O32 3902  -1.973   0.846  -1.783  0.5835 -0.1891  0.9057
   31DOPE   C32 3903  -2.211   0.807  -1.752  1.1176  0.5961 -0.0118
   31DOPE   H2X 3904  -2.269   0.892  -1.710  0.1230  0.9866 -2.0333
   31DOPE   H2Y 3905  -2.273   0.754  -1.827  1.7208 -0.4804  0.2284
   31DOPE   C23 3906  -1.657   0.614  -1.972  0.7405 -0.0646  0.1330
   31DOPE   H3R 3907  -1.582   0.649  -2.047  1.2086 -1.3006 -0.0110
   31DOPE   H3S 3908  -1.613   0.512  -1.968  0.5678 -0.1150  0.7946
   31DOPE   C24 3909  -1.627   0.677  -1.834 -0.5580 -0.2813  0.1329
   31DOPE   H4R 3910  -1.644   0.787  -1.837  0.0175 -0.1314  1.4813
   31DOPE   H4S 3911  -1.521   0.665  -1.804 -0.6860  2.3175  2.0624
   31DOPE   C25 3912  -1.716   0.617  -1.723 -0.2888 -0.3704  0.2773
   31DOPE   H5R 3913  -1.710   0.506  -1.727  0.9949 -0.3524  1.1034
   31DOPE   H5S 3914  -1.822   0.645  -1.744  0.1185 -1.3488 -3.8342
   31DOPE   C26 3915  -1.680   0.680  -1.585  0.0243  0.1573  0.5770
   31DOPE   H6R 3916  -1.683   0.791  -1.590 -0.9529  0.1651  1.0406
   31DOPE   H6S 3917  -1.575   0.657  -1.558  0.9301  2.4391 -0.7300
   31DOPE   C27 3918  -1.780   0.631  -1.473  0.6446  0.5399 -0.4461
   31DOPE   H7R 3919  -1.760   0.524  -1.451 -3.0430 -0.4000 -1.0753
   31DOPE   H7S 3920  -1.887   0.641  -1.501  0.6687  1.7015 -0.1882
   31DOPE   C28 3921  -1.771   0.707  -1.340 -0.3745  0.3949  0.4024
   31DOPE   H8R 3922  -1.828   0.642  -1.271  2.5191 -0.7692  1.8978
   31DOPE   H8S 3923  -1.833   0.799  -1.342 -1.5779 -0.3412  1.9578
   31DOPE   C29 3924  -1.637   0.735  -1.278  0.0339 -0.2547  0.2178
   31DOPE   H9R 3925  -1.556   0.756  -1.351  0.8861 -1.4234  0.7925
   31DOPE  C210 3926  -1.598   0.726  -1.151 -0.1020  0.2499 -0.7646
   31DOPE  H10R 3927  -1.513   0.787  -1.118 -2.0967  3.0477 -0.3982
   31DOPE  C211 3928  -1.694   0.694  -1.041  0.2876 -0.2960 -0.0251
   31DOPE  H11R 3929  -1.690   0.583  -1.027  1.8449 -0.5244 -1.8446
   31DOPE  H11S 3930  -1.802   0.704  -1.064  0.1062 -2.5354 -0.4563
   31DOPE  C212 3931  -1.657   0.752  -0.902 -0.4033 -0.4331  0.8237
   31DOPE  H12R 3932  -1.672   0.862  -0.901  4.0127  0.3553 -0.3676
   31DOPE  H12S 3933  -1.548   0.750  -0.884 -0.0952 -1.9627 -0.9193
   31DOPE  C213 3934  -1.728   0.689  -0.790 -0.2044 -0.9151 -0.8399
   31DOPE  H13R 3935  -1.712   0.580  -0.799  0.4204 -1.1349  2.0037
   31DOPE  H13S 3936  -1.836   0.712  -0.789  0.2626  1.6071  0.7874
   31DOPE  C214 3937  -1.670   0.714  -0.649  0.7645  0.7136 -0.4185
   31DOPE  H14R 3938  -1.702   0.815  -0.615 -0.6045  0.9099 -2.1098
   31DOPE  H14S 3939  -1.560   0.702  -0.652  0.4388 -3.4647 -1.4292
   31DOPE  C215 3940  -1.726   0.606  -0.553 -0.1999  0.4661  0.3941
   31DOPE  H15R 3941  -1.721   0.508  -0.604 -1.0927  1.0848 -0.9402
   31DOPE  H15S 3942  -1.833   0.625  -0.526 -0.4756  2.3687 -1.7639
   31DOPE  C216 3943  -1.650   0.611  -0.418  0.4371  0.3978  0.1937
   31DOPE  H16R 3944  -1.653   0.709  -0.365  1.3720  0.7457 -0.3621
   31DOPE  H16S 3945  -1.543   0.591  -0.441  0.1900  0.1551 -0.7910
   31DOPE  C217 3946  -1.711   0.515  -0.320 -0.0652  0.0855 -0.5262
   31DOPE  H17R 3947  -1.806   0.566  -0.293  0.5785  0.9135  0.2404
   31DOPE  H17S 3948  -1.649   0.500  -0.229 -1.3550 -0.5887  0.2693
   31DOPE  C218 3949  -1.745   0.374  -0.374 -0.1431  0.2940  0.4579
   31DOPE  H18R 3950  -1.661   0.348  -0.442  1.0692  1.1323  1.5798
   31DOPE  H18S 3951  -1.840   0.383  -0.431  0.1084  1.8466  0.2148
   31DOPE  H18T 3952  -1.760   0.307  -0.287 -0.9555  2.6604  2.2685
   31DOPE   C33 3953  -2.171   0.716  -1.635  0.2062  1.0311 -0.2500
   31DOPE   H3X 3954  -2.092   0.646  -1.671 -0.1576  0.0260  0.8494
   31DOPE   H3Y 3955  -2.257   0.650  -1.617  0.4071  0.3858 -1.5186
   31DOPE   C34 3956  -2.136   0.799  -1.514  0.2473  0.1262  0.9904
   31DOPE   H4X 3957  -2.033   0.837  -1.528  0.3132 -0.4755 -0.3203
   31DOPE   H4Y 3958  -2.204   0.887  -1.508 -2.6611 -1.6326 -2.5411
   31DOPE   C35 3959  -2.148   0.719  -1.379  0.9656  0.3929  1.0562
   31DOPE   H5X 3960  -2.073   0.638  -1.391  1.1813  0.4623  1.8656
   31DOPE   H5Y 3961  -2.251   0.677  -1.376  1.0077  0.2333  0.3938
   31DOPE   C36 3962  -2.122   0.803  -1.254 -0.2023  0.6303 -0.8887
   31DOPE   H6X 3963  -2.205   0.877  -1.261  1.1613  2.5491  1.7636
   31DOPE   H6Y 3964  -2.028   0.860  -1.265 -0.3466  0.9305 -0.5719
   31DOPE   C37 3965  -2.120   0.721  -1.119 -0.3212 -0.5035  0.0147
   31DOPE   H7X 3966  -2.215   0.676  -1.083 -0.3559 -1.2260 -0.9546
   31DOPE   H7Y 3967  -2.048   0.642  -1.150  1.7923  1.8020 -1.3167
   31DOPE   C38 3968  -2.072   0.804  -0.999 -0.8296  0.6352 -0.6453
   31DOPE   H8X 3969  -1.986   0.866  -1.031 -1.4915  0.5819 -2.6450
   31DOPE   H8Y 3970  -2.038   0.734  -0.919 -0.6298  0.0107 -1.2620
   31DOPE   C39 3971  -2.182   0.892  -0.941 -1.1567 -0.2039  0.5180
   31DOPE   H9X 3972  -2.244   0.943  -1.016  2.4152  2.1079 -1.1329
   31DOPE  C310 3973  -2.212   0.910  -0.808 -0.2841 -0.2128  0.6981
   31DOPE  H10X 3974  -2.294   0.975  -0.774  0.0930  0.6370  0.0143
   31DOPE  C311 3975  -2.135   0.850  -0.693 -0.2322  0.2596 -0.6409
   31DOPE  H11X 3976  -2.032   0.823  -0.726  0.8239  2.3822  0.7272
   31DOPE  H11Y 3977  -2.112   0.926  -0.617  2.1454 -1.4042  0.4132
   31DOPE  C312 3978  -2.210   0.737  -0.619 -0.2935 -1.0529  0.6913
   31DOPE  H12X 3979  -2.254   0.672  -0.697 -0.5292  1.0345 -1.0229
   31DOPE  H12Y 3980  -2.296   0.777  -0.560  0.0418 -2.3237  2.1029
   31DOPE  C313 3981  -2.117   0.658  -0.519 -0.3269  0.6058  0.0352
   31DOPE  H13X 3982  -2.029   0.609  -0.564 -1.2997 -2.3182  1.1206
   31DOPE  H13Y 3983  -2.072   0.732  -0.449  2.5448  0.8258 -1.8514
   31DOPE  C314 3984  -2.207   0.555  -0.441 -0.3371 -0.5337 -0.2063
   31DOPE  H14X 3985  -2.252   0.490  -0.519 -0.4896  1.2375 -1.6754
   31DOPE  H14Y 3986  -2.285   0.614  -0.387  0.3644 -0.0693  0.3099
   31DOPE  C315 3987  -2.121   0.474  -0.342 -0.6098  0.2831 -0.0913
   31DOPE  H15X 3988  -2.054   0.528  -0.272 -3.2337  0.2579  2.6320
   31DOPE  H15Y 3989  -2.055   0.413  -0.408 -0.6424  1.2535 -1.0495
   31DOPE  C316 3990  -2.210   0.385  -0.243 -0.2321 -0.2023 -0.0206
   31DOPE  H16X 3991  -2.147   0.347  -0.159 -1.6250 -0.3142  1.0186
   31DOPE  H16Y 3992  -2.256   0.305  -0.305 -1.4127  0.8421 -0.5351
   31DOPE  C317 3993  -2.312   0.459  -0.155 -0.5896 -0.1306  0.2614
   31DOPE  H17X 3994  -2.264   0.546  -0.105  3.3428 -1.7779 -0.3050
   31DOPE  H17Y 3995  -2.390   0.493  -0.227 -0.7735 -1.6381 -0.2819
   31DOPE  C318 3996  -2.372   0.365  -0.050 -0.2567 -0.7286  1.0977
   31DOPE  H18X 3997  -2.436   0.424   0.019  0.7032 -0.1595  1.5422
   31DOPE  H18Y 3998  -2.428   0.286  -0.103  1.2304  0.3278 -2.3071
   31DOPE  H18Z 3999  -2.289   0.318   0.008  0.2257 -1.9323 -0.5014
   32DOPE     N 4000  -0.419   0.391  -2.862  0.0273  0.0487 -0.1262
   32DOPE   HN1 4001  -0.382   0.445  -2.781  2.3444 -0.2990 -0.8561
   32DOPE   HN2 4002  -0.521   0.382  -2.847 -0.3683 -0.9387 -2.7989
   32DOPE   HN3 4003  -0.365   0.302  -2.868  0.6917  0.4992 -1.1102
   32DOPE   C12 4004  -0.381   0.467  -2.985 -0.0714 -0.1427 -0.0432
   32DOPE  H12A 4005  -0.439   0.561  -2.992  2.1221  1.1443 -3.1582
   32DOPE  H12B 4006  -0.408   0.404  -3.072 -0.9044  1.4803 -1.0002
   32DOPE   C11 4007  -0.229   0.479  -2.982  0.0342 -0.1666  0.1713
   32DOPE  H11A 4008  -0.199   0.543  -2.896  2.6276 -0.5796 -0.3600
   32DOPE  H11B 4009  -0.194   0.535  -3.071 -3.6572  0.4622 -1.0571
   32DOPE     P 4010  -0.015   0.330  -2.987 -0.0192  0.1671 -0.0769
   32DOPE   O13 4011   0.027   0.396  -3.115  0.5144  0.7869  0.5833
   32DOPE   O14 4012   0.000   0.186  -2.976 -0.0662  0.4073  0.4209
   32DOPE   O11 4013   0.049   0.398  -2.860  0.4283 -0.1895  0.1525
   32DOPE   O12 4014  -0.168   0.353  -2.963 -0.6857 -0.2829  0.3915
   32DOPE    C1 4015  -0.017   0.391  -2.729  0.5276 -0.6081  0.3139
   32DOPE    HA 4016  -0.127   0.402  -2.743  0.7377  2.7271  0.5463
   32DOPE    HB 4017   0.028   0.471  -2.667 -0.3906  2.1997 -2.4132
   32DOPE    C2 4018   0.007   0.249  -2.670  0.1222 -0.5268  0.4569
   32DOPE    HS 4019  -0.021   0.171  -2.744  0.5445  0.6213 -0.9556
   32DOPE   O21 4020  -0.075   0.239  -2.553  0.3466 -0.0263  0.0251
   32DOPE   C21 4021  -0.198   0.212  -2.566  0.0991  0.3771 -0.4607
   32DOPE   O22 4022  -0.258   0.200  -2.673 -0.2898  0.7334  0.3860
   32DOPE   C22 4023  -0.260   0.199  -2.430 -0.7589  0.2555 -0.2102
   32DOPE   H2R 4024  -0.319   0.289  -2.402 -0.4251 -0.3601  2.7290
   32DOPE   H2S 4025  -0.180   0.185  -2.355  0.0459  2.4173 -0.5862
   32DOPE    C3 4026   0.152   0.236  -2.632 -0.4638 -0.2142 -0.1119
   32DOPE    HX 4027   0.193   0.308  -2.558  0.7345  0.3736 -1.2974
   32DOPE    HY 4028   0.205   0.261  -2.727 -3.1705  1.0225 -1.4116
   32DOPE   O31 4029   0.182   0.099  -2.601 -0.2582  0.0665 -0.2805
   32DOPE   C31 4030   0.170   0.065  -2.469 -0.4459 -0.2883  1.0292
   32DOPE   O32 4031   0.147   0.145  -2.383  0.0156  0.3003 -0.0264
   32DOPE   C32 4032   0.191  -0.088  -2.448  0.0153  0.4784 -0.3516
   32DOPE   H2X 4033   0.119  -0.140  -2.515 -1.4311  0.6078  1.0399
   32DOPE   H2Y 4034   0.295  -0.107  -2.481  0.1531  2.1119 -0.9438
   32DOPE   C23 4035  -0.336   0.070  -2.397  0.1077  0.1528  0.2120
   32DOPE   H3R 4036  -0.282  -0.021  -2.434  1.5553  0.2074  2.0480
   32DOPE   H3S 4037  -0.430   0.061  -2.455  0.6484 -1.3844 -0.4968
   32DOPE   C24 4038  -0.369   0.062  -2.250 -0.1273 -0.0036  0.8093
   32DOPE   H4R 4039  -0.434   0.148  -2.223  0.0441  0.4928 -0.3241
   32DOPE   H4S 4040  -0.272   0.061  -2.194  0.0389 -0.5962  0.5128
   32DOPE   C25 4041  -0.439  -0.070  -2.216  0.6497 -0.6469 -0.2833
   32DOPE   H5R 4042  -0.368  -0.153  -2.235 -0.8800 -1.6361 -1.9337
   32DOPE   H5S 4043  -0.518  -0.071  -2.294  0.2738 -3.2223  0.0496
   32DOPE   C26 4044  -0.507  -0.080  -2.074 -0.2487  0.3069 -0.6609
   32DOPE   H6R 4045  -0.551  -0.181  -2.067 -0.3107  0.4068  0.4669
   32DOPE   H6S 4046  -0.586  -0.004  -2.060 -0.0990  0.0273  2.1964
   32DOPE   C27 4047  -0.395  -0.052  -1.970 -0.5878 -0.2501 -0.3143
   32DOPE   H7R 4048  -0.373   0.057  -1.973 -0.1416 -0.3501 -0.8563
   32DOPE   H7S 4049  -0.302  -0.112  -1.984 -0.8485 -1.0909  1.3382
   32DOPE   C28 4050  -0.438  -0.067  -1.823 -0.3686  0.0831 -0.7119
   32DOPE   H8R 4051  -0.529  -0.003  -1.815 -1.2000 -1.3119  1.8574
   32DOPE   H8S 4052  -0.369  -0.017  -1.752 -0.7443 -0.3245 -0.0582
   32DOPE   C29 4053  -0.465  -0.205  -1.772  0.7584 -0.1081 -0.2127
   32DOPE   H9R 4054  -0.556  -0.251  -1.813  0.8043 -0.6007  0.2236
   32DOPE  C210 4055  -0.414  -0.269  -1.664  0.4507  0.1778 -0.8436
   32DOPE  H10R 4056  -0.442  -0.373  -1.645 -3.2976  1.2658  0.3353
   32DOPE  C211 4057  -0.308  -0.207  -1.572 -0.3364  0.2278 -0.2309
   32DOPE  H11R 4058  -0.304  -0.096  -1.571 -0.2971  0.2274 -0.3265
   32DOPE  H11S 4059  -0.206  -0.243  -1.594 -0.2817 -0.0647  0.4704
   32DOPE  C212 4060  -0.331  -0.238  -1.428 -0.1343 -0.0556  0.0803
   32DOPE  H12R 4061  -0.263  -0.176  -1.366  1.2651 -0.3221 -1.1312
   32DOPE  H12S 4062  -0.304  -0.344  -1.409 -2.4146 -0.6998  0.0801
   32DOPE  C213 4063  -0.476  -0.220  -1.382 -0.2234  0.1474  0.7187
   32DOPE  H13R 4064  -0.530  -0.313  -1.409  0.5145  0.1067 -0.6719
   32DOPE  H13S 4065  -0.532  -0.142  -1.437 -2.0978  0.7249  3.2298
   32DOPE  C214 4066  -0.493  -0.192  -1.238 -0.0876  0.0162 -0.2531
   32DOPE  H14R 4067  -0.600  -0.166  -1.232 -0.2291  0.0335 -2.3386
   32DOPE  H14S 4068  -0.429  -0.108  -1.203  0.4852 -0.8695  0.9136
   32DOPE  C215 4069  -0.436  -0.297  -1.148 -0.3949  0.5277  0.2271
   32DOPE  H15R 4070  -0.325  -0.291  -1.149 -0.3677  0.5683 -2.0055
   32DOPE  H15S 4071  -0.464  -0.396  -1.191 -0.5102  0.9567 -0.7174
   32DOPE  C216 4072  -0.493  -0.293  -1.004  0.2539 -0.3955 -0.2177
   32DOPE  H16R 4073  -0.604  -0.293  -1.002  0.1912  2.1259 -0.3256
   32DOPE  H16S 4074  -0.461  -0.195  -0.961  0.8224 -1.6671  2.5050
   32DOPE  C217 4075  -0.436  -0.408  -0.920 -0.0950  0.4817 -0.4474
   32DOPE  H17R 4076  -0.329  -0.422  -0.946 -0.4766 -2.3638 -0.8261
   32DOPE  H17S 4077  -0.490  -0.502  -0.944  1.2844 -0.7841  1.1602
   32DOPE  C218 4078  -0.438  -0.378  -0.769  0.1510  0.0739 -0.5144
   32DOPE  H18R 4079  -0.389  -0.281  -0.743  1.7702 -0.7440 -0.4007
   32DOPE  H18S 4080  -0.397  -0.466  -0.715 -1.5387 -0.4601 -0.0495
   32DOPE  H18T 4081  -0.541  -0.363  -0.729 -0.4964 -0.8684 -1.7617
   32DOPE   C33 4082   0.155  -0.137  -2.307  0.2873 -0.1423  0.1193
   32DOPE   H3X 4083   0.209  -0.068  -2.239  0.1133  1.4765 -1.3059
   32DOPE   H3Y 4084   0.197  -0.239  -2.290  2.8193  0.9246  0.7612
   32DOPE   C34 4085  -0.004  -0.131  -2.276  0.1075 -0.0272 -0.1575
   32DOPE   H4X 4086  -0.040  -0.026  -2.281  1.4622  0.4678  0.1590
   32DOPE   H4Y 4087  -0.049  -0.176  -2.368  1.2557  0.3422 -0.9117
   32DOPE   C35 4088  -0.042  -0.207  -2.144 -0.6084  0.2303  0.8037
   32DOPE   H5X 4089  -0.018  -0.316  -2.149 -0.0592  0.4067 -1.1205
   32DOPE   H5Y 4090  -0.152  -0.196  -2.129 -0.7428  1.7388 -0.9773
   32DOPE   C36 4091   0.032  -0.151  -2.022 -0.1277 -1.2318  0.2603
   32DOPE   H6X 4092  -0.003  -0.047  -2.004  2.5318 -0.4788  1.5516
   32DOPE   H6Y 4093   0.140  -0.139  -2.046 -0.3353  1.3077  0.3275
   32DOPE   C37 4094   0.004  -0.234  -1.897  0.4624  0.0719 -0.0012
   32DOPE   H7X 4095  -0.104  -0.218  -1.879  0.7492  0.2690  1.7689
   32DOPE   H7Y 4096   0.020  -0.344  -1.902  1.7931  0.3073 -2.3525
   32DOPE   C38 4097   0.079  -0.186  -1.771 -0.6030 -0.3238 -1.0521
   32DOPE   H8X 4098   0.005  -0.193  -1.689  0.2194  0.5323 -0.2065
   32DOPE   H8Y 4099   0.097  -0.076  -1.775 -0.1670 -0.2334  1.5822
   32DOPE   C39 4100   0.202  -0.263  -1.738  1.1316 -0.5470  0.3692
   32DOPE   H9X 4101   0.253  -0.301  -1.828  0.8610 -0.2978  0.1090
   32DOPE  C310 4102   0.253  -0.296  -1.618  0.8936  0.9546  0.6820
   32DOPE  H10X 4103   0.353  -0.342  -1.623 -0.0857 -1.3050  0.7582
   32DOPE  C311 4104   0.193  -0.282  -1.482 -0.4834  0.1528 -0.7188
   32DOPE  H11X 4105   0.273  -0.243  -1.416  0.0370 -2.2639  0.1789
   32DOPE  H11Y 4106   0.109  -0.209  -1.482  0.8600  1.7586 -0.4698
   32DOPE  C312 4107   0.152  -0.423  -1.423 -0.3186 -0.5604  1.0785
   32DOPE  H12X 4108   0.233  -0.496  -1.402 -2.0697 -2.0029  3.1950
   32DOPE  H12Y 4109   0.083  -0.457  -1.504 -0.6311  0.3445  0.9609
   32DOPE  C313 4110   0.080  -0.407  -1.285 -0.0701 -0.5564 -0.2361
   32DOPE  H13X 4111  -0.007  -0.340  -1.302  1.2899  1.4452  0.3063
   32DOPE  H13Y 4112   0.042  -0.502  -1.243 -1.3455 -0.4146 -1.0266
   32DOPE  C314 4113   0.168  -0.353  -1.174  0.0913 -0.4805  0.3340
   32DOPE  H14X 4114   0.177  -0.242  -1.180  1.3736 -0.4575  2.0827
   32DOPE  H14Y 4115   0.271  -0.390  -1.193  1.1516  1.7328  1.4279
   32DOPE  C315 4116   0.112  -0.379  -1.034 -0.4450  0.0875  0.0352
   32DOPE  H15X 4117   0.104  -0.488  -1.014  0.1082  0.1352  0.5751
   32DOPE  H15Y 4118   0.013  -0.331  -1.019 -0.2718  1.3217 -2.3894
   32DOPE  C316 4119   0.198  -0.308  -0.923  0.5612  1.1172 -0.0816
   32DOPE  H16X 4120   0.189  -0.199  -0.938  1.4501  1.1985 -0.0616
   32DOPE  H16Y 4121   0.305  -0.339  -0.928 -0.1459 -3.0106  3.3085
   32DOPE  C317 4122   0.153  -0.353  -0.779  0.4613  0.2755  0.5096
   32DOPE  H17X 4123   0.044  -0.333  -0.770 -0.1226 -1.9312 -0.7585
   32DOPE  H17Y 4124   0.167  -0.463  -0.767  0.9802  0.2469 -0.3224
   32DOPE  C318 4125   0.225  -0.283  -0.665 -0.3019 -0.2613 -0.1588
   32DOPE  H18X 4126   0.177  -0.302  -0.566  1.7360 -1.3720  0.6792
   32DOPE  H18Y 4127   0.332  -0.309  -0.653 -0.8197 -1.6010  2.2088
   32DOPE  H18Z 4128   0.222  -0.172  -0.676 -0.9476 -0.4163 -1.7928
   33DOPE     N 4129  -0.694   0.078  -2.738  0.1259 -0.6492  0.3604
   33DOPE   HN1 4130  -0.741   0.154  -2.685  1.2169  0.0197  0.3995
   33DOPE   HN2 4131  -0.681  -0.003  -2.674 -1.0191 -0.3582  0.9951
   33DOPE   HN3 4132  -0.602   0.104  -2.777 -0.1281 -0.2008  0.0504
   33DOPE   C12 4133  -0.788   0.032  -2.847 -0.1354 -0.1951  0.4636
   33DOPE  H12A 4134  -0.738  -0.035  -2.920 -0.1421  0.3888 -0.0858
   33DOPE  H12B 4135  -0.834   0.120  -2.898 -0.0072 -0.9907 -1.0580
   33DOPE   C11 4136  -0.902  -0.056  -2.781  1.0067 -0.4697 -0.2901
   33DOPE  H11A 4137  -0.963  -0.089  -2.868  0.2872 -0.0404  0.0405
   33DOPE  H11B 4138  -0.964   0.009  -2.715 -1.6941 -2.1217 -1.0075
   33DOPE     P 4139  -0.900  -0.309  -2.728 -0.0582 -0.0071  0.0632
   33DOPE   O13 4140  -0.814  -0.400  -2.651  0.6504 -0.1803  0.7173
   33DOPE   O14 4141  -0.932  -0.345  -2.869 -0.5040  0.0577 -0.1974
   33DOPE   O11 4142  -1.040  -0.309  -2.654 -0.1663  0.1213 -0.1844
   33DOPE   O12 4143  -0.845  -0.162  -2.712 -0.0575 -0.2195  0.3309
   33DOPE    C1 4144  -1.073  -0.224  -2.554 -0.4841 -0.6839  0.1153
   33DOPE    HA 4145  -1.079  -0.124  -2.601  0.6326 -0.9864 -0.7343
   33DOPE    HB 4146  -0.993  -0.221  -2.476 -0.8571  1.8895  0.4549
   33DOPE    C2 4147  -1.208  -0.270  -2.492  0.1387  0.1055 -0.3794
   33DOPE    HS 4148  -1.279  -0.284  -2.576 -0.5750  1.3742 -0.0096
   33DOPE   O21 4149  -1.262  -0.162  -2.417 -0.0257 -0.2451 -0.2023
   33DOPE   C21 4150  -1.393  -0.188  -2.379 -0.2414  0.6336  0.0889
   33DOPE   O22 4151  -1.467  -0.271  -2.431  0.0179  0.0643  0.1190
   33DOPE   C22 4152  -1.430  -0.102  -2.258 -0.4698 -0.2659 -0.4903
   33DOPE   H2R 4153  -1.475  -0.007  -2.294  0.2249  0.3474  0.2287
   33DOPE   H2S 4154  -1.339  -0.083  -2.197 -0.9963  0.1912  0.1703
   33DOPE    C3 4155  -1.193  -0.397  -2.403 -0.4934  0.4784 -0.7909
   33DOPE    HX 4156  -1.132  -0.464  -2.466  0.1914  0.1414  0.2017
   33DOPE    HY 4157  -1.291  -0.444  -2.379 -1.2592  1.5432 -1.7418
   33DOPE   O31 4158  -1.111  -0.369  -2.293  0.5036 -0.4338 -0.2854
   33DOPE   C31 4159  -1.038  -0.466  -2.251 -1.3609  0.5484 -0.4162
   33DOPE   O32 4160  -1.031  -0.581  -2.293 -0.3612 -0.6396 -0.3518
   33DOPE   C32 4161  -0.948  -0.410  -2.134 -0.0643  0.0256  0.0136
   33DOPE   H2X 4162  -0.853  -0.359  -2.161 -0.1759  0.7908  1.0185
   33DOPE   H2Y 4163  -1.010  -0.342  -2.072  0.3515  0.1797  0.2702
   33DOPE   C23 4164  -1.531  -0.179  -2.175 -0.7990 -0.4229 -0.3808
   33DOPE   H3R 4165  -1.502  -0.286  -2.169  2.6654  0.4534  0.7671
   33DOPE   H3S 4166  -1.636  -0.170  -2.209 -0.9743 -0.3349  0.1767
   33DOPE   C24 4167  -1.540  -0.125  -2.029  0.2168 -0.2381  0.1971
   33DOPE   H4R 4168  -1.567  -0.018  -2.036 -1.8928 -0.5349  2.4153
   33DOPE   H4S 4169  -1.435  -0.133  -1.993  0.6813 -0.6149 -1.1704
   33DOPE   C25 4170  -1.644  -0.191  -1.931 -0.3317 -0.3588 -0.2257
   33DOPE   H5R 4171  -1.628  -0.300  -1.943 -1.1592 -0.5121 -0.0005
   33DOPE   H5S 4172  -1.748  -0.169  -1.962  0.2623  0.5801 -1.6250
   33DOPE   C26 4173  -1.613  -0.165  -1.785 -0.9243  0.4353 -0.2282
   33DOPE   H6R 4174  -1.616  -0.055  -1.770  1.3220  0.1373  3.4561
   33DOPE   H6S 4175  -1.504  -0.183  -1.779 -1.0042  0.4385  1.5307
   33DOPE   C27 4176  -1.682  -0.255  -1.682 -0.0172 -0.1189  0.5624
   33DOPE   H7R 4177  -1.669  -0.362  -1.711 -1.1762  0.0562 -0.7252
   33DOPE   H7S 4178  -1.791  -0.234  -1.673 -0.3469 -1.6935  0.5155
   33DOPE   C28 4179  -1.616  -0.241  -1.540  0.2219 -0.8538 -0.1325
   33DOPE   H8R 4180  -1.622  -0.136  -1.506 -0.7595 -0.8164 -0.3980
   33DOPE   H8S 4181  -1.506  -0.258  -1.548  0.2474 -1.3813  1.1862
   33DOPE   C29 4182  -1.674  -0.344  -1.447 -0.1434  0.8928  0.4056
   33DOPE   H9R 4183  -1.717  -0.429  -1.501 -0.4653  2.1711 -1.4728
   33DOPE  C210 4184  -1.688  -0.324  -1.312 -0.7763 -0.0590  0.6855
   33DOPE  H10R 4185  -1.716  -0.406  -1.246 -1.8107  0.8688  1.4358
   33DOPE  C211 4186  -1.645  -0.201  -1.240  0.6453  0.2902 -0.0571
   33DOPE  H11R 4187  -1.714  -0.118  -1.266  0.3231  0.1051  0.2002
   33DOPE  H11S 4188  -1.540  -0.173  -1.260  1.0429  0.9644  2.6107
   33DOPE  C212 4189  -1.663  -0.226  -1.094 -0.0413  0.1681 -0.4946
   33DOPE  H12R 4190  -1.589  -0.306  -1.073  0.2556 -0.1669 -2.6013
   33DOPE  H12S 4191  -1.768  -0.253  -1.069 -0.2820 -0.9330 -2.5070
   33DOPE  C213 4192  -1.638  -0.106  -0.996  0.6758  0.0879  0.0841
   33DOPE  H13R 4193  -1.727  -0.039  -0.998 -0.3167 -0.8072 -5.8566
   33DOPE  H13S 4194  -1.554  -0.057  -1.050  1.0817 -0.4309  0.2391
   33DOPE  C214 4195  -1.595  -0.147  -0.856  0.3281 -0.6789  0.0580
   33DOPE  H14R 4196  -1.543  -0.064  -0.803  1.1470 -1.6728  0.8609
   33DOPE  H14S 4197  -1.522  -0.231  -0.869 -1.7611 -2.8876  1.7193
   33DOPE  C215 4198  -1.705  -0.218  -0.770  0.2876  0.2884  0.1127
   33DOPE  H15R 4199  -1.734  -0.320  -0.804  1.1227  0.0227  0.1938
   33DOPE  H15S 4200  -1.794  -0.151  -0.769 -0.7826 -0.9832 -2.0191
   33DOPE  C216 4201  -1.674  -0.230  -0.620  0.4044 -0.0680 -0.2542
   33DOPE  H16R 4202  -1.764  -0.279  -0.578  0.4791  0.6295  0.7569
   33DOPE  H16S 4203  -1.660  -0.131  -0.572  0.3950  0.9925 -2.3086
   33DOPE  C217 4204  -1.558  -0.326  -0.578  0.4461 -0.3453  0.1607
   33DOPE  H17R 4205  -1.463  -0.273  -0.602  1.0607 -0.6653  1.7669
   33DOPE  H17S 4206  -1.561  -0.419  -0.639 -0.4827  0.4730 -1.0890
   33DOPE  C218 4207  -1.561  -0.355  -0.423 -0.1083  0.1511  0.2729
   33DOPE  H18R 4208  -1.665  -0.358  -0.384 -1.1113 -0.0065 -2.2099
   33DOPE  H18S 4209  -1.525  -0.274  -0.357 -2.1045 -0.0449  1.6980
   33DOPE  H18T 4210  -1.515  -0.455  -0.408  1.0201  0.6707  0.3269
   33DOPE   C33 4211  -0.895  -0.525  -2.040 -0.2417 -1.2112 -0.0743
   33DOPE   H3X 4212  -0.822  -0.591  -2.092 -0.4728 -0.5136 -1.3023
   33DOPE   H3Y 4213  -0.978  -0.591  -2.006 -1.4702 -0.6832 -1.9138
   33DOPE   C34 4214  -0.813  -0.467  -1.918 -0.1794 -0.3936 -0.2555
   33DOPE   H4X 4215  -0.716  -0.432  -1.959  0.3962 -1.1916  0.3895
   33DOPE   H4Y 4216  -0.869  -0.386  -1.866 -0.0531 -0.6542  0.2928
   33DOPE   C35 4217  -0.799  -0.578  -1.816  0.4281  0.8029  0.6390
   33DOPE   H5X 4218  -0.744  -0.659  -1.868  0.8281  0.1860  1.9967
   33DOPE   H5Y 4219  -0.906  -0.594  -1.792 -0.3902  1.7245 -2.0516
   33DOPE   C36 4220  -0.719  -0.528  -1.696 -0.4610  0.2900  0.0023
   33DOPE   H6X 4221  -0.749  -0.423  -1.675 -2.3225 -0.2844  0.4382
   33DOPE   H6Y 4222  -0.612  -0.539  -1.722 -0.5923 -1.5476  0.1311
   33DOPE   C37 4223  -0.749  -0.614  -1.569  0.7162 -0.3802 -0.4496
   33DOPE   H7X 4224  -0.851  -0.592  -1.531  0.7200 -0.0133 -0.6497
   33DOPE   H7Y 4225  -0.752  -0.722  -1.597 -3.0954 -0.4945 -0.1713
   33DOPE   C38 4226  -0.644  -0.579  -1.461 -0.5835 -0.5012 -0.4219
   33DOPE   H8X 4227  -0.655  -0.469  -1.452  1.7385 -0.2975  0.7366
   33DOPE   H8Y 4228  -0.540  -0.602  -1.491 -0.1351  1.3493 -0.3902
   33DOPE   C39 4229  -0.667  -0.649  -1.331  0.3133 -0.1210 -0.8173
   33DOPE   H9X 4230  -0.644  -0.757  -1.330 -1.7088 -0.5983  0.8929
   33DOPE  C310 4231  -0.732  -0.615  -1.216 -0.4762  0.1262 -0.3448
   33DOPE  H10X 4232  -0.747  -0.690  -1.137 -0.3383  0.4657  0.0073
   33DOPE  C311 4233  -0.782  -0.473  -1.186  0.2465  0.8412 -0.0542
   33DOPE  H11X 4234  -0.707  -0.397  -1.156 -2.0831  2.9228  0.8099
   33DOPE  H11Y 4235  -0.832  -0.426  -1.274 -1.3399 -0.2509  0.2238
   33DOPE  C312 4236  -0.878  -0.475  -1.070 -0.4096  0.1871 -0.1201
   33DOPE  H12X 4237  -0.964  -0.541  -1.095  0.4480 -1.0347  0.0648
   33DOPE  H12Y 4238  -0.917  -0.374  -1.049 -0.0602  0.5726 -1.2560
   33DOPE  C313 4239  -0.802  -0.503  -0.941 -0.1652 -0.3462  0.1969
   33DOPE  H13X 4240  -0.747  -0.600  -0.948  0.0908 -0.1096 -1.7085
   33DOPE  H13Y 4241  -0.741  -0.411  -0.930 -3.2397  1.7990  0.6264
   33DOPE  C314 4242  -0.893  -0.508  -0.815 -0.0946 -0.0903 -0.2749
   33DOPE  H14X 4243  -0.958  -0.597  -0.829  0.0876  0.1332 -3.1868
   33DOPE  H14Y 4244  -0.961  -0.420  -0.809  1.0948  0.8046  0.6874
   33DOPE  C315 4245  -0.810  -0.511  -0.692  0.0059  0.1489  0.6528
   33DOPE  H15X 4246  -0.736  -0.428  -0.693  0.3774 -0.1277  2.1509
   33DOPE  H15Y 4247  -0.750  -0.604  -0.681  0.9455  0.5960 -0.5706
   33DOPE  C316 4248  -0.885  -0.481  -0.559 -0.4029 -0.3412  0.0905
   33DOPE  H16X 4249  -0.949  -0.568  -0.530 -0.3690 -0.0952  0.9514
   33DOPE  H16Y 4250  -0.944  -0.387  -0.561  2.4962  1.6085  0.0750
   33DOPE  C317 4251  -0.783  -0.446  -0.446 -0.2274  0.9598  0.4195
   33DOPE  H17X 4252  -0.719  -0.536  -0.434 -0.4532  0.7387 -0.0285
   33DOPE  H17Y 4253  -0.713  -0.368  -0.483  1.1533 -0.3472  0.1747
   33DOPE  C318 4254  -0.835  -0.412  -0.305 -0.6617  0.0680 -0.3812
   33DOPE  H18X 4255  -0.910  -0.490  -0.278  1.3741 -1.2063  1.9674
   33DOPE  H18Y 4256  -0.751  -0.407  -0.232 -2.1165  1.1275  1.3001
   33DOPE  H18Z 4257  -0.884  -0.313  -0.303  0.7996  0.8257  2.2361
   34DOPE     N 4258  -1.324   2.288  -1.876  0.3899  0.6664  0.4579
   34DOPE   HN1 4259  -1.427   2.281  -1.868  0.4345 -1.0945  0.0333
   34DOPE   HN2 4260  -1.274   2.300  -1.785  2.9629  1.8690 -1.0042
   34DOPE   HN3 4261  -1.295   2.366  -1.938  2.5226  0.6725  1.3808
   34DOPE   C12 4262  -1.261   2.162  -1.933 -0.0418 -0.0828  0.8509
   34DOPE  H12A 4263  -1.267   2.092  -1.847  1.0195 -1.7161 -0.3479
   34DOPE  H12B 4264  -1.158   2.194  -1.962 -0.7562  0.9889 -0.6065
   34DOPE   C11 4265  -1.338   2.097  -2.051 -0.7592 -0.3356 -0.3330
   34DOPE  H11A 4266  -1.294   1.997  -2.071 -0.3966 -0.4803  1.0990
   34DOPE  H11B 4267  -1.314   2.181  -2.120  1.4756 -0.7192 -0.0922
   34DOPE     P 4268  -1.575   1.976  -2.063 -0.1527 -0.2561 -0.2906
   34DOPE   O13 4269  -1.557   1.966  -2.210  0.1070  0.0262  0.2332
   34DOPE   O14 4270  -1.703   2.027  -2.011 -0.0320  0.0218  0.2970
   34DOPE   O11 4271  -1.538   1.832  -1.997  0.4607  0.0249 -0.3008
   34DOPE   O12 4272  -1.471   2.085  -2.011 -0.4427 -0.1044  0.2632
   34DOPE    C1 4273  -1.492   1.832  -1.861  0.7164  0.0176 -0.2831
   34DOPE    HA 4274  -1.570   1.875  -1.795  1.5683  2.6891 -0.8760
   34DOPE    HB 4275  -1.402   1.897  -1.852  1.6526 -0.9968 -1.8581
   34DOPE    C2 4276  -1.449   1.689  -1.815  0.0185 -0.4480 -0.4705
   34DOPE    HS 4277  -1.353   1.668  -1.867  1.3568  3.8993 -0.1833
   34DOPE   O21 4278  -1.544   1.585  -1.850 -0.2196  0.2252  0.1622
   34DOPE   C21 4279  -1.516   1.456  -1.822 -0.3770 -0.3554  0.0221
   34DOPE   O22 4280  -1.410   1.418  -1.781 -0.6538 -1.1412  0.2606
   34DOPE   C22 4281  -1.631   1.367  -1.857 -0.3361 -0.2822 -0.5642
   34DOPE   H2R 4282  -1.592   1.272  -1.901 -1.5375 -0.4997 -1.2081
   34DOPE   H2S 4283  -1.703   1.420  -1.923  0.6506  0.4611 -1.0790
   34DOPE    C3 4284  -1.423   1.694  -1.668 -0.4577  0.4363  0.1269
   34DOPE    HX 4285  -1.354   1.781  -1.659  1.1321 -0.5261 -1.8895
   34DOPE    HY 4286  -1.362   1.606  -1.640 -1.6035  0.4459  2.9199
   34DOPE   O31 4287  -1.554   1.697  -1.603 -0.0523  0.7355  0.2947
   34DOPE   C31 4288  -1.546   1.686  -1.475  0.0609  0.0072 -0.6625
   34DOPE   O32 4289  -1.440   1.682  -1.409  0.6945 -0.9977 -0.2076
   34DOPE   C32 4290  -1.686   1.675  -1.412  0.2170 -0.1369  0.2520
   34DOPE   H2X 4291  -1.714   1.765  -1.353  1.4614 -0.9600  2.1751
   34DOPE   H2Y 4292  -1.754   1.679  -1.501 -2.1789 -1.8310  1.8768
   34DOPE   C23 4293  -1.706   1.327  -1.722 -0.5841  0.2597 -0.1539
   34DOPE   H3R 4294  -1.751   1.422  -1.685 -1.0651  0.8066 -2.0644
   34DOPE   H3S 4295  -1.624   1.302  -1.650  0.1023  1.1129 -0.6136
   34DOPE   C24 4296  -1.803   1.212  -1.759  0.0348 -0.1336 -0.2041
   34DOPE   H4R 4297  -1.748   1.121  -1.789 -1.2217 -0.8708 -0.3175
   34DOPE   H4S 4298  -1.863   1.228  -1.851 -0.5086  0.8642  0.2954
   34DOPE   C25 4299  -1.908   1.193  -1.650 -0.3457 -0.1818  0.5972
   34DOPE   H5R 4300  -1.981   1.121  -1.694 -1.4610 -1.4380  4.1516
   34DOPE   H5S 4301  -1.968   1.286  -1.643 -0.5341 -0.2551  0.0213
   34DOPE   C26 4302  -1.845   1.144  -1.520 -0.5087 -0.0472  0.6602
   34DOPE   H6R 4303  -1.757   1.206  -1.495  2.3684 -3.4010 -0.3364
   34DOPE   H6S 4304  -1.788   1.049  -1.533  2.6727  1.9398 -1.1285
   34DOPE   C27 4305  -1.936   1.132  -1.403 -0.0297  0.0478 -0.3313
   34DOPE   H7R 4306  -1.915   1.044  -1.339 -2.9449 -0.0570  0.6550
   34DOPE   H7S 4307  -2.042   1.128  -1.438  0.0313 -0.0068 -0.5102
   34DOPE   C28 4308  -1.925   1.264  -1.335 -0.5138 -0.4175  0.2099
   34DOPE   H8R 4309  -1.920   1.347  -1.409  1.9476 -0.6966 -0.0467
   34DOPE   H8S 4310  -1.823   1.266  -1.290  0.0994 -0.5186 -1.1435
   34DOPE   C29 4311  -2.034   1.297  -1.239  0.3525  0.5556 -0.6018
   34DOPE   H9R 4312  -2.122   1.344  -1.284  0.1884 -0.3281 -1.2362
   34DOPE  C210 4313  -2.030   1.278  -1.105 -0.2852 -0.4317 -0.0277
   34DOPE  H10R 4314  -2.126   1.298  -1.056 -0.1809 -0.4601  0.1874
   34DOPE  C211 4315  -1.925   1.212  -1.018 -0.4253 -0.1669  0.1640
   34DOPE  H11R 4316  -1.839   1.282  -1.023 -0.8719  0.5023  1.4722
   34DOPE  H11S 4317  -1.904   1.111  -1.059  2.6811  0.9215 -1.2566
   34DOPE  C212 4318  -1.981   1.218  -0.869  0.4761 -0.4070  0.1069
   34DOPE  H12R 4319  -2.087   1.192  -0.850 -0.9946  4.8578  0.7202
   34DOPE  H12S 4320  -1.988   1.323  -0.831 -0.9592 -1.0232  1.6969
   34DOPE  C213 4321  -1.900   1.134  -0.761  0.1454  0.2767  0.3832
   34DOPE  H13R 4322  -1.793   1.166  -0.759  0.6399 -1.1976 -0.8593
   34DOPE  H13S 4323  -1.894   1.028  -0.795  1.4093  1.2433 -2.8056
   34DOPE  C214 4324  -1.945   1.153  -0.617 -0.2940 -0.1341  0.5860
   34DOPE  H14R 4325  -2.054   1.138  -0.606 -0.2933 -0.5015  0.0967
   34DOPE  H14S 4326  -1.931   1.263  -0.608  0.6798 -0.0887 -1.0696
   34DOPE  C215 4327  -1.857   1.081  -0.513  0.2793 -0.3546 -0.0224
   34DOPE  H15R 4328  -1.754   1.123  -0.503  1.5387 -3.1590 -0.3285
   34DOPE  H15S 4329  -1.851   0.974  -0.538  2.0031 -0.0246 -1.2269
   34DOPE  C216 4330  -1.928   1.099  -0.373  0.4687  0.2405 -0.0362
   34DOPE  H16R 4331  -1.920   1.005  -0.314  2.4855  1.5230  1.9321
   34DOPE  H16S 4332  -2.037   1.115  -0.375  0.2548 -0.1479  3.3374
   34DOPE  C217 4333  -1.857   1.207  -0.279 -0.0191 -0.6645  0.7763
   34DOPE  H17R 4334  -1.835   1.289  -0.352 -2.4087  0.8176  1.6164
   34DOPE  H17S 4335  -1.759   1.158  -0.262 -0.3979 -1.7576 -0.1177
   34DOPE  C218 4336  -1.942   1.251  -0.162 -0.2335 -0.4071  0.4340
   34DOPE  H18R 4337  -1.893   1.329  -0.102 -1.5744 -1.2182  2.6909
   34DOPE  H18S 4338  -1.966   1.165  -0.096  0.4223  2.0267  4.1436
   34DOPE  H18T 4339  -2.032   1.297  -0.209  1.5561  2.9456 -0.0269
   34DOPE   C33 4340  -1.707   1.541  -1.338  0.6477  0.1212  0.2753
   34DOPE   H3X 4341  -1.698   1.462  -1.416 -0.2407  0.3575 -0.0814
   34DOPE   H3Y 4342  -1.814   1.543  -1.308 -0.1901 -0.5394 -2.3470
   34DOPE   C34 4343  -1.626   1.494  -1.218 -0.2228  0.5560  0.4321
   34DOPE   H4X 4344  -1.671   1.392  -1.210 -1.2718  0.8579 -1.1240
   34DOPE   H4Y 4345  -1.518   1.490  -1.240 -0.4865  0.0644 -0.8283
   34DOPE   C35 4346  -1.657   1.566  -1.087 -0.3566  0.6088 -0.7371
   34DOPE   H5X 4347  -1.763   1.560  -1.053  0.1928 -4.4355  0.9699
   34DOPE   H5Y 4348  -1.632   1.672  -1.103 -1.2616  0.9289 -0.1221
   34DOPE   C36 4349  -1.580   1.503  -0.969 -0.0770  0.2442 -0.2107
   34DOPE   H6X 4350  -1.472   1.490  -0.993 -0.3617 -0.0903 -1.4073
   34DOPE   H6Y 4351  -1.623   1.402  -0.956  1.3003 -0.4842 -1.0159
   34DOPE   C37 4352  -1.596   1.581  -0.835  0.1086  0.2567 -0.4251
   34DOPE   H7X 4353  -1.494   1.620  -0.813  0.1888  0.7674 -1.6254
   34DOPE   H7Y 4354  -1.658   1.670  -0.856  0.0078 -0.1043 -1.7466
   34DOPE   C38 4355  -1.647   1.499  -0.712 -0.1152  0.2081 -0.0514
   34DOPE   H8X 4356  -1.755   1.476  -0.725 -0.3575  1.2739 -0.0405
   34DOPE   H8Y 4357  -1.635   1.576  -0.632  2.4639  1.7601 -1.7894
   34DOPE   C39 4358  -1.568   1.378  -0.679  0.1506  0.1987 -0.5081
   34DOPE   H9X 4359  -1.584   1.285  -0.735 -1.2681 -1.6520  2.7155
   34DOPE  C310 4360  -1.469   1.364  -0.578  0.4849 -0.0519  0.4488
   34DOPE  H10X 4361  -1.409   1.273  -0.564  0.3705 -0.2665 -0.3750
   34DOPE  C311 4362  -1.444   1.480  -0.482  0.5248  0.0960  0.3453
   34DOPE  H11X 4363  -1.368   1.549  -0.525  0.8027  0.3193  1.1779
   34DOPE  H11Y 4364  -1.535   1.537  -0.454  0.3732  1.0226 -1.8543
   34DOPE  C312 4365  -1.387   1.436  -0.347 -0.5207  0.2487 -0.1641
   34DOPE  H12X 4366  -1.371   1.534  -0.299 -2.0251  0.3566  0.1756
   34DOPE  H12Y 4367  -1.303   1.367  -0.368 -0.0828 -0.0924  2.4501
   34DOPE  C313 4368  -1.493   1.358  -0.269  0.3161 -0.2071  0.5686
   34DOPE  H13X 4369  -1.595   1.401  -0.267 -0.0956 -1.1507  0.6686
   34DOPE  H13Y 4370  -1.511   1.254  -0.305  1.1497 -0.3140  0.4367
   34DOPE  C314 4371  -1.456   1.333  -0.122 -0.0963  0.5587 -0.0828
   34DOPE  H14X 4372  -1.540   1.283  -0.071  1.4203 -0.7847  1.2115
   34DOPE  H14Y 4373  -1.439   1.430  -0.070  0.2532 -0.2895  1.4436
   34DOPE  C315 4374  -1.327   1.248  -0.108 -0.7947  0.2876  0.2596
   34DOPE  H15X 4375  -1.242   1.317  -0.126  0.0266 -0.7991 -0.0897
   34DOPE  H15Y 4376  -1.318   1.169  -0.185  0.2518 -0.0531  0.7111
   34DOPE  C316 4377  -1.306   1.179   0.028 -0.5041  0.2535  0.4249
   34DOPE  H16X 4378  -1.390   1.107   0.034 -0.3401 -0.2649 -2.1664
   34DOPE  H16Y 4379  -1.314   1.262   0.101 -0.8945 -0.0023  0.6728
   34DOPE  C317 4380  -1.179   1.100   0.056 -0.3187  0.0750  0.3922
   34DOPE  H17X 4381  -1.089   1.163   0.042 -0.1820 -0.2498 -0.2242
   34DOPE  H17Y 4382  -1.179   1.054   0.157  2.3674 -0.2139  0.3342
   34DOPE  C318 4383  -1.168   0.974  -0.030  0.2498 -0.1734 -0.1764
   34DOPE  H18X 4384  -1.251   0.903  -0.010  1.6357 -1.7371  0.3228
   34DOPE  H18Y 4385  -1.158   1.002  -0.137  2.5855  2.4767  0.5947
   34DOPE  H18Z 4386  -1.074   0.922  -0.002  0.0824 -0.2805  0.1803
   35DOPE     N 4387   1.297   0.875  -2.872 -0.1440 -0.1698 -0.3476
   35DOPE   HN1 4388   1.379   0.926  -2.832  0.4369 -1.3352  0.0053
   35DOPE   HN2 4389   1.312   0.891  -2.974 -0.5183 -0.3669 -0.4366
   35DOPE   HN3 4390   1.220   0.927  -2.827 -0.2604  1.5795 -2.4009
   35DOPE   C12 4391   1.301   0.728  -2.831  0.4374  0.2877 -0.1468
   35DOPE  H12A 4392   1.339   0.730  -2.727 -0.7127  1.4346  0.2744
   35DOPE  H12B 4393   1.375   0.681  -2.898 -0.2769  1.0823 -1.5486
   35DOPE   C11 4394   1.163   0.655  -2.839  0.6779  0.3243 -1.1022
   35DOPE  H11A 4395   1.142   0.637  -2.947  0.1418  0.9310 -1.1081
   35DOPE  H11B 4396   1.083   0.720  -2.797  1.3241 -0.6939  1.9483
   35DOPE     P 4397   1.248   0.397  -2.796 -0.1060  0.1400 -0.0463
   35DOPE   O13 4398   1.393   0.418  -2.772 -0.1891  0.1521 -0.2039
   35DOPE   O14 4399   1.204   0.360  -2.935 -0.4415  0.2406 -0.1644
   35DOPE   O11 4400   1.185   0.300  -2.692  0.0919  0.1205  0.0237
   35DOPE   O12 4401   1.169   0.531  -2.758  0.9898  0.5816  0.8555
   35DOPE    C1 4402   1.043   0.311  -2.657 -0.0611  0.3190 -0.0472
   35DOPE    HA 4403   0.979   0.300  -2.747 -3.1581  0.6186  1.9816
   35DOPE    HB 4404   1.007   0.407  -2.614 -1.0808 -1.1457  2.5336
   35DOPE    C2 4405   0.996   0.193  -2.568  0.4721 -0.8384  0.4452
   35DOPE    HS 4406   0.887   0.205  -2.553  0.8305 -0.0270  2.8992
   35DOPE   O21 4407   1.060   0.190  -2.442 -0.1836 -0.1265  0.3401
   35DOPE   C21 4408   1.025   0.279  -2.350 -0.2811  0.1457  0.1259
   35DOPE   O22 4409   0.944   0.370  -2.360 -0.1557  0.3820  0.2991
   35DOPE   C22 4410   1.106   0.257  -2.221 -0.0717 -0.1457  0.6494
   35DOPE   H2R 4411   1.147   0.357  -2.200 -1.8276  0.6278  0.5699
   35DOPE   H2S 4412   1.188   0.185  -2.243  1.7743  1.7919  0.9364
   35DOPE    C3 4413   1.023   0.065  -2.647  0.3902 -0.2328 -0.3903
   35DOPE    HX 4414   1.132   0.046  -2.641  0.8047  2.2999  1.6044
   35DOPE    HY 4415   1.021   0.075  -2.757 -0.6844 -0.9921 -0.4539
   35DOPE   O31 4416   0.938  -0.051  -2.604 -0.2450 -0.6953  0.4433
   35DOPE   C31 4417   0.815  -0.034  -2.659  0.2262  0.0001  0.2408
   35DOPE   O32 4418   0.786   0.056  -2.739 -0.3012 -0.2470  0.3189
   35DOPE   C32 4419   0.712  -0.139  -2.608  0.0116 -0.1511  0.1938
   35DOPE   H2X 4420   0.672  -0.198  -2.694  2.6232 -0.3585 -0.9525
   35DOPE   H2Y 4421   0.770  -0.208  -2.544 -2.0442  0.2918  2.7214
   35DOPE   C23 4422   1.028   0.209  -2.095 -0.1188 -0.2010 -0.1533
   35DOPE   H3R 4423   1.015   0.099  -2.092  0.1037 -0.2553 -0.8770
   35DOPE   H3S 4424   0.935   0.269  -2.099 -0.7267 -1.0957  0.3930
   35DOPE   C24 4425   1.101   0.236  -1.965 -0.6608 -0.0722  0.4746
   35DOPE   H4R 4426   1.114   0.345  -1.949  0.9114 -0.1644 -0.0154
   35DOPE   H4S 4427   1.204   0.196  -1.961 -0.9339 -0.7171  1.4859
   35DOPE   C25 4428   1.017   0.194  -1.847  0.2294  0.2036 -0.1307
   35DOPE   H5R 4429   1.004   0.084  -1.854 -0.4675  0.3992 -2.4890
   35DOPE   H5S 4430   0.916   0.236  -1.864 -0.0715 -0.5101 -0.1734
   35DOPE   C26 4431   1.088   0.229  -1.713  0.1023 -0.5078  0.1385
   35DOPE   H6R 4432   1.081   0.338  -1.692  1.4092 -0.8052  2.4351
   35DOPE   H6S 4433   1.198   0.213  -1.709  0.0662 -0.5672  2.8290
   35DOPE   C27 4434   1.025   0.150  -1.596 -0.5633  0.2506 -0.5178
   35DOPE   H7R 4435   1.036   0.041  -1.613 -0.5782 -0.1666  1.7578
   35DOPE   H7S 4436   0.915   0.164  -1.595 -0.4334  1.6538 -2.1131
   35DOPE   C28 4437   1.079   0.197  -1.456  0.0674 -0.0037 -0.1859
   35DOPE   H8R 4438   1.015   0.276  -1.411 -1.6178 -2.5056  2.1765
   35DOPE   H8S 4439   1.177   0.247  -1.468  0.0571  0.6196  1.8638
   35DOPE   C29 4440   1.093   0.072  -1.373  0.6018 -0.1673 -0.5396
   35DOPE   H9R 4441   1.060  -0.021  -1.422  0.4734 -1.1008  1.2713
   35DOPE  C210 4442   1.108   0.072  -1.243  0.2003  0.3403  0.2075
   35DOPE  H10R 4443   1.109  -0.029  -1.199  3.9143  0.6510  1.1654
   35DOPE  C211 4444   1.145   0.191  -1.160  0.2626  0.0727 -0.8401
   35DOPE  H11R 4445   1.152   0.291  -1.208  0.4091  0.5509  0.1378
   35DOPE  H11S 4446   1.249   0.168  -1.128 -0.7257  1.5785  4.5812
   35DOPE  C212 4447   1.049   0.217  -1.042  0.1968 -0.4453 -0.3920
   35DOPE  H12R 4448   1.020   0.124  -0.987 -0.5213  0.0347  0.0552
   35DOPE  H12S 4449   0.959   0.262  -1.089  0.6383  1.0549  0.1394
   35DOPE  C213 4450   1.108   0.313  -0.939 -0.1369 -0.3849  0.0940
   35DOPE  H13R 4451   1.132   0.409  -0.990  0.4791  0.7132  2.3265
   35DOPE  H13S 4452   1.203   0.274  -0.895 -0.4495  2.3613  3.6425
   35DOPE  C214 4453   1.002   0.339  -0.837  0.0426  0.1792  0.1587
   35DOPE  H14R 4454   0.903   0.348  -0.886 -0.0805  0.1724  0.4044
   35DOPE  H14S 4455   1.032   0.439  -0.798 -0.3242  0.6724 -0.8097
   35DOPE  C215 4456   1.003   0.230  -0.734  0.0414 -0.2383 -0.1270
   35DOPE  H15R 4457   1.095   0.235  -0.673 -1.1350  1.2857  1.6211
   35DOPE  H15S 4458   0.995   0.129  -0.780 -4.2410 -0.2457  0.2279
   35DOPE  C216 4459   0.892   0.259  -0.627 -0.3147 -0.0665 -1.0135
   35DOPE  H16R 4460   0.801   0.309  -0.665 -1.0911  0.0556  0.9073
   35DOPE  H16S 4461   0.938   0.316  -0.544  0.1861  1.4832 -2.3030
   35DOPE  C217 4462   0.844   0.130  -0.557 -0.3118  0.4911  0.1019
   35DOPE  H17R 4463   0.780   0.155  -0.469 -0.2274 -1.1520  0.6786
   35DOPE  H17S 4464   0.938   0.083  -0.520  1.7680  2.9705 -1.6770
   35DOPE  C218 4465   0.762   0.039  -0.651 -0.1053 -0.8184 -0.2842
   35DOPE  H18R 4466   0.815   0.002  -0.741 -1.3326 -0.2810 -1.2488
   35DOPE  H18S 4467   0.689   0.108  -0.697  0.3510 -0.6770 -0.8041
   35DOPE  H18T 4468   0.696  -0.037  -0.604 -0.5047 -0.9033 -0.9889
   35DOPE   C33 4469   0.591  -0.078  -2.525 -0.5294 -0.1409 -0.3946
   35DOPE   H3X 4470   0.522  -0.161  -2.499  0.9020 -0.5394  2.5588
   35DOPE   H3Y 4471   0.529  -0.019  -2.596 -0.2984  0.0445 -0.4389
   35DOPE   C34 4472   0.643   0.006  -2.406  1.0194  0.3122 -0.8501
   35DOPE   H4X 4473   0.730  -0.039  -2.352 -0.3758 -1.2806  0.1505
   35DOPE   H4Y 4474   0.667   0.104  -2.453 -0.9457  0.9940 -0.4928
   35DOPE   C35 4475   0.537   0.027  -2.293  0.4003  0.3450  0.5908
   35DOPE   H5X 4476   0.445   0.054  -2.349  0.8636  0.1206 -0.3000
   35DOPE   H5Y 4477   0.563   0.115  -2.231  2.1377 -0.9615  1.8264
   35DOPE   C36 4478   0.515  -0.088  -2.188  0.3438 -0.0314  0.6665
   35DOPE   H6X 4479   0.481  -0.185  -2.230 -3.9464  0.8339  1.6394
   35DOPE   H6Y 4480   0.425  -0.053  -2.133 -0.9691 -0.7918 -0.9037
   35DOPE   C37 4481   0.637  -0.114  -2.098  0.5780 -0.2016  0.1545
   35DOPE   H7X 4482   0.597  -0.171  -2.012  2.0114 -0.6990  0.5208
   35DOPE   H7Y 4483   0.704  -0.173  -2.166  0.5489 -0.5018  0.3843
   35DOPE   C38 4484   0.707   0.018  -2.038 -0.8171 -0.2332 -0.6338
   35DOPE   H8X 4485   0.746   0.092  -2.112  2.0426 -0.6489  0.3256
   35DOPE   H8Y 4486   0.805  -0.016  -1.998  0.5978  3.4049 -0.5909
   35DOPE   C39 4487   0.634   0.092  -1.928  0.0927  0.7382 -0.3446
   35DOPE   H9X 4488   0.553   0.160  -1.958 -0.4312  0.5869  0.7034
   35DOPE  C310 4489   0.635   0.058  -1.795  0.1053  0.2327  0.5564
   35DOPE  H10X 4490   0.571   0.111  -1.723 -1.1365 -0.1072 -0.2600
   35DOPE  C311 4491   0.724  -0.053  -1.739  0.4756  0.3469  0.2531
   35DOPE  H11X 4492   0.758  -0.125  -1.817 -0.0981  1.1379 -0.7537
   35DOPE  H11Y 4493   0.814  -0.000  -1.701 -0.9564  1.8860  1.6440
   35DOPE  C312 4494   0.674  -0.140  -1.629  0.2990  0.5733 -0.4127
   35DOPE  H12X 4495   0.741  -0.225  -1.605  1.2454  1.1250 -1.0557
   35DOPE  H12Y 4496   0.575  -0.184  -1.655 -0.7760  2.4815  0.2828
   35DOPE  C313 4497   0.636  -0.056  -1.507  0.8403  0.2383 -0.6995
   35DOPE  H13X 4498   0.726   0.009  -1.496  1.1078 -0.1698 -0.4313
   35DOPE  H13Y 4499   0.551   0.009  -1.537  1.5857  0.7973 -1.6774
   35DOPE  C314 4500   0.600  -0.136  -1.385 -0.3349 -0.3542 -0.1250
   35DOPE  H14X 4501   0.680  -0.212  -1.372  0.3140  0.3374  0.0528
   35DOPE  H14Y 4502   0.516  -0.203  -1.412  0.7317 -0.7265 -2.8922
   35DOPE  C315 4503   0.566  -0.051  -1.262  0.2797 -0.2512  0.6704
   35DOPE  H15X 4504   0.467  -0.001  -1.267 -0.3459 -1.5611 -1.6303
   35DOPE  H15Y 4505   0.656   0.013  -1.249  0.4652 -0.6303  1.2590
   35DOPE  C316 4506   0.555  -0.143  -1.143  0.3973 -0.5166  0.2359
   35DOPE  H16X 4507   0.664  -0.160  -1.124  0.6803  0.3874 -0.5008
   35DOPE  H16Y 4508   0.522  -0.244  -1.177  1.1158 -0.7347  0.1663
   35DOPE  C317 4509   0.493  -0.078  -1.021  0.2803  0.3605 -0.0871
   35DOPE  H17X 4510   0.538   0.023  -1.019 -1.5312  1.2021  0.4451
   35DOPE  H17Y 4511   0.384  -0.060  -1.031  0.3396  0.5701 -0.3785
   35DOPE  C318 4512   0.532  -0.150  -0.885  0.1587 -1.0758 -0.0692
   35DOPE  H18X 4513   0.507  -0.069  -0.813 -0.3532 -0.7855 -0.5658
   35DOPE  H18Y 4514   0.472  -0.243  -0.874  2.0342 -2.5110 -1.2396
   35DOPE  H18Z 4515   0.642  -0.165  -0.892  0.1680 -0.7241 -0.7862
   36DOPE     N 4516  -0.775   2.045  -2.409  0.3743 -0.0963 -0.1161
   36DOPE   HN1 4517  -0.675   2.024  -2.393 -0.3993 -2.4879  2.4096
   36DOPE   HN2 4518  -0.777   2.092  -2.502  1.8610 -1.2162 -0.7591
   36DOPE   HN3 4519  -0.806   2.113  -2.337 -1.2561 -1.2512  0.3527
   36DOPE   C12 4520  -0.861   1.928  -2.406  0.4993 -0.4407  0.4329
   36DOPE  H12A 4521  -0.953   1.951  -2.464  1.0086  1.7988  0.4171
   36DOPE  H12B 4522  -0.890   1.914  -2.299  0.5587  0.8425  0.6274
   36DOPE   C11 4523  -0.792   1.808  -2.472  0.1625  0.3665  0.9036
   36DOPE  H11A 4524  -0.768   1.821  -2.579 -2.4202 -0.8471  0.1074
   36DOPE  H11B 4525  -0.861   1.723  -2.455 -0.3576  0.9735  1.9491
   36DOPE     P 4526  -0.575   1.665  -2.440  0.1880 -0.1260  0.1775
   36DOPE   O13 4527  -0.506   1.717  -2.557  0.9234 -1.0599 -0.1775
   36DOPE   O14 4528  -0.663   1.546  -2.461  0.4305  0.0223  0.0084
   36DOPE   O11 4529  -0.474   1.645  -2.324  0.0646  0.2771 -0.3216
   36DOPE   O12 4530  -0.672   1.790  -2.398  0.1398 -0.2358 -0.0295
   36DOPE    C1 4531  -0.386   1.746  -2.281 -0.6357  0.1223  0.1140
   36DOPE    HA 4532  -0.426   1.850  -2.277 -0.0992  0.4258 -1.5811
   36DOPE    HB 4533  -0.323   1.768  -2.370 -3.1579 -1.0700 -2.1410
   36DOPE    C2 4534  -0.305   1.724  -2.151 -0.4660  0.0966 -0.2281
   36DOPE    HS 4535  -0.203   1.766  -2.159 -1.1558  2.1424  0.9728
   36DOPE   O21 4536  -0.275   1.590  -2.119 -0.4367 -0.3669  0.0027
   36DOPE   C21 4537  -0.213   1.517  -2.220  0.3681  0.8450 -0.0820
   36DOPE   O22 4538  -0.166   1.558  -2.320 -0.2367 -0.2173  0.2499
   36DOPE   C22 4539  -0.242   1.374  -2.193 -0.2101  1.0401 -0.1260
   36DOPE   H2R 4540  -0.351   1.351  -2.189  0.0814 -0.2867  0.6635
   36DOPE   H2S 4541  -0.205   1.347  -2.092 -0.3045 -0.4782 -0.4718
   36DOPE    C3 4542  -0.378   1.786  -2.030  0.1925  0.0924 -0.6791
   36DOPE    HX 4543  -0.485   1.756  -2.034  0.2505 -0.9125  2.2233
   36DOPE    HY 4544  -0.378   1.897  -2.033 -1.1897  0.2436  1.7109
   36DOPE   O31 4545  -0.316   1.743  -1.905  0.3764  0.4629  0.1786
   36DOPE   C31 4546  -0.383   1.788  -1.801  0.0949 -0.2890 -0.7222
   36DOPE   O32 4547  -0.458   1.886  -1.802 -0.2801  0.0315 -0.0772
   36DOPE   C32 4548  -0.353   1.705  -1.685 -0.0519 -0.4781  0.5955
   36DOPE   H2X 4549  -0.419   1.617  -1.704  0.0037 -0.7042  1.4102
   36DOPE   H2Y 4550  -0.247   1.673  -1.691 -0.1073 -0.8286  1.3137
   36DOPE   C23 4551  -0.167   1.283  -2.291  0.0643  0.1738  0.1919
   36DOPE   H3R 4552  -0.195   1.310  -2.395  0.2528 -2.8308 -0.7305
   36DOPE   H3S 4553  -0.210   1.182  -2.275 -1.1097  0.6759  0.3145
   36DOPE   C24 4554  -0.018   1.296  -2.281  0.3604  0.5338  1.1970
   36DOPE   H4R 4555   0.003   1.392  -2.332  1.3076  0.1344  0.8073
   36DOPE   H4S 4556   0.028   1.223  -2.351 -0.8878 -0.0621  0.9702
   36DOPE   C25 4557   0.056   1.298  -2.148 -0.4108  0.3057  0.4411
   36DOPE   H5R 4558   0.008   1.227  -2.078 -0.4046 -0.4393 -0.2874
   36DOPE   H5S 4559   0.058   1.398  -2.100  0.9698  0.3679  0.2994
   36DOPE   C26 4560   0.201   1.258  -2.167  1.1911 -0.8235  0.7322
   36DOPE   H6R 4561   0.250   1.335  -2.230 -1.3996  0.2905 -0.0485
   36DOPE   H6S 4562   0.199   1.166  -2.230 -1.0667 -0.1566 -0.2516
   36DOPE   C27 4563   0.285   1.237  -2.041 -0.0150 -0.2726 -0.2003
   36DOPE   H7R 4564   0.246   1.143  -1.997 -1.5232 -0.0397 -0.9645
   36DOPE   H7S 4565   0.255   1.326  -1.982 -0.1202 -0.3593 -0.1246
   36DOPE   C28 4566   0.439   1.236  -2.046  0.3407  0.3522  0.2874
   36DOPE   H8R 4567   0.454   1.172  -2.135 -0.5393  3.6097 -2.3941
   36DOPE   H8S 4568   0.472   1.203  -1.945  0.5475  1.4064  0.5715
   36DOPE   C29 4569   0.502   1.371  -2.076 -0.2203 -0.4608  0.1537
   36DOPE   H9R 4570   0.539   1.383  -2.179  0.3608 -0.0801  0.4037
   36DOPE  C210 4571   0.541   1.467  -1.985  0.2264 -0.2865  0.8993
   36DOPE  H10R 4572   0.600   1.557  -2.009 -2.0956  0.8918 -0.7151
   36DOPE  C211 4573   0.516   1.451  -1.832 -0.3371 -0.2423 -0.8948
   36DOPE  H11R 4574   0.460   1.367  -1.787  2.0387 -1.8912 -0.8290
   36DOPE  H11S 4575   0.455   1.541  -1.811  0.6805  1.0058 -2.9291
   36DOPE  C212 4576   0.653   1.480  -1.752 -0.1634  0.1531 -0.7980
   36DOPE  H12R 4577   0.729   1.534  -1.812 -0.4107 -1.6337 -2.8446
   36DOPE  H12S 4578   0.700   1.379  -1.752 -0.9574 -0.2700  1.1349
   36DOPE  C213 4579   0.651   1.533  -1.606  0.5567  0.6697  0.2838
   36DOPE  H13R 4580   0.655   1.644  -1.608 -1.7862  0.7860 -0.5051
   36DOPE  H13S 4581   0.746   1.493  -1.564  0.0239 -2.4354 -1.1720
   36DOPE  C214 4582   0.529   1.486  -1.525  0.2484 -0.1856  0.4027
   36DOPE  H14R 4583   0.518   1.375  -1.525 -1.3348 -0.0571  0.6016
   36DOPE  H14S 4584   0.442   1.523  -1.583  1.6738 -1.9010 -3.1633
   36DOPE  C215 4585   0.514   1.545  -1.385 -1.0497 -0.2591  0.4445
   36DOPE  H15R 4586   0.421   1.504  -1.341  0.8507 -3.1124  2.0982
   36DOPE  H15S 4587   0.516   1.656  -1.375 -1.2176 -0.2973  0.9238
   36DOPE  C216 4588   0.628   1.514  -1.303 -0.0282  0.3633  0.0569
   36DOPE  H16R 4589   0.722   1.551  -1.347  1.7793 -0.4953  2.9283
   36DOPE  H16S 4590   0.644   1.404  -1.296  1.5088  0.6187  0.8900
   36DOPE  C217 4591   0.615   1.571  -1.162  0.4065  0.1064  0.3424
   36DOPE  H17R 4592   0.587   1.677  -1.177  0.5385 -0.1046 -1.7887
   36DOPE  H17S 4593   0.720   1.558  -1.127 -0.0816 -0.3234  1.6876
   36DOPE  C218 4594   0.512   1.498  -1.073  0.4084 -0.3891  0.4712
   36DOPE  H18R 4595   0.503   1.544  -0.973 -1.0262  0.4299 -0.0014
   36DOPE  H18S 4596   0.544   1.392  -1.073 -0.8812 -0.8129 -0.1307
   36DOPE  H18T 4597   0.411   1.496  -1.121  1.3159  1.8348 -1.7530
   36DOPE   C33 4598  -0.371   1.782  -1.549 -0.4026  0.9859 -0.4515
   36DOPE   H3X 4599  -0.481   1.798  -1.544 -0.7643 -1.0582 -0.8032
   36DOPE   H3Y 4600  -0.314   1.877  -1.548 -0.2551  0.8992 -0.5393
   36DOPE   C34 4601  -0.334   1.692  -1.421 -0.0789 -0.0320 -0.1467
   36DOPE   H4X 4602  -0.384   1.594  -1.439  2.8242 -1.6457 -0.1518
   36DOPE   H4Y 4603  -0.225   1.669  -1.431 -0.6137 -2.9327 -0.3008
   36DOPE   C35 4604  -0.378   1.749  -1.283 -0.6107  0.7508 -0.7072
   36DOPE   H5X 4605  -0.488   1.757  -1.274 -0.4071  1.5781  2.2438
   36DOPE   H5Y 4606  -0.335   1.851  -1.282 -0.3615  0.6668  0.9259
   36DOPE   C36 4607  -0.308   1.680  -1.167  0.7689  0.1211 -0.2864
   36DOPE   H6X 4608  -0.201   1.658  -1.189  0.9678 -1.4332  1.8454
   36DOPE   H6Y 4609  -0.353   1.578  -1.158  3.1789 -1.0149 -0.3057
   36DOPE   C37 4610  -0.297   1.752  -1.029 -0.4267  0.1100  0.0043
   36DOPE   H7X 4611  -0.212   1.708  -0.974 -2.0347 -0.6570  2.0012
   36DOPE   H7Y 4612  -0.269   1.855  -1.062 -1.5325 -0.3616 -2.7302
   36DOPE   C38 4613  -0.419   1.750  -0.942  0.5764  0.2350  0.2555
   36DOPE   H8X 4614  -0.455   1.649  -0.910 -3.1443  1.6044  0.9236
   36DOPE   H8Y 4615  -0.498   1.781  -1.014  0.3770 -1.4898 -0.3336
   36DOPE   C39 4616  -0.408   1.832  -0.819 -0.7474 -0.2793  0.5665
   36DOPE   H9X 4617  -0.449   1.933  -0.832  1.2941  0.6084  0.5036
   36DOPE  C310 4618  -0.324   1.803  -0.715 -0.3741 -0.5981  0.1626
   36DOPE  H10X 4619  -0.322   1.877  -0.634 -0.7832 -1.9048  1.4074
   36DOPE  C311 4620  -0.263   1.672  -0.688 -0.5420  0.0016 -0.5260
   36DOPE  H11X 4621  -0.322   1.588  -0.729  0.1415 -1.1080  0.7196
   36DOPE  H11Y 4622  -0.157   1.665  -0.721 -0.4356  0.1462 -0.2134
   36DOPE  C312 4623  -0.250   1.651  -0.535 -0.4856  0.2910 -0.6479
   36DOPE  H12X 4624  -0.342   1.673  -0.476  1.0977 -2.3450  3.2245
   36DOPE  H12Y 4625  -0.174   1.723  -0.498 -0.0148  0.4805 -1.9331
   36DOPE  C313 4626  -0.226   1.506  -0.511 -0.1028 -0.0209 -0.4251
   36DOPE  H13X 4627  -0.317   1.452  -0.545 -0.4519  1.0039 -1.1907
   36DOPE  H13Y 4628  -0.147   1.473  -0.582  0.1762  1.5667 -0.8939
   36DOPE  C314 4629  -0.179   1.475  -0.367  0.3968  0.4622 -0.2938
   36DOPE  H14X 4630  -0.085   1.529  -0.346 -0.4489  1.1137  2.1588
   36DOPE  H14Y 4631  -0.166   1.365  -0.354  0.5486  0.6564  1.4201
   36DOPE  C315 4632  -0.269   1.533  -0.257 -0.3711 -0.0245  0.2346
   36DOPE  H15X 4633  -0.373   1.494  -0.264  0.4164 -2.7544  1.9106
   36DOPE  H15Y 4634  -0.274   1.643  -0.254 -3.9741 -0.0577 -0.8167
   36DOPE  C316 4635  -0.230   1.492  -0.115  0.1634 -0.7494 -0.6565
   36DOPE  H16X 4636  -0.135   1.544  -0.092  0.4102 -1.3272 -0.3255
   36DOPE  H16Y 4637  -0.204   1.384  -0.115  1.3203 -0.6198 -4.8422
   36DOPE  C317 4638  -0.335   1.547  -0.010  0.2779  0.4863  0.3416
   36DOPE  H17X 4639  -0.351   1.657  -0.023 -1.4966  0.2874  0.7048
   36DOPE  H17Y 4640  -0.431   1.495  -0.024  0.5294 -0.4272  1.8150
   36DOPE  C318 4641  -0.277   1.537   0.138 -0.0301 -0.3363  0.2279
   36DOPE  H18X 4642  -0.231   1.437   0.152  1.4491  0.5109  1.7311
   36DOPE  H18Y 4643  -0.200   1.613   0.161  1.6474 -1.5297 -1.1818
   36DOPE  H18Z 4644  -0.361   1.537   0.210 -0.4158  0.4019 -0.2155
   37DOPE     N 4645  -1.346   0.375  -2.583 -0.0749  0.1111  0.1707
   37DOPE   HN1 4646  -1.413   0.440  -2.538  0.0968  0.0903  0.4614
   37DOPE   HN2 4647  -1.283   0.432  -2.644 -1.6460  2.9098  1.0062
   37DOPE   HN3 4648  -1.401   0.313  -2.646  1.4413 -2.5899  1.3302
   37DOPE   C12 4649  -1.263   0.276  -2.490  0.4768 -0.4828  0.3927
   37DOPE  H12A 4650  -1.345   0.213  -2.450 -0.2577 -1.0906 -1.9246
   37DOPE  H12B 4651  -1.216   0.339  -2.411 -0.1894 -0.7053  0.9800
   37DOPE   C11 4652  -1.159   0.197  -2.574 -0.1891 -0.1291  0.4826
   37DOPE  H11A 4653  -1.222   0.129  -2.636  0.2638  0.6169 -0.8521
   37DOPE  H11B 4654  -1.092   0.130  -2.516  0.5200 -1.1987 -1.4631
   37DOPE     P 4655  -0.955   0.360  -2.624  0.0016 -0.1904 -0.0439
   37DOPE   O13 4656  -0.929   0.454  -2.735 -0.4538 -0.0401 -0.1012
   37DOPE   O14 4657  -0.846   0.257  -2.596  0.5172 -0.4204  0.5775
   37DOPE   O11 4658  -0.987   0.429  -2.486  0.4425 -0.0150 -0.4099
   37DOPE   O12 4659  -1.086   0.284  -2.665  0.1718 -0.5357 -0.7347
   37DOPE    C1 4660  -0.896   0.444  -2.376 -0.2854  0.3140 -0.8898
   37DOPE    HA 4661  -0.863   0.549  -2.362 -1.2490  0.2920  2.2343
   37DOPE    HB 4662  -0.799   0.395  -2.401 -1.0015 -0.6693 -1.8813
   37DOPE    C2 4663  -0.944   0.389  -2.244 -0.3358 -0.1991 -0.1310
   37DOPE    HS 4664  -0.866   0.397  -2.165 -0.9492 -0.0171  0.4694
   37DOPE   O21 4665  -0.996   0.254  -2.261  0.3272 -0.4400 -0.1825
   37DOPE   C21 4666  -0.894   0.167  -2.261  0.2453 -0.0524 -0.2828
   37DOPE   O22 4667  -0.779   0.189  -2.256  0.0092  0.2758  0.0508
   37DOPE   C22 4668  -0.942   0.025  -2.270  0.6379 -0.1463 -0.1223
   37DOPE   H2R 4669  -0.864  -0.050  -2.245  1.9585  0.2029 -2.7974
   37DOPE   H2S 4670  -0.984   0.004  -2.371 -0.8262  0.2347  0.3870
   37DOPE    C3 4671  -1.065   0.476  -2.188  0.7079  0.1754  0.5452
   37DOPE    HX 4672  -1.137   0.488  -2.272  0.5541  2.3993  0.9298
   37DOPE    HY 4673  -1.024   0.578  -2.172  1.1389 -0.0124  0.6478
   37DOPE   O31 4674  -1.118   0.424  -2.063  0.2900  0.1170  0.1859
   37DOPE   C31 4675  -1.240   0.379  -2.068  0.5974  0.6329  0.0217
   37DOPE   O32 4676  -1.315   0.365  -2.165  0.2156  0.1364 -0.9667
   37DOPE   C32 4677  -1.283   0.334  -1.927 -1.1302 -0.6343 -0.0141
   37DOPE   H2X 4678  -1.186   0.305  -1.880 -0.1788  0.9718 -0.8983
   37DOPE   H2Y 4679  -1.316   0.427  -1.875  0.2787  0.2276 -0.6016
   37DOPE   C23 4680  -1.049   0.010  -2.157  0.5282  0.1666  0.5450
   37DOPE   H3R 4681  -1.098  -0.086  -2.182 -0.0730  0.5767  0.1059
   37DOPE   H3S 4682  -1.123   0.091  -2.175  1.9647  1.3224 -0.4701
   37DOPE   C24 4683  -0.978   0.018  -2.020  0.7528  0.1152 -0.4584
   37DOPE   H4R 4684  -0.973   0.123  -1.985  0.8098 -0.8945  2.9347
   37DOPE   H4S 4685  -0.876  -0.025  -2.027  0.1942 -1.2408 -0.5355
   37DOPE   C25 4686  -1.050  -0.047  -1.902  0.1342  0.7976 -0.6462
   37DOPE   H5R 4687  -1.060  -0.153  -1.936 -1.2168  0.5800  0.3566
   37DOPE   H5S 4688  -1.151  -0.008  -1.879 -0.6112 -1.2587 -0.1800
   37DOPE   C26 4689  -0.957  -0.052  -1.784  0.1121  0.6939  0.0898
   37DOPE   H6R 4690  -0.858  -0.088  -1.818 -0.5002 -0.5576 -0.4326
   37DOPE   H6S 4691  -0.987  -0.140  -1.721  0.4257 -0.1430 -0.9011
   37DOPE   C27 4692  -0.958   0.081  -1.704  1.0421  0.2427 -0.0445
   37DOPE   H7R 4693  -1.061   0.078  -1.663 -0.5143 -0.6212 -3.6698
   37DOPE   H7S 4694  -0.945   0.165  -1.775 -1.7760 -0.4152 -1.4529
   37DOPE   C28 4695  -0.860   0.088  -1.585  0.3653 -0.1461 -0.1589
   37DOPE   H8R 4696  -0.893   0.171  -1.519  0.0675 -1.7542  1.8173
   37DOPE   H8S 4697  -0.754   0.109  -1.609  1.0917 -2.3952  0.8674
   37DOPE   C29 4698  -0.855  -0.041  -1.513  0.2607  0.3225  0.2665
   37DOPE   H9R 4699  -0.806  -0.116  -1.576 -2.2137  1.4127 -3.2451
   37DOPE  C210 4700  -0.903  -0.057  -1.389 -0.4998 -0.1980 -0.2535
   37DOPE  H10R 4701  -0.893  -0.156  -1.341 -1.5445  0.1639  0.7504
   37DOPE  C211 4702  -0.963   0.050  -1.299  0.0536  0.3401 -1.1612
   37DOPE  H11R 4703  -1.068   0.066  -1.332 -0.0993 -0.6764 -1.2141
   37DOPE  H11S 4704  -0.917   0.151  -1.304 -2.0498  1.2959 -2.9224
   37DOPE  C212 4705  -0.977   0.002  -1.157  0.1654 -0.3474  0.1491
   37DOPE  H12R 4706  -1.018  -0.100  -1.148  0.9522 -0.5332  2.3001
   37DOPE  H12S 4707  -1.052   0.064  -1.104 -1.8542 -1.3914 -1.3847
   37DOPE  C213 4708  -0.842  -0.001  -1.073  0.3316 -0.7410 -0.2050
   37DOPE  H13R 4709  -0.801   0.102  -1.066 -1.5976  0.0401  0.5913
   37DOPE  H13S 4710  -0.767  -0.064  -1.124  1.1667  0.0736 -0.0088
   37DOPE  C214 4711  -0.844  -0.042  -0.921 -0.2630 -0.5293  0.3550
   37DOPE  H14R 4712  -0.884  -0.144  -0.911  1.8824 -1.4513  0.1783
   37DOPE  H14S 4713  -0.923   0.015  -0.868 -1.5356 -1.4801 -0.4616
   37DOPE  C215 4714  -0.705  -0.027  -0.858 -1.1229  0.6902  0.2823
   37DOPE  H15R 4715  -0.708   0.083  -0.849 -1.0855  0.6238  1.1637
   37DOPE  H15S 4716  -0.630  -0.052  -0.937 -2.7446 -0.0292 -1.1061
   37DOPE  C216 4717  -0.687  -0.087  -0.722  0.2001  0.8114  0.1673
   37DOPE  H16R 4718  -0.700  -0.197  -0.734 -2.1323  1.2461 -2.4061
   37DOPE  H16S 4719  -0.778  -0.065  -0.662 -1.0590  0.2860 -1.4574
   37DOPE  C217 4720  -0.563  -0.039  -0.651  0.1763 -0.4768 -0.2192
   37DOPE  H17R 4721  -0.579   0.066  -0.617  4.7390  0.4055 -0.0745
   37DOPE  H17S 4722  -0.479  -0.049  -0.723  0.3642  0.6075 -0.1643
   37DOPE  C218 4723  -0.530  -0.122  -0.533  0.4131 -0.1428  0.1943
   37DOPE  H18R 4724  -0.434  -0.081  -0.497 -0.0498  2.5096 -1.3008
   37DOPE  H18S 4725  -0.520  -0.229  -0.561  1.2647 -0.8568  2.9533
   37DOPE  H18T 4726  -0.613  -0.106  -0.461 -0.7755 -0.9454 -0.9374
   37DOPE   C33 4727  -1.389   0.233  -1.917 -0.4196 -0.0748 -0.3652
   37DOPE   H3X 4728  -1.342   0.140  -1.957  0.0137  0.5124 -1.2573
   37DOPE   H3Y 4729  -1.477   0.257  -1.980 -0.0745  0.2325 -0.7319
   37DOPE   C34 4730  -1.438   0.204  -1.779 -0.5895  0.2022  0.4452
   37DOPE   H4X 4731  -1.463   0.301  -1.730  0.5867  0.5500  0.3951
   37DOPE   H4Y 4732  -1.533   0.147  -1.786 -0.5613  0.3244 -1.4106
   37DOPE   C35 4733  -1.338   0.124  -1.691 -0.0307  0.9564  0.4575
   37DOPE   H5X 4734  -1.246   0.186  -1.683  1.5347 -0.9599 -1.4459
   37DOPE   H5Y 4735  -1.306   0.029  -1.739 -1.4721  1.0753 -0.8015
   37DOPE   C36 4736  -1.394   0.082  -1.550 -0.2146  0.2159  0.7192
   37DOPE   H6X 4737  -1.322   0.010  -1.505 -0.8869  0.1157  1.6573
   37DOPE   H6Y 4738  -1.497   0.043  -1.568 -0.4477  0.0498  2.2673
   37DOPE   C37 4739  -1.419   0.198  -1.457 -0.5632 -0.1407  0.2772
   37DOPE   H7X 4740  -1.325   0.255  -1.442 -1.2866  0.9688  0.7155
   37DOPE   H7Y 4741  -1.481   0.278  -1.504  0.1382 -0.4497 -1.2376
   37DOPE   C38 4742  -1.476   0.161  -1.317  0.4298  0.2207  0.4739
   37DOPE   H8X 4743  -1.399   0.093  -1.275  0.9863  0.1448 -0.6258
   37DOPE   H8Y 4744  -1.574   0.111  -1.330 -0.1646  0.1688  4.1081
   37DOPE   C39 4745  -1.494   0.284  -1.234  0.0341 -0.6999 -0.6391
   37DOPE   H9X 4746  -1.564   0.356  -1.279 -0.7622  0.1278  1.7699
   37DOPE  C310 4747  -1.437   0.317  -1.117  0.0681 -0.1430  0.0041
   37DOPE  H10X 4748  -1.442   0.421  -1.079  2.2166 -0.3938  1.1354
   37DOPE  C311 4749  -1.353   0.228  -1.023 -0.3504 -0.2291 -0.4595
   37DOPE  H11X 4750  -1.371   0.122  -1.050  0.3852  0.1027 -2.4029
   37DOPE  H11Y 4751  -1.247   0.245  -1.052 -0.2979 -0.7451 -0.5766
   37DOPE  C312 4752  -1.388   0.261  -0.877 -0.0265 -0.3124 -0.0618
   37DOPE  H12X 4753  -1.492   0.234  -0.847 -0.2254  0.6798  0.1624
   37DOPE  H12Y 4754  -1.375   0.369  -0.858 -0.9488  0.0131 -1.1575
   37DOPE  C313 4755  -1.279   0.194  -0.783 -0.6825  0.3280  0.2793
   37DOPE  H13X 4756  -1.289   0.086  -0.807 -0.1737 -0.0021  1.4782
   37DOPE  H13Y 4757  -1.174   0.219  -0.809 -0.7828  0.2893 -0.1746
   37DOPE  C314 4758  -1.305   0.215  -0.631 -0.4676 -0.2565  0.6811
   37DOPE  H14X 4759  -1.304   0.322  -0.601  0.0158 -0.3693  1.0854
   37DOPE  H14Y 4760  -1.222   0.163  -0.578 -0.3943  1.2481  2.1209
   37DOPE  C315 4761  -1.423   0.148  -0.569 -0.1555 -0.2583 -0.1142
   37DOPE  H15X 4762  -1.441   0.044  -0.602 -0.0234 -0.3825  0.2043
   37DOPE  H15Y 4763  -1.511   0.215  -0.583 -1.0206 -1.6488 -1.6558
   37DOPE  C316 4764  -1.405   0.129  -0.415  0.3940  0.1825 -0.2142
   37DOPE  H16X 4765  -1.411   0.231  -0.372  2.1633 -0.6692  2.3208
   37DOPE  H16Y 4766  -1.302   0.094  -0.389 -0.2369 -2.3864 -0.8637
   37DOPE  C317 4767  -1.502   0.024  -0.369  0.0846  0.0771  0.5472
   37DOPE  H17X 4768  -1.604   0.043  -0.408  1.0127  2.5512 -0.9338
   37DOPE  H17Y 4769  -1.465  -0.071  -0.412 -0.0864 -0.0061  0.5849
   37DOPE  C318 4770  -1.506   0.015  -0.217 -0.6209 -0.0105 -0.2093
   37DOPE  H18X 4771  -1.406   0.042  -0.175  0.0604 -1.4465 -0.8135
   37DOPE  H18Y 4772  -1.575   0.083  -0.164  2.3511  0.9053  2.8778
   37DOPE  H18Z 4773  -1.526  -0.086  -0.174 -1.5917  0.6815  1.0160
   38DOPE     N 4774   0.077  -2.765  -2.374 -0.3393 -0.4193  0.7101
   38DOPE   HN1 4775   0.151  -2.784  -2.444 -1.0498  1.1456 -0.5513
   38DOPE   HN2 4776   0.011  -2.843  -2.358 -1.0245  0.0917  0.4509
   38DOPE   HN3 4777   0.015  -2.691  -2.414  0.8075 -0.2218 -0.8112
   38DOPE   C12 4778   0.127  -2.730  -2.236 -0.4554  0.7783  0.0372
   38DOPE  H12A 4779   0.057  -2.740  -2.151 -0.2549 -3.0915 -0.1102
   38DOPE  H12B 4780   0.157  -2.623  -2.244 -2.2452  1.2369 -1.2888
   38DOPE   C11 4781   0.243  -2.814  -2.197  0.3308  0.3983  0.4104
   38DOPE  H11A 4782   0.203  -2.917  -2.190 -2.0756  1.3537  2.2765
   38DOPE  H11B 4783   0.279  -2.785  -2.096 -0.0398 -1.2797  1.0525
   38DOPE     P 4784   0.452  -2.693  -2.297  0.1208 -0.5749 -0.3549
   38DOPE   O13 4785   0.373  -2.584  -2.352  0.0442 -0.0560  0.4099
   38DOPE   O14 4786   0.570  -2.746  -2.369 -0.0582 -0.1607 -0.0541
   38DOPE   O11 4787   0.495  -2.666  -2.146  0.3321  0.0867  0.0897
   38DOPE   O12 4788   0.355  -2.807  -2.285  0.2176 -0.2368  0.3672
   38DOPE    C1 4789   0.612  -2.718  -2.083  0.4556 -0.0214 -0.7699
   38DOPE    HA 4790   0.595  -2.702  -1.974 -1.7442 -0.3580 -1.0071
   38DOPE    HB 4791   0.704  -2.668  -2.119 -0.0847  0.0666 -2.0893
   38DOPE    C2 4792   0.634  -2.868  -2.084  0.0257  0.7361 -0.0632
   38DOPE    HS 4793   0.660  -2.903  -2.186 -2.0227  0.4058 -0.5049
   38DOPE   O21 4794   0.520  -2.940  -2.034  0.4732  0.3559  0.3334
   38DOPE   C21 4795   0.497  -3.057  -2.099  0.1008 -0.3768 -0.2875
   38DOPE   O22 4796   0.553  -3.104  -2.194 -0.0510  0.2277  0.2919
   38DOPE   C22 4797   0.384  -3.121  -2.023 -0.6728 -0.0118 -0.7079
   38DOPE   H2R 4798   0.304  -3.129  -2.100 -1.4674  1.1400 -0.0542
   38DOPE   H2S 4799   0.345  -3.047  -1.950  1.4219  0.3625  0.0903
   38DOPE    C3 4800   0.764  -2.899  -2.001  0.7937  0.0811 -0.0669
   38DOPE    HX 4801   0.847  -2.837  -2.041  0.8199  0.2540  0.2552
   38DOPE    HY 4802   0.787  -3.006  -2.022  0.1340  0.0555 -0.7131
   38DOPE   O31 4803   0.751  -2.866  -1.860  0.2828 -0.1887 -0.1211
   38DOPE   C31 4804   0.856  -2.874  -1.783  0.5136 -0.1827 -0.0438
   38DOPE   O32 4805   0.968  -2.896  -1.829 -0.0357  0.8944  0.0146
   38DOPE   C32 4806   0.825  -2.852  -1.639 -0.0819  0.5520 -0.3927
   38DOPE   H2X 4807   0.772  -2.754  -1.640  0.4243  0.9038  1.6483
   38DOPE   H2Y 4808   0.743  -2.922  -1.610  1.0095 -1.2748 -1.4951
   38DOPE   C23 4809   0.427  -3.250  -1.954 -0.0364  0.6771  0.1358
   38DOPE   H3R 4810   0.478  -3.325  -2.018  0.6202 -1.3949  2.8794
   38DOPE   H3S 4811   0.339  -3.306  -1.917  0.1901 -0.6781 -1.2478
   38DOPE   C24 4812   0.516  -3.232  -1.830  0.4841 -0.3364 -0.1967
   38DOPE   H4R 4813   0.609  -3.179  -1.860 -1.0493  2.3092 -0.6588
   38DOPE   H4S 4814   0.531  -3.327  -1.775 -2.1379 -0.6378  0.1353
   38DOPE   C25 4815   0.449  -3.141  -1.725  0.6634  0.0384 -0.1896
   38DOPE   H5R 4816   0.358  -3.086  -1.756 -0.4623 -1.5202  0.2213
   38DOPE   H5S 4817   0.524  -3.060  -1.710  0.1400  0.4808  0.0781
   38DOPE   C26 4818   0.423  -3.213  -1.593 -0.3312 -0.1279  0.0224
   38DOPE   H6R 4819   0.505  -3.283  -1.567 -0.0900  0.4545  0.8751
   38DOPE   H6S 4820   0.331  -3.272  -1.609 -0.8297  0.6683 -0.0939
   38DOPE   C27 4821   0.389  -3.118  -1.481 -0.0494 -0.1083 -1.1285
   38DOPE   H7R 4822   0.280  -3.112  -1.459  0.3048 -0.6881  0.9916
   38DOPE   H7S 4823   0.421  -3.017  -1.515  1.1149  1.1952  3.1391
   38DOPE   C28 4824   0.472  -3.135  -1.353 -0.1961  0.0189 -0.0380
   38DOPE   H8R 4825   0.449  -3.040  -1.300  0.5750 -0.3362  0.9515
   38DOPE   H8S 4826   0.579  -3.127  -1.382  0.1451  1.4710  1.4316
   38DOPE   C29 4827   0.437  -3.259  -1.278  0.4711 -0.4260  0.2037
   38DOPE   H9R 4828   0.376  -3.328  -1.338 -0.5226  0.2887  0.3684
   38DOPE  C210 4829   0.492  -3.297  -1.154 -0.2080 -0.6841  0.4442
   38DOPE  H10R 4830   0.467  -3.386  -1.095  0.1361 -0.9194  0.2382
   38DOPE  C211 4831   0.602  -3.227  -1.084  0.1888 -0.3265 -0.2736
   38DOPE  H11R 4832   0.613  -3.135  -1.145 -0.8230  0.3515  0.5354
   38DOPE  H11S 4833   0.699  -3.278  -1.100  0.7115  0.9698 -1.4976
   38DOPE  C212 4834   0.572  -3.181  -0.940  0.0637  0.7286  0.0189
   38DOPE  H12R 4835   0.507  -3.091  -0.945 -1.5682 -0.2414  2.2488
   38DOPE  H12S 4836   0.670  -3.158  -0.893  0.9531 -1.7145 -0.5062
   38DOPE  C213 4837   0.513  -3.280  -0.843 -0.1211  0.2445  0.2756
   38DOPE  H13R 4838   0.581  -3.365  -0.821  0.3942  0.8923  1.2580
   38DOPE  H13S 4839   0.422  -3.330  -0.883  1.3494 -0.3568 -2.5647
   38DOPE  C214 4840   0.477  -3.213  -0.705 -0.2066  0.6223 -0.2649
   38DOPE  H14R 4841   0.399  -3.136  -0.723 -0.4395  0.2309 -0.9521
   38DOPE  H14S 4842   0.570  -3.166  -0.667  0.0505  1.0989 -1.4425
   38DOPE  C215 4843   0.422  -3.316  -0.597 -0.0567  0.1688  0.9109
   38DOPE  H15R 4844   0.496  -3.397  -0.580 -1.0889 -1.1677 -0.7421
   38DOPE  H15S 4845   0.343  -3.381  -0.641 -1.1840  2.3406 -0.4309
   38DOPE  C216 4846   0.356  -3.256  -0.473 -0.3630 -0.1595  0.0672
   38DOPE  H16R 4847   0.288  -3.170  -0.489  0.7122  0.7935  0.5152
   38DOPE  H16S 4848   0.437  -3.229  -0.401 -0.5200 -1.1557  0.6351
   38DOPE  C217 4849   0.264  -3.363  -0.403  0.0635  0.3555 -0.3478
   38DOPE  H17R 4850   0.229  -3.310  -0.311  1.1120 -0.5201  0.5776
   38DOPE  H17S 4851   0.319  -3.450  -0.362 -3.2043 -1.5859  0.2570
   38DOPE  C218 4852   0.143  -3.419  -0.474 -0.2726  0.1225  0.5672
   38DOPE  H18R 4853   0.175  -3.490  -0.553  0.6098  0.1341  0.9086
   38DOPE  H18S 4854   0.080  -3.340  -0.520 -2.5204 -0.6289  2.1251
   38DOPE  H18T 4855   0.084  -3.478  -0.400  0.4831 -0.5416  0.6547
   38DOPE   C33 4856   0.953  -2.861  -1.550 -0.5267  1.0096  0.3645
   38DOPE   H3X 4857   1.031  -2.792  -1.588 -0.6912  0.6470 -0.6621
   38DOPE   H3Y 4858   0.984  -2.967  -1.563  0.1221  1.3243 -0.8206
   38DOPE   C34 4859   0.932  -2.821  -1.405 -0.2209 -0.0202  0.4280
   38DOPE   H4X 4860   1.032  -2.827  -1.357 -0.6393 -1.3138  1.1965
   38DOPE   H4Y 4861   0.904  -2.714  -1.396  2.0403  0.8048 -1.4383
   38DOPE   C35 4862   0.835  -2.917  -1.325 -1.5090  0.4995 -0.4614
   38DOPE   H5X 4863   0.888  -3.011  -1.301 -0.2490  0.8350 -1.7999
   38DOPE   H5Y 4864   0.765  -2.954  -1.403 -1.5934 -1.4651  0.4907
   38DOPE   C36 4865   0.765  -2.861  -1.205  0.3643 -0.2395  0.3941
   38DOPE   H6X 4866   0.683  -2.931  -1.179 -1.8320  1.8967 -0.4193
   38DOPE   H6Y 4867   0.722  -2.762  -1.231 -0.9784 -0.8867  0.0951
   38DOPE   C37 4868   0.850  -2.849  -1.076 -0.3647  0.3536  0.2370
   38DOPE   H7X 4869   0.914  -2.938  -1.062  3.3123  2.5324 -1.2332
   38DOPE   H7Y 4870   0.926  -2.771  -1.095  0.6258 -0.1958  1.7705
   38DOPE   C38 4871   0.778  -2.806  -0.944  0.9860 -0.2996 -0.9144
   38DOPE   H8X 4872   0.719  -2.897  -0.923  0.1568 -0.2682 -2.8737
   38DOPE   H8Y 4873   0.698  -2.732  -0.967  0.4734 -0.6401 -0.2664
   38DOPE   C39 4874   0.864  -2.766  -0.830  0.8117 -0.1199 -0.7378
   38DOPE   H9X 4875   0.940  -2.698  -0.871  0.7247  0.0401 -0.6366
   38DOPE  C310 4876   0.865  -2.823  -0.708  0.5751 -0.1355  0.3705
   38DOPE  H10X 4877   0.926  -2.765  -0.638  2.4734 -2.1361  0.5006
   38DOPE  C311 4878   0.767  -2.925  -0.653 -0.7146 -0.5738  0.0890
   38DOPE  H11X 4879   0.667  -2.936  -0.700 -0.7407 -1.0323  0.2443
   38DOPE  H11Y 4880   0.813  -3.026  -0.658  1.3021  0.2522  0.8003
   38DOPE  C312 4881   0.748  -2.910  -0.500  0.8045  1.0598  0.1576
   38DOPE  H12X 4882   0.685  -2.821  -0.478 -0.6460  0.0260  0.3625
   38DOPE  H12Y 4883   0.847  -2.884  -0.457  2.6749  0.4063 -3.4162
   38DOPE  C313 4884   0.688  -3.038  -0.436  0.0279  0.1607  0.2013
   38DOPE  H13X 4885   0.585  -3.055  -0.476  0.3928 -3.4612  0.4630
   38DOPE  H13Y 4886   0.744  -3.127  -0.471 -0.3270  1.1189 -3.2109
   38DOPE  C314 4887   0.686  -3.026  -0.284 -1.0374  0.0108  0.5637
   38DOPE  H14X 4888   0.594  -2.972  -0.255 -0.4773 -0.6553  4.0054
   38DOPE  H14Y 4889   0.766  -2.960  -0.245  0.5000 -0.7328 -1.1357
   38DOPE  C315 4890   0.685  -3.157  -0.206  0.2538 -0.8069 -0.0019
   38DOPE  H15X 4891   0.596  -3.222  -0.222  0.8614 -1.6433 -0.0503
   38DOPE  H15Y 4892   0.686  -3.139  -0.097  2.0177 -4.1150  0.6497
   38DOPE  C316 4893   0.811  -3.241  -0.220 -0.2875 -0.1274  0.5014
   38DOPE  H16X 4894   0.826  -3.267  -0.326 -3.0963  1.3170 -0.3608
   38DOPE  H16Y 4895   0.805  -3.336  -0.164  0.6413 -1.7400 -1.9995
   38DOPE  C317 4896   0.931  -3.168  -0.175 -0.4547 -0.2705  0.0859
   38DOPE  H17X 4897   1.015  -3.224  -0.221 -0.6670 -0.0250 -0.6099
   38DOPE  H17Y 4898   0.948  -3.064  -0.211 -0.1619  0.3531  1.9236
   38DOPE  C318 4899   0.934  -3.170  -0.019 -0.0724  0.0366 -0.1818
   38DOPE  H18X 4900   0.928  -3.277   0.011  0.2772 -0.4178 -1.6117
   38DOPE  H18Y 4901   1.024  -3.116   0.017 -0.8251  1.3076 -0.1660
   38DOPE  H18Z 4902   0.847  -3.111   0.017 -0.9498 -1.4311  0.1870
   39DOPE     N 4903  -1.464   1.668  -2.194 -0.1302  0.5581 -0.1384
   39DOPE   HN1 4904  -1.510   1.702  -2.108 -0.1194  1.5513 -0.5125
   39DOPE   HN2 4905  -1.376   1.631  -2.154  0.6042  0.7117 -1.5332
   39DOPE   HN3 4906  -1.437   1.751  -2.251 -1.6434  2.4000  1.6624
   39DOPE   C12 4907  -1.542   1.563  -2.262 -0.0180  0.2215  0.3955
   39DOPE  H12A 4908  -1.489   1.471  -2.230  0.9187  1.0850  1.3807
   39DOPE  H12B 4909  -1.533   1.577  -2.372  0.6910  1.5171  0.6038
   39DOPE   C11 4910  -1.692   1.549  -2.223  0.0656  0.4018  0.2457
   39DOPE  H11A 4911  -1.697   1.526  -2.114  2.7872  1.0801  0.6032
   39DOPE  H11B 4912  -1.730   1.462  -2.280  0.0607  0.1574  0.6168
   39DOPE     P 4913  -1.924   1.677  -2.256 -0.1937 -0.1284 -0.1173
   39DOPE   O13 4914  -1.984   1.578  -2.347 -0.1500 -0.0881 -0.0171
   39DOPE   O14 4915  -1.967   1.818  -2.291  0.6447 -0.1757 -0.0392
   39DOPE   O11 4916  -1.957   1.638  -2.117  0.2038 -0.4113 -0.4572
   39DOPE   O12 4917  -1.764   1.658  -2.262  0.5334 -0.3048  0.3673
   39DOPE    C1 4918  -1.889   1.674  -1.997 -0.1474 -0.1253  0.3921
   39DOPE    HA 4919  -1.802   1.742  -2.008 -1.1188  1.2130  0.7034
   39DOPE    HB 4920  -1.842   1.585  -1.951 -0.8172 -0.7218 -0.0408
   39DOPE    C2 4921  -1.982   1.730  -1.885  0.7966 -0.1568  0.3771
   39DOPE    HS 4922  -1.913   1.755  -1.801 -0.4255 -1.0551  1.7075
   39DOPE   O21 4923  -2.083   1.639  -1.851  0.0216 -0.0997 -0.3562
   39DOPE   C21 4924  -2.071   1.600  -1.720  0.2244 -0.1695 -0.1529
   39DOPE   O22 4925  -1.965   1.600  -1.662  0.0723 -0.0802 -0.5191
   39DOPE   C22 4926  -2.204   1.571  -1.657 -0.0945  0.3750 -0.8832
   39DOPE   H2R 4927  -2.251   1.483  -1.707 -2.9820  1.4060 -0.1471
   39DOPE   H2S 4928  -2.273   1.653  -1.684  0.8475  0.7658 -2.2098
   39DOPE    C3 4929  -2.044   1.862  -1.946  0.3975  0.7878 -0.2205
   39DOPE    HX 4930  -2.100   1.823  -2.034 -0.0646  0.8651  0.0363
   39DOPE    HY 4931  -1.964   1.928  -1.987  0.5980 -1.0529 -3.0454
   39DOPE   O31 4932  -2.130   1.929  -1.854 -0.1434  0.0568  0.0219
   39DOPE   C31 4933  -2.172   2.048  -1.892  0.8585  0.1093 -0.5568
   39DOPE   O32 4934  -2.139   2.109  -1.989  0.5025 -0.5107 -0.0463
   39DOPE   C32 4935  -2.261   2.099  -1.776  0.0008 -0.6925  0.2575
   39DOPE   H2X 4936  -2.225   2.185  -1.715  0.8569 -0.1002 -1.0437
   39DOPE   H2Y 4937  -2.347   2.143  -1.830  0.3659 -1.4862 -1.0138
   39DOPE   C23 4938  -2.185   1.539  -1.504  0.2087  0.1787 -0.1516
   39DOPE   H3R 4939  -2.103   1.465  -1.488  1.4535  1.2819 -1.2223
   39DOPE   H3S 4940  -2.285   1.503  -1.473  0.9753  0.0424  2.4508
   39DOPE   C24 4941  -2.158   1.666  -1.417  0.3143 -0.5205 -0.1615
   39DOPE   H4R 4942  -2.227   1.747  -1.451 -0.8109 -1.0064  0.8951
   39DOPE   H4S 4943  -2.053   1.703  -1.425  0.0410  0.1505 -0.8616
   39DOPE   C25 4944  -2.188   1.627  -1.269 -0.4453  0.1759 -0.3536
   39DOPE   H5R 4945  -2.099   1.573  -1.231 -0.0176  1.1390  0.0363
   39DOPE   H5S 4946  -2.272   1.554  -1.265  0.9085 -1.4380 -0.3125
   39DOPE   C26 4947  -2.197   1.748  -1.174 -0.6514 -0.1076  0.7455
   39DOPE   H6R 4948  -2.267   1.826  -1.212 -1.5233 -1.3794 -0.3296
   39DOPE   H6S 4949  -2.091   1.781  -1.171  0.0898 -2.2217 -0.3496
   39DOPE   C27 4950  -2.253   1.704  -1.031  0.0829  0.1128 -0.3640
   39DOPE   H7R 4951  -2.359   1.672  -1.043 -0.6176  2.0119  0.4647
   39DOPE   H7S 4952  -2.245   1.791  -0.963 -0.9409 -0.3239  0.3581
   39DOPE   C28 4953  -2.178   1.592  -0.954  0.2555 -0.5587 -0.0947
   39DOPE   H8R 4954  -2.181   1.506  -1.024  2.3647  1.1405 -2.4565
   39DOPE   H8S 4955  -2.235   1.563  -0.864  2.5845 -1.0238  1.3124
   39DOPE   C29 4956  -2.041   1.631  -0.910 -0.3539 -0.4875 -0.0214
   39DOPE   H9R 4957  -1.972   1.636  -0.995  0.1564  2.4964  0.4528
   39DOPE  C210 4958  -1.999   1.660  -0.785 -0.1707 -0.4708  0.6523
   39DOPE  H10R 4959  -1.901   1.709  -0.777 -0.5500  0.8492 -1.8089
   39DOPE  C211 4960  -2.099   1.670  -0.670 -0.4565 -0.3479  0.7413
   39DOPE  H11R 4961  -2.203   1.694  -0.702  0.4077  2.3419 -0.3072
   39DOPE  H11S 4962  -2.081   1.757  -0.604 -0.3060 -0.2176  0.5307
   39DOPE  C212 4963  -2.099   1.542  -0.579 -0.4097  0.1764 -0.4139
   39DOPE  H12R 4964  -2.115   1.451  -0.641  1.6566 -0.7423  0.2917
   39DOPE  H12S 4965  -2.183   1.552  -0.506  1.1882 -0.0036  1.5318
   39DOPE  C213 4966  -1.980   1.522  -0.481  0.4224  0.2351 -0.7379
   39DOPE  H13R 4967  -1.891   1.498  -0.543  2.5647  1.2757  1.7211
   39DOPE  H13S 4968  -2.010   1.435  -0.419  1.2856  0.9965  0.8080
   39DOPE  C214 4969  -1.936   1.639  -0.393 -0.0578  0.1116  0.7875
   39DOPE  H14R 4970  -2.025   1.678  -0.339  0.1917 -1.2553  2.2511
   39DOPE  H14S 4971  -1.921   1.727  -0.460  1.9508 -0.2346  0.7419
   39DOPE  C215 4972  -1.817   1.621  -0.303  0.0762 -0.0127  0.8106
   39DOPE  H15R 4973  -1.734   1.599  -0.374 -0.7964  0.4009 -0.3851
   39DOPE  H15S 4974  -1.821   1.536  -0.232  1.5878 -2.9978 -2.3826
   39DOPE  C216 4975  -1.774   1.752  -0.232  0.7202 -0.6609  0.0428
   39DOPE  H16R 4976  -1.710   1.812  -0.299  0.4944 -0.1710  0.2594
   39DOPE  H16S 4977  -1.701   1.715  -0.157  1.2960 -0.5343 -0.4469
   39DOPE  C217 4978  -1.885   1.838  -0.170  0.3069  0.2476  0.3555
   39DOPE  H17R 4979  -1.955   1.875  -0.248 -0.2877 -1.8226 -0.1648
   39DOPE  H17S 4980  -1.835   1.923  -0.120  0.6991  0.4308 -0.3383
   39DOPE  C218 4981  -1.975   1.779  -0.065  0.0513  0.2202 -0.1416
   39DOPE  H18R 4982  -2.058   1.850  -0.045  0.2332  0.7605 -1.2079
   39DOPE  H18S 4983  -1.915   1.753   0.024  0.4201 -0.8005 -0.6711
   39DOPE  H18T 4984  -2.031   1.688  -0.097 -0.6030  1.8459 -4.3507
   39DOPE   C33 4985  -2.304   1.994  -1.676 -0.0323  0.0101 -0.0182
   39DOPE   H3X 4986  -2.209   1.964  -1.628 -0.0603  0.4582  0.3266
   39DOPE   H3Y 4987  -2.334   1.895  -1.717  1.7425 -0.7057  0.3267
   39DOPE   C34 4988  -2.399   2.040  -1.562  0.1154  0.4681 -0.3075
   39DOPE   H4X 4989  -2.427   2.145  -1.587  2.5727  1.1637 -0.3593
   39DOPE   H4Y 4990  -2.487   1.972  -1.563  0.4054 -0.0640  2.3453
   39DOPE   C35 4991  -2.346   2.038  -1.424 -0.5765  0.3799  0.2597
   39DOPE   H5X 4992  -2.259   2.100  -1.395 -1.5934  3.2286 -2.2978
   39DOPE   H5Y 4993  -2.315   1.935  -1.393  0.6653  0.3609 -0.9431
   39DOPE   C36 4994  -2.454   2.092  -1.334  0.2426  0.2596 -0.1030
   39DOPE   H6X 4995  -2.551   2.039  -1.349 -0.8595  2.4640 -1.3419
   39DOPE   H6Y 4996  -2.477   2.196  -1.367 -2.9325 -0.4923 -0.5670
   39DOPE   C37 4997  -2.428   2.092  -1.185 -0.1988 -0.1637 -0.4507
   39DOPE   H7X 4998  -2.377   1.995  -1.167 -0.3289 -0.6014 -2.2950
   39DOPE   H7Y 4999  -2.348   2.167  -1.167 -0.7436  0.9320 -2.3364
   39DOPE   C38 5000  -2.539   2.092  -1.090 -0.2258 -0.2931 -0.2887
   39DOPE   H8X 5001  -2.490   2.072  -0.992 -2.0086  0.4598  0.8044
   39DOPE   H8Y 5002  -2.610   2.007  -1.101 -0.9949  0.2848  0.0983
   39DOPE   C39 5003  -2.620   2.219  -1.076 -0.4128  0.4196 -0.5018
   39DOPE   H9X 5004  -2.678   2.243  -1.167 -1.1306  0.5392 -0.0146
   39DOPE  C310 5005  -2.641   2.299  -0.967  0.3522  0.4722 -0.2866
   39DOPE  H10X 5006  -2.702   2.388  -0.987  0.7005  0.6402 -0.6273
   39DOPE  C311 5007  -2.593   2.288  -0.837  0.9114 -0.0194  0.4438
   39DOPE  H11X 5008  -2.482   2.274  -0.834  1.0139  0.2774 -0.9882
   39DOPE  H11Y 5009  -2.603   2.389  -0.792 -2.1203  0.0953 -0.2986
   39DOPE  C312 5010  -2.673   2.193  -0.740  0.2059  0.2402  0.3815
   39DOPE  H12X 5011  -2.674   2.092  -0.786 -1.4315  0.8369 -1.0006
   39DOPE  H12Y 5012  -2.775   2.233  -0.724  0.7516  0.8479  2.8429
   39DOPE  C313 5013  -2.616   2.170  -0.604 -0.8328 -0.6770 -0.0795
   39DOPE  H13X 5014  -2.684   2.096  -0.556 -2.8072  1.3106  0.3234
   39DOPE  H13Y 5015  -2.516   2.126  -0.626  0.1057  1.1491  0.3884
   39DOPE  C314 5016  -2.588   2.290  -0.513  0.0815 -0.1035  0.8809
   39DOPE  H14X 5017  -2.688   2.331  -0.486  0.6265  1.7217  0.2252
   39DOPE  H14Y 5018  -2.544   2.368  -0.578  0.1890 -1.8452 -1.2814
   39DOPE  C315 5019  -2.487   2.257  -0.398  0.3142  0.4516  0.4844
   39DOPE  H15X 5020  -2.442   2.345  -0.347  0.6701 -0.5495  1.9677
   39DOPE  H15Y 5021  -2.405   2.195  -0.440 -0.4692 -1.1838  1.2842
   39DOPE  C316 5022  -2.555   2.179  -0.284  0.1377  0.1347 -0.3189
   39DOPE  H16X 5023  -2.486   2.164  -0.198 -3.4792  1.0978  3.0279
   39DOPE  H16Y 5024  -2.593   2.083  -0.325 -1.3050  0.3901  0.3657
   39DOPE  C317 5025  -2.670   2.248  -0.212 -0.1796 -0.1524  0.0172
   39DOPE  H17X 5026  -2.628   2.334  -0.155 -1.8041 -0.2803  1.5159
   39DOPE  H17Y 5027  -2.733   2.306  -0.283 -1.3036  0.8967  1.7925
   39DOPE  C318 5028  -2.749   2.165  -0.109 -0.2301  0.4305 -0.7956
   39DOPE  H18X 5029  -2.695   2.153  -0.013 -1.7778  0.3233  0.1010
   39DOPE  H18Y 5030  -2.840   2.219  -0.074 -0.2406 -0.8073  1.2426
   39DOPE  H18Z 5031  -2.776   2.066  -0.152  0.3920  0.0296 -0.2862
   40DOPE     N 5032  -0.294   3.258  -2.528  0.6422  0.4519 -0.0656
   40DOPE   HN1 5033  -0.292   3.287  -2.628  1.8499  0.9419  0.0830
   40DOPE   HN2 5034  -0.247   3.330  -2.470 -0.5457  1.2389 -0.0449
   40DOPE   HN3 5035  -0.239   3.170  -2.519  0.6297  0.5200  0.7386
   40DOPE   C12 5036  -0.441   3.256  -2.503 -0.0393 -0.5079 -0.5236
   40DOPE  H12A 5037  -0.483   3.358  -2.518  0.3654 -0.1515  0.6466
   40DOPE  H12B 5038  -0.446   3.238  -2.393  0.4042 -0.2862 -0.4630
   40DOPE   C11 5039  -0.515   3.139  -2.565 -0.0078  0.5167 -0.7302
   40DOPE  H11A 5040  -0.513   3.153  -2.676 -0.1838 -0.2746 -0.8397
   40DOPE  H11B 5041  -0.621   3.142  -2.532  0.6904 -0.7887  1.8745
   40DOPE     P 5042  -0.506   2.892  -2.467 -0.2238 -0.6500 -0.3391
   40DOPE   O13 5043  -0.411   2.778  -2.478 -0.2203 -0.1297  0.0619
   40DOPE   O14 5044  -0.645   2.862  -2.522 -0.6994 -0.1087  0.0020
   40DOPE   O11 5045  -0.520   2.945  -2.322  0.1578  0.6687 -0.3261
   40DOPE   O12 5046  -0.447   3.019  -2.541 -0.4284 -0.2512  0.4766
   40DOPE    C1 5047  -0.404   2.975  -2.239  0.6445 -0.3745 -0.3413
   40DOPE    HA 5048  -0.435   3.045  -2.158  2.8728 -2.3480  2.4472
   40DOPE    HB 5049  -0.324   3.031  -2.292  1.3727 -1.0807 -0.0209
   40DOPE    C2 5050  -0.340   2.855  -2.189 -0.0399  0.0354 -0.2655
   40DOPE    HS 5051  -0.373   2.768  -2.250 -0.4871  1.8017 -2.7127
   40DOPE   O21 5052  -0.365   2.847  -2.051  0.5722  0.0088  0.3035
   40DOPE   C21 5053  -0.342   2.726  -1.996  0.4140  0.4754  0.3267
   40DOPE   O22 5054  -0.297   2.628  -2.051  0.1147 -0.1881 -1.0308
   40DOPE   C22 5055  -0.390   2.732  -1.850 -0.2625 -0.2723  0.9415
   40DOPE   H2R 5056  -0.499   2.713  -1.858 -0.3936  1.1148 -1.2636
   40DOPE   H2S 5057  -0.377   2.835  -1.810  0.5619 -0.2643  0.6745
   40DOPE    C3 5058  -0.181   2.864  -2.207 -0.1317  0.5198 -0.6560
   40DOPE    HX 5059  -0.174   2.890  -2.315  3.1853 -0.0266 -0.6699
   40DOPE    HY 5060  -0.135   2.765  -2.185  0.5782  1.2585  1.4216
   40DOPE   O31 5061  -0.118   2.968  -2.137  0.0376 -0.5675  0.8357
   40DOPE   C31 5062  -0.039   2.945  -2.033 -0.5240  0.1969 -0.6033
   40DOPE   O32 5063  -0.016   2.837  -1.985 -0.2200  0.3093 -0.3052
   40DOPE   C32 5064   0.004   3.065  -1.959  0.8136 -0.8365 -0.5321
   40DOPE   H2X 5065   0.017   3.046  -1.851 -0.0669 -1.2141 -0.4830
   40DOPE   H2Y 5066   0.104   3.092  -1.999  1.2034 -0.4241  0.7037
   40DOPE   C23 5067  -0.320   2.629  -1.759 -0.0386 -0.2086  0.4392
   40DOPE   H3R 5068  -0.210   2.646  -1.751  0.1357 -0.5152 -1.0227
   40DOPE   H3S 5069  -0.342   2.524  -1.787  2.0660 -0.1127 -1.9360
   40DOPE   C24 5070  -0.377   2.648  -1.614  0.3639  0.2716 -0.6003
   40DOPE   H4R 5071  -0.350   2.563  -1.547 -4.1310 -0.9689 -0.0539
   40DOPE   H4S 5072  -0.487   2.640  -1.626  0.4010 -0.6975 -0.3826
   40DOPE   C25 5073  -0.331   2.785  -1.551  0.1198  0.4496  0.0591
   40DOPE   H5R 5074  -0.360   2.870  -1.616  1.3901  1.1007  0.3164
   40DOPE   H5S 5075  -0.220   2.781  -1.553  0.0778 -1.3123 -1.6005
   40DOPE   C26 5076  -0.375   2.800  -1.407 -0.0019  0.0888  0.0767
   40DOPE   H6R 5077  -0.372   2.703  -1.354 -1.2757 -0.1698 -0.2912
   40DOPE   H6S 5078  -0.478   2.843  -1.406 -0.3151 -0.5962 -1.2951
   40DOPE   C27 5079  -0.286   2.898  -1.333  0.0913 -0.1844 -0.1230
   40DOPE   H7R 5080  -0.303   2.994  -1.387  0.4757  0.1254  0.2962
   40DOPE   H7S 5081  -0.178   2.871  -1.340  0.0456 -0.4031  0.0177
   40DOPE   C28 5082  -0.323   2.917  -1.185 -0.0580 -0.0323 -0.7267
   40DOPE   H8R 5083  -0.285   2.829  -1.129 -0.6748 -0.3782 -0.8381
   40DOPE   H8S 5084  -0.434   2.921  -1.178 -0.3302 -3.8854 -0.6426
   40DOPE   C29 5085  -0.262   3.046  -1.127  0.1999 -0.4163 -0.8598
   40DOPE   H9R 5086  -0.280   3.140  -1.180  2.2218 -0.4111 -1.6049
   40DOPE  C210 5087  -0.192   3.065  -1.015 -0.6812  0.5931 -0.3928
   40DOPE  H10R 5088  -0.167   3.164  -0.974  0.0089 -0.0746  0.8787
   40DOPE  C211 5089  -0.161   2.948  -0.916 -0.0807 -0.1541  0.3236
   40DOPE  H11R 5090  -0.064   2.973  -0.867  0.1102 -1.1926  0.5072
   40DOPE  H11S 5091  -0.148   2.848  -0.963  0.5695 -0.0819  0.3318
   40DOPE  C212 5092  -0.267   2.937  -0.805  0.5944 -1.0333 -0.9953
   40DOPE  H12R 5093  -0.256   2.847  -0.741 -0.6007  0.1488  1.0033
   40DOPE  H12S 5094  -0.362   2.918  -0.861  0.6741  0.8626 -1.8590
   40DOPE  C213 5095  -0.289   3.060  -0.709 -0.1404  0.4133  0.2820
   40DOPE  H13R 5096  -0.373   3.040  -0.638 -0.3031 -0.6697 -0.1942
   40DOPE  H13S 5097  -0.321   3.143  -0.775 -0.2853  0.6487  0.6439
   40DOPE  C214 5098  -0.163   3.112  -0.635  0.0200  0.3546 -0.3712
   40DOPE  H14R 5099  -0.181   3.213  -0.592  0.4626  0.9014 -1.4256
   40DOPE  H14S 5100  -0.073   3.125  -0.698  0.5207 -1.9172 -0.2338
   40DOPE  C215 5101  -0.111   3.006  -0.534  0.4743 -0.3096 -0.9070
   40DOPE  H15R 5102  -0.012   3.045  -0.503  0.6292  0.2597 -2.0644
   40DOPE  H15S 5103  -0.086   2.912  -0.587  2.3652 -0.2536 -0.2103
   40DOPE  C216 5104  -0.194   2.996  -0.404 -0.0759 -0.0269 -0.3006
   40DOPE  H16R 5105  -0.297   2.957  -0.422  0.5898 -2.3683  0.6049
   40DOPE  H16S 5106  -0.191   3.094  -0.351 -0.2909 -0.8542  1.3067
   40DOPE  C217 5107  -0.117   2.902  -0.314  0.2870  0.3678 -0.5472
   40DOPE  H17R 5108  -0.007   2.909  -0.327  0.3097 -0.1983 -0.7004
   40DOPE  H17S 5109  -0.122   2.800  -0.358  0.6143 -1.0864  2.5397
   40DOPE  C218 5110  -0.150   2.904  -0.162 -0.3420 -0.5649  0.7403
   40DOPE  H18R 5111  -0.260   2.897  -0.143 -0.6975  3.3315  0.8120
   40DOPE  H18S 5112  -0.116   3.007  -0.140 -3.4233  1.4351 -2.7317
   40DOPE  H18T 5113  -0.095   2.820  -0.115  0.6043 -0.8630 -0.8239
   40DOPE   C33 5114  -0.085   3.190  -1.977  0.3952 -0.6765 -0.1866
   40DOPE   H3X 5115  -0.190   3.157  -1.993  0.1964 -0.3410  0.4047
   40DOPE   H3Y 5116  -0.066   3.238  -2.075  0.4144 -0.4926 -0.0938
   40DOPE   C34 5117  -0.056   3.300  -1.858 -0.1609  0.8594  0.2882
   40DOPE   H4X 5118   0.054   3.299  -1.848  0.1303  0.1009 -2.3974
   40DOPE   H4Y 5119  -0.092   3.393  -1.905  0.0771 -0.2555 -2.2528
   40DOPE   C35 5120  -0.140   3.265  -1.733 -0.1331  0.4360  0.1439
   40DOPE   H5X 5121  -0.126   3.159  -1.703 -0.1802  0.7010  1.1355
   40DOPE   H5Y 5122  -0.246   3.294  -1.746  0.2425  1.4861 -0.8001
   40DOPE   C36 5123  -0.087   3.354  -1.620  0.7220 -0.1024 -0.3971
   40DOPE   H6X 5124  -0.124   3.455  -1.646 -0.5938 -0.5449 -0.3184
   40DOPE   H6Y 5125   0.023   3.340  -1.622  0.8290  0.8057 -1.6208
   40DOPE   C37 5126  -0.141   3.323  -1.478 -0.0389 -0.2527 -0.5750
   40DOPE   H7X 5127  -0.251   3.335  -1.486 -0.4126 -3.1330 -1.0426
   40DOPE   H7Y 5128  -0.116   3.223  -1.436  0.3548 -0.4404 -1.2482
   40DOPE   C38 5129  -0.109   3.431  -1.370  0.5683  0.2470 -0.1144
   40DOPE   H8X 5130  -0.178   3.412  -1.285  1.2747 -1.9227  0.0264
   40DOPE   H8Y 5131  -0.138   3.533  -1.404 -0.8652 -1.2551 -3.9888
   40DOPE   C39 5132   0.034   3.430  -1.324 -0.0641 -0.5386  0.5544
   40DOPE   H9X 5133   0.106   3.413  -1.406 -1.2068 -0.4219 -0.5023
   40DOPE  C310 5134   0.082   3.444  -1.204 -0.3529  0.1235 -0.3272
   40DOPE  H10X 5135   0.190   3.430  -1.187 -0.1538 -1.2902 -2.3641
   40DOPE  C311 5136   0.011   3.482  -1.083  0.5927 -0.8910 -0.3290
   40DOPE  H11X 5137   0.005   3.593  -1.082 -2.5579 -0.9527 -1.2706
   40DOPE  H11Y 5138  -0.095   3.449  -1.088  0.3662 -0.3596  0.5901
   40DOPE  C312 5139   0.091   3.438  -0.958 -0.0279 -0.7492 -0.2156
   40DOPE  H12X 5140   0.178   3.504  -0.937  0.2223 -0.6594 -1.4427
   40DOPE  H12Y 5141   0.136   3.337  -0.958  1.6905 -0.0113 -0.2038
   40DOPE  C313 5142  -0.006   3.441  -0.838 -0.0667  0.6204 -0.3293
   40DOPE  H13X 5143  -0.098   3.391  -0.875 -1.1053  2.4864 -0.3739
   40DOPE  H13Y 5144   0.036   3.375  -0.759 -1.8846 -1.3036 -0.8702
   40DOPE  C314 5145  -0.064   3.572  -0.789  0.3053  0.1852  0.4550
   40DOPE  H14X 5146  -0.149   3.552  -0.720 -0.4745  0.5162 -0.3930
   40DOPE  H14Y 5147  -0.104   3.636  -0.870  0.7030 -1.8562 -1.4279
   40DOPE  C315 5148   0.028   3.649  -0.689 -0.1299  0.7763 -0.0092
   40DOPE  H15X 5149   0.072   3.733  -0.746  0.2338  0.6325  0.0573
   40DOPE  H15Y 5150   0.115   3.589  -0.656  2.5847  4.6038  0.4949
   40DOPE  C316 5151  -0.027   3.699  -0.559  0.2412 -0.6138  0.8387
   40DOPE  H16X 5152  -0.107   3.632  -0.521 -0.5726 -0.0447  0.1633
   40DOPE  H16Y 5153  -0.079   3.796  -0.571  0.7857 -0.5405 -1.3399
   40DOPE  C317 5154   0.081   3.698  -0.451  0.5291  0.8292 -0.3320
   40DOPE  H17X 5155   0.083   3.597  -0.405 -2.1392  0.4530 -0.8611
   40DOPE  H17Y 5156   0.180   3.729  -0.490  1.0613  0.0318  0.3439
   40DOPE  C318 5157   0.041   3.783  -0.329  0.0828 -0.4574 -0.5346
   40DOPE  H18X 5158  -0.043   3.733  -0.276  0.4497  0.7902  1.2990
   40DOPE  H18Y 5159   0.128   3.792  -0.262  0.8692  1.5014 -1.7221
   40DOPE  H18Z 5160   0.011   3.881  -0.372 -0.0020  0.1344  0.8476
   41DOPE     N 5161  -1.376   2.692  -1.992  0.7621  0.8600 -0.5279
   41DOPE   HN1 5162  -1.322   2.777  -2.019  0.4023  1.6624  1.1206
   41DOPE   HN2 5163  -1.314   2.608  -1.987 -0.6097 -0.1238  1.0223
   41DOPE   HN3 5164  -1.454   2.665  -2.056  0.2384  2.5565 -0.6378
   41DOPE   C12 5165  -1.429   2.731  -1.850 -0.9234 -0.7613  0.2117
   41DOPE  H12A 5166  -1.515   2.662  -1.837  1.1342 -2.9753  3.4029
   41DOPE  H12B 5167  -1.459   2.837  -1.868 -0.0194 -0.6260 -0.6042
   41DOPE   C11 5168  -1.328   2.710  -1.747 -0.1137 -0.6106  0.0196
   41DOPE  H11A 5169  -1.383   2.746  -1.658 -2.0710 -1.5509 -0.7522
   41DOPE  H11B 5170  -1.244   2.783  -1.752  0.7049 -1.4521  1.1497
   41DOPE     P 5171  -1.270   2.505  -1.594  0.5214  0.0528 -0.1564
   41DOPE   O13 5172  -1.169   2.570  -1.506  0.2382 -0.2649 -0.5467
   41DOPE   O14 5173  -1.248   2.363  -1.621  0.3461 -0.2705 -0.1098
   41DOPE   O11 5174  -1.412   2.523  -1.533 -0.3950  0.5954  0.3692
   41DOPE   O12 5175  -1.276   2.579  -1.734  0.1230 -0.4805 -0.1108
   41DOPE    C1 5176  -1.522   2.448  -1.598 -0.3566 -0.0996 -0.1334
   41DOPE    HA 5177  -1.508   2.338  -1.594 -2.0396 -0.3050  1.2354
   41DOPE    HB 5178  -1.530   2.486  -1.702  0.4059 -1.4421 -0.7148
   41DOPE    C2 5179  -1.655   2.459  -1.536  0.2199  0.0015 -0.1056
   41DOPE    HS 5180  -1.685   2.566  -1.539 -0.3287 -0.1723 -1.1023
   41DOPE   O21 5181  -1.640   2.399  -1.406 -0.0800  0.1929 -0.1254
   41DOPE   C21 5182  -1.718   2.449  -1.307  0.3685 -0.4001  0.9049
   41DOPE   O22 5183  -1.809   2.529  -1.328  0.5732 -0.4575 -0.7432
   41DOPE   C22 5184  -1.683   2.386  -1.172  0.5808  0.2295  0.6833
   41DOPE   H2R 5185  -1.576   2.415  -1.157 -0.0343  2.0543  1.8787
   41DOPE   H2S 5186  -1.689   2.276  -1.188  1.9598  0.2992 -0.5063
   41DOPE    C3 5187  -1.762   2.374  -1.610 -0.5798  0.0144 -0.1621
   41DOPE    HX 5188  -1.766   2.421  -1.711  2.6373 -0.7114 -0.7281
   41DOPE    HY 5189  -1.862   2.383  -1.562 -1.2279  1.1570 -1.6160
   41DOPE   O31 5190  -1.720   2.232  -1.626 -0.4261 -0.1304  0.1773
   41DOPE   C31 5191  -1.806   2.154  -1.694 -0.1912 -0.6574 -0.1081
   41DOPE   O32 5192  -1.901   2.197  -1.760  0.4558 -0.5848  0.9045
   41DOPE   C32 5193  -1.791   2.013  -1.642  0.2137 -0.2023  0.5237
   41DOPE   H2X 5194  -1.778   1.953  -1.735  1.2419 -0.3924  0.7849
   41DOPE   H2Y 5195  -1.704   2.002  -1.574  0.9165 -0.8125 -0.4434
   41DOPE   C23 5196  -1.763   2.439  -1.052  0.3169  0.2840 -0.3637
   41DOPE   H3R 5197  -1.872   2.428  -1.072  0.7721 -0.3464 -2.9024
   41DOPE   H3S 5198  -1.747   2.548  -1.038 -1.8947  0.7613 -1.0445
   41DOPE   C24 5199  -1.719   2.376  -0.926  0.1538 -0.2096 -0.3221
   41DOPE   H4R 5200  -1.608   2.375  -0.912 -0.0537 -2.8695  1.9104
   41DOPE   H4S 5201  -1.735   2.267  -0.919 -0.7716 -0.0115  1.0595
   41DOPE   C25 5202  -1.775   2.445  -0.800 -0.3906  0.9188 -0.2653
   41DOPE   H5R 5203  -1.756   2.382  -0.711 -0.5428 -1.9721 -2.1344
   41DOPE   H5S 5204  -1.886   2.453  -0.800 -0.5430 -0.7857  0.4784
   41DOPE   C26 5205  -1.714   2.584  -0.774 -0.2680 -0.9014  0.5115
   41DOPE   H6R 5206  -1.743   2.652  -0.857  1.1142  0.5312  1.1588
   41DOPE   H6S 5207  -1.604   2.590  -0.783 -0.3370  0.8515  0.4092
   41DOPE   C27 5208  -1.753   2.643  -0.640 -0.6598 -0.0853  0.4822
   41DOPE   H7R 5209  -1.862   2.623  -0.637 -0.3945 -1.6913  0.6050
   41DOPE   H7S 5210  -1.739   2.753  -0.630  0.5331 -0.2343  0.5964
   41DOPE   C28 5211  -1.684   2.577  -0.517 -0.0271  0.1827 -0.4300
   41DOPE   H8R 5212  -1.721   2.473  -0.524 -0.1587 -0.0218  2.3686
   41DOPE   H8S 5213  -1.735   2.625  -0.431  0.7192  1.3348 -0.6030
   41DOPE   C29 5214  -1.531   2.569  -0.509 -0.4886  0.3066  0.2185
   41DOPE   H9R 5215  -1.491   2.479  -0.559  0.8791  0.3821  1.1164
   41DOPE  C210 5216  -1.444   2.655  -0.459 -0.2303  0.3390  0.5036
   41DOPE  H10R 5217  -1.335   2.638  -0.457 -0.5580 -2.2068  0.0446
   41DOPE  C211 5218  -1.486   2.774  -0.379  0.1339 -0.0556  0.3794
   41DOPE  H11R 5219  -1.584   2.821  -0.400  0.8314  0.9284 -0.8181
   41DOPE  H11S 5220  -1.416   2.857  -0.398  0.5490 -0.6403 -0.7441
   41DOPE  C212 5221  -1.507   2.729  -0.238 -0.6387  0.3407  0.0763
   41DOPE  H12R 5222  -1.414   2.682  -0.201  0.0559 -0.9165 -2.9927
   41DOPE  H12S 5223  -1.574   2.641  -0.242  1.0953 -0.9965 -2.4463
   41DOPE  C213 5224  -1.549   2.832  -0.134  0.1779 -0.0963 -0.1913
   41DOPE  H13R 5225  -1.633   2.784  -0.079  2.9754 -1.8945  2.8515
   41DOPE  H13S 5226  -1.592   2.913  -0.196  1.5849  1.0262  0.2429
   41DOPE  C214 5227  -1.447   2.899  -0.041 -0.2462 -0.5156 -0.3162
   41DOPE  H14R 5228  -1.359   2.924  -0.104 -1.2065  2.7651 -0.5695
   41DOPE  H14S 5229  -1.431   2.822   0.037 -1.8997  1.6635  2.3454
   41DOPE  C215 5230  -1.499   3.024   0.037 -0.9582 -0.7800  0.5346
   41DOPE  H15R 5231  -1.589   3.006   0.099 -0.9254  2.3547  1.6309
   41DOPE  H15S 5232  -1.535   3.092  -0.043  1.3453 -1.3734 -1.1394
   41DOPE  C216 5233  -1.381   3.093   0.107 -0.7099 -0.2043  0.1119
   41DOPE  H16R 5234  -1.410   3.200   0.107 -0.0206 -0.0152  0.0552
   41DOPE  H16S 5235  -1.283   3.091   0.054 -0.4670 -1.9105  0.5501
   41DOPE  C217 5236  -1.367   3.056   0.258 -0.4275  0.0025  0.0136
   41DOPE  H17R 5237  -1.337   2.949   0.264 -2.2478 -0.4720  1.4876
   41DOPE  H17S 5238  -1.466   3.072   0.307 -1.6056  0.5734 -2.3791
   41DOPE  C218 5239  -1.275   3.143   0.337 -0.3492  0.4792 -0.2715
   41DOPE  H18R 5240  -1.168   3.138   0.308 -1.0335 -1.3160 -2.8857
   41DOPE  H18S 5241  -1.294   3.124   0.445 -0.0611  0.8331 -0.1561
   41DOPE  H18T 5242  -1.321   3.244   0.332 -1.0343  0.3864  2.6396
   41DOPE   C33 5243  -1.929   1.954  -1.596 -0.0113  0.2841  0.5045
   41DOPE   H3X 5244  -1.902   1.849  -1.572 -0.7291  0.2144  1.0413
   41DOPE   H3Y 5245  -2.002   1.949  -1.680 -2.3914  0.6493  2.4387
   41DOPE   C34 5246  -1.999   2.027  -1.488  0.2261  0.5800  0.0837
   41DOPE   H4X 5247  -2.046   2.122  -1.523 -0.8650 -0.3173 -0.9692
   41DOPE   H4Y 5248  -2.084   1.960  -1.464  0.1506  0.8043  0.4573
   41DOPE   C35 5249  -1.921   2.046  -1.361 -0.0329 -0.6753 -1.0780
   41DOPE   H5X 5250  -1.833   2.108  -1.385 -0.1758 -0.6802 -1.6302
   41DOPE   H5Y 5251  -1.886   1.945  -1.332  1.8769 -0.4758 -2.5202
   41DOPE   C36 5252  -2.008   2.089  -1.245  0.1217  0.2682 -0.1562
   41DOPE   H6X 5253  -2.101   2.028  -1.252  0.0996  0.2251  0.4414
   41DOPE   H6Y 5254  -2.018   2.200  -1.244  0.3976  0.2927  0.7669
   41DOPE   C37 5255  -1.936   2.060  -1.108  0.0821 -0.0556  0.8791
   41DOPE   H7X 5256  -1.868   1.972  -1.113  2.8264  1.9246  0.6763
   41DOPE   H7Y 5257  -1.860   2.140  -1.094  0.5554 -0.2130 -0.5460
   41DOPE   C38 5258  -2.032   2.045  -0.988 -0.0555  0.3897 -0.1753
   41DOPE   H8X 5259  -1.980   2.005  -0.898  0.1025  1.8394  0.3972
   41DOPE   H8Y 5260  -2.107   1.967  -1.013  1.2108 -0.5098 -1.3833
   41DOPE   C39 5261  -2.100   2.175  -0.955  0.0483 -0.0699  0.9410
   41DOPE   H9X 5262  -2.078   2.259  -1.021 -2.0607 -0.3620 -0.2023
   41DOPE  C310 5263  -2.195   2.194  -0.860 -0.4473 -0.3027 -0.0518
   41DOPE  H10X 5264  -2.239   2.294  -0.847  2.1611  0.6367  2.8558
   41DOPE  C311 5265  -2.245   2.092  -0.755 -0.6058  0.3731  0.0425
   41DOPE  H11X 5266  -2.353   2.067  -0.758 -1.7170  4.5009 -1.8258
   41DOPE  H11Y 5267  -2.192   1.995  -0.769 -0.0680  0.9984 -2.8669
   41DOPE  C312 5268  -2.221   2.146  -0.609 -0.1721 -0.1798 -0.1405
   41DOPE  H12X 5269  -2.276   2.084  -0.535  2.4140 -0.0756  2.0054
   41DOPE  H12Y 5270  -2.260   2.250  -0.612 -1.8341 -0.7760 -0.5722
   41DOPE  C313 5271  -2.072   2.134  -0.569 -0.0219 -0.9746 -0.6239
   41DOPE  H13X 5272  -2.022   2.035  -0.575  1.5980 -0.2781  0.4341
   41DOPE  H13Y 5273  -2.016   2.204  -0.635  0.2445 -2.6869 -2.2999
   41DOPE  C314 5274  -2.060   2.169  -0.417  0.1217 -0.0674  0.3531
   41DOPE  H14X 5275  -2.115   2.092  -0.359 -0.0194  0.6294  1.1713
   41DOPE  H14Y 5276  -2.114   2.265  -0.400  1.2314  0.2144  2.6461
   41DOPE  C315 5277  -1.911   2.174  -0.378 -0.2701 -0.3077 -0.5449
   41DOPE  H15X 5278  -1.853   2.243  -0.442  1.1645  0.9295  1.9288
   41DOPE  H15Y 5279  -1.886   2.067  -0.389 -1.9321 -0.8206  0.3093
   41DOPE  C316 5280  -1.884   2.218  -0.228  0.8588 -0.0168  0.0463
   41DOPE  H16X 5281  -1.929   2.150  -0.153  0.7776  1.5321  1.4643
   41DOPE  H16Y 5282  -1.932   2.318  -0.220  1.5577  0.3587 -0.3496
   41DOPE  C317 5283  -1.737   2.249  -0.195 -0.8071 -0.2916  0.0915
   41DOPE  H17X 5284  -1.666   2.164  -0.183 -2.2075 -1.2288  2.3084
   41DOPE  H17Y 5285  -1.698   2.315  -0.276 -1.0838 -0.1478  0.0757
   41DOPE  C318 5286  -1.726   2.331  -0.064  0.2748  0.1964  0.2591
   41DOPE  H18X 5287  -1.786   2.283   0.015  0.7049  1.2139  1.2367
   41DOPE  H18Y 5288  -1.627   2.335  -0.013  0.6034  0.4032 -0.3901
   41DOPE  H18Z 5289  -1.780   2.427  -0.077 -2.5344 -1.4247 -0.7680
   42DOPE     N 5290  -3.301   1.630  -2.802  0.3247 -0.2618 -0.4598
   42DOPE   HN1 5291  -3.363   1.625  -2.885 -0.6611  0.1279  0.2304
   42DOPE   HN2 5292  -3.356   1.689  -2.737  1.3419 -0.7112  0.8509
   42DOPE   HN3 5293  -3.215   1.685  -2.824  0.3049 -0.2131 -0.4139
   42DOPE   C12 5294  -3.258   1.498  -2.730  0.7278  0.4372 -0.1276
   42DOPE  H12A 5295  -3.211   1.533  -2.635  0.2265 -0.3711  0.4343
   42DOPE  H12B 5296  -3.192   1.441  -2.797 -1.4498 -2.2051 -0.1988
   42DOPE   C11 5297  -3.384   1.409  -2.699 -0.1452  0.4846 -0.1629
   42DOPE  H11A 5298  -3.339   1.315  -2.662  0.5209  1.2858  1.1528
   42DOPE  H11B 5299  -3.433   1.389  -2.797 -1.6109 -0.3917  0.7173
   42DOPE     P 5300  -3.462   1.460  -2.444  0.0817  0.0936  0.2577
   42DOPE   O13 5301  -3.591   1.480  -2.377 -0.2504 -0.2967 -0.1504
   42DOPE   O14 5302  -3.355   1.558  -2.412  0.0592 -0.3597  0.0955
   42DOPE   O11 5303  -3.408   1.319  -2.406  0.0842 -0.3997  0.1838
   42DOPE   O12 5304  -3.483   1.458  -2.604  0.4473 -0.5619  0.4260
   42DOPE    C1 5305  -3.359   1.298  -2.270 -0.2856  0.4107 -0.2192
   42DOPE    HA 5306  -3.290   1.379  -2.238  0.6695 -0.4312 -0.1085
   42DOPE    HB 5307  -3.293   1.211  -2.252 -0.3109  0.2193 -1.0238
   42DOPE    C2 5308  -3.475   1.292  -2.163  0.1791  0.4024 -0.0222
   42DOPE    HS 5309  -3.528   1.387  -2.183  1.2131  0.2451 -4.4288
   42DOPE   O21 5310  -3.398   1.287  -2.043  0.1699  0.0894 -0.2799
   42DOPE   C21 5311  -3.434   1.358  -1.929 -0.9176  0.1870  0.7539
   42DOPE   O22 5312  -3.524   1.436  -1.924 -0.4968  0.1104 -0.6039
   42DOPE   C22 5313  -3.347   1.307  -1.814  0.5713  0.1018  0.3482
   42DOPE   H2R 5314  -3.241   1.296  -1.848  0.5775 -0.2206  0.4714
   42DOPE   H2S 5315  -3.379   1.203  -1.793  2.4203 -0.7226 -0.6644
   42DOPE    C3 5316  -3.559   1.170  -2.178 -0.3662 -0.4297  0.1379
   42DOPE    HX 5317  -3.494   1.085  -2.209 -0.1709  0.2890 -1.5717
   42DOPE    HY 5318  -3.631   1.170  -2.263  0.5458  0.6440 -0.6698
   42DOPE   O31 5319  -3.623   1.136  -2.049  0.2759 -0.1794  0.3112
   42DOPE   C31 5320  -3.732   1.198  -2.024  0.6676 -0.0598  0.6799
   42DOPE   O32 5321  -3.787   1.277  -2.104  0.3413 -0.2191 -0.1569
   42DOPE   C32 5322  -3.787   1.158  -1.890  0.3111  0.0820  1.0168
   42DOPE   H2X 5323  -3.778   1.047  -1.890  0.2532  0.0340 -1.0047
   42DOPE   H2Y 5324  -3.718   1.208  -1.818  1.3924 -0.4538  0.3785
   42DOPE   C23 5325  -3.369   1.383  -1.684  1.1583 -0.3865 -0.2797
   42DOPE   H3R 5326  -3.357   1.318  -1.594 -2.2573 -1.2246 -0.2997
   42DOPE   H3S 5327  -3.475   1.413  -1.673  0.6985 -1.6512 -1.0357
   42DOPE   C24 5328  -3.280   1.508  -1.667  0.1575 -0.3025 -0.3722
   42DOPE   H4R 5329  -3.301   1.581  -1.748  3.1293 -0.6223 -1.5850
   42DOPE   H4S 5330  -3.171   1.490  -1.679  0.3535  0.3784  0.3058
   42DOPE   C25 5331  -3.306   1.578  -1.534  0.1417 -0.0228  0.6003
   42DOPE   H5R 5332  -3.416   1.576  -1.520 -0.0711 -0.1025 -0.8882
   42DOPE   H5S 5333  -3.267   1.682  -1.539 -0.2809  0.1008 -3.4275
   42DOPE   C26 5334  -3.238   1.502  -1.418 -0.0214  0.9884 -0.0456
   42DOPE   H6R 5335  -3.131   1.486  -1.443 -0.1573 -0.8709  0.4210
   42DOPE   H6S 5336  -3.271   1.396  -1.411 -0.6682  1.2660  1.7422
   42DOPE   C27 5337  -3.256   1.571  -1.279  0.2628  0.0600 -0.0848
   42DOPE   H7R 5338  -3.364   1.552  -1.261 -0.5648  1.0395 -3.3569
   42DOPE   H7S 5339  -3.240   1.680  -1.293  2.2080 -0.1288  0.3751
   42DOPE   C28 5340  -3.169   1.528  -1.156 -0.2473  1.0761 -0.2717
   42DOPE   H8R 5341  -3.062   1.509  -1.181  0.3222  1.1199  1.8901
   42DOPE   H8S 5342  -3.193   1.420  -1.143  0.8192  0.9662  1.0417
   42DOPE   C29 5343  -3.172   1.599  -1.020 -0.2995 -0.3433  0.0171
   42DOPE   H9R 5344  -3.106   1.688  -1.024 -2.2999  1.1709 -2.8630
   42DOPE  C210 5345  -3.239   1.574  -0.910 -0.1180  0.1064 -0.0329
   42DOPE  H10R 5346  -3.229   1.641  -0.823  1.7490  0.8958 -0.7892
   42DOPE  C211 5347  -3.322   1.456  -0.873  0.0484  0.4163 -0.6457
   42DOPE  H11R 5348  -3.268   1.388  -0.804  0.1593  0.6692 -0.4781
   42DOPE  H11S 5349  -3.360   1.403  -0.962  0.7355 -0.0120 -0.6880
   42DOPE  C212 5350  -3.451   1.502  -0.797  1.3702 -0.9339 -0.1828
   42DOPE  H12R 5351  -3.527   1.422  -0.810  1.1657 -0.7783  0.0481
   42DOPE  H12S 5352  -3.505   1.588  -0.841  0.2710 -0.5790  1.7472
   42DOPE  C213 5353  -3.422   1.520  -0.646 -0.3254  0.5419 -0.1967
   42DOPE  H13R 5354  -3.329   1.581  -0.637  0.9970 -1.3642 -0.1763
   42DOPE  H13S 5355  -3.389   1.423  -0.604 -0.8691  0.2655 -0.4042
   42DOPE  C214 5356  -3.524   1.594  -0.564 -0.6238 -0.5678  0.9550
   42DOPE  H14R 5357  -3.609   1.526  -0.546 -0.3606 -1.5202 -1.1234
   42DOPE  H14S 5358  -3.546   1.673  -0.639  2.2211 -3.1802 -3.0552
   42DOPE  C215 5359  -3.467   1.661  -0.436 -0.0745 -0.5355 -0.4783
   42DOPE  H15R 5360  -3.561   1.694  -0.387 -0.9360  1.1149 -3.0237
   42DOPE  H15S 5361  -3.403   1.751  -0.448  0.1730 -0.3852  1.6433
   42DOPE  C216 5362  -3.389   1.569  -0.343  0.5564  0.3294  0.3633
   42DOPE  H16R 5363  -3.315   1.511  -0.403 -0.5564  0.4016 -1.1384
   42DOPE  H16S 5364  -3.457   1.493  -0.299  0.4306 -0.2995 -0.8785
   42DOPE  C217 5365  -3.334   1.653  -0.229  0.1104  0.8190 -0.0732
   42DOPE  H17R 5366  -3.424   1.699  -0.184 -1.6718 -0.6155 -2.0130
   42DOPE  H17S 5367  -3.271   1.734  -0.272 -0.9287  1.6155 -0.1218
   42DOPE  C218 5368  -3.251   1.572  -0.135  0.0283 -0.1256  0.0235
   42DOPE  H18R 5369  -3.303   1.498  -0.071 -0.6380  1.6169  1.5855
   42DOPE  H18S 5370  -3.209   1.634  -0.053 -1.4017  1.1342 -0.1589
   42DOPE  H18T 5371  -3.172   1.524  -0.196 -2.2544 -1.5200 -1.9911
   42DOPE   C33 5372  -3.935   1.165  -1.869  0.9049 -1.0757 -0.3626
   42DOPE   H3X 5373  -3.990   1.108  -1.946 -0.9075 -0.8446  0.7053
   42DOPE   H3Y 5374  -3.966   1.271  -1.881  0.8729 -1.1639 -1.0972
   42DOPE   C34 5375  -3.974   1.108  -1.732 -0.2777 -0.1037 -0.3020
   42DOPE   H4X 5376  -4.085   1.110  -1.742 -0.5185 -0.6797  1.8961
   42DOPE   H4Y 5377  -3.945   1.000  -1.731  1.5101  0.1777 -3.6848
   42DOPE   C35 5378  -3.920   1.197  -1.621 -0.2378  0.5984 -0.1788
   42DOPE   H5X 5379  -3.953   1.302  -1.638 -2.2440  0.5566  2.7269
   42DOPE   H5Y 5380  -3.809   1.192  -1.614 -0.2683 -0.1515 -0.1248
   42DOPE   C36 5381  -3.969   1.147  -1.475 -0.3649 -0.2124 -0.5628
   42DOPE   H6X 5382  -3.935   1.042  -1.460 -0.0496  0.0625  0.8123
   42DOPE   H6Y 5383  -4.080   1.144  -1.482 -0.3772  1.3651 -1.6681
   42DOPE   C37 5384  -3.929   1.232  -1.358 -0.7386  0.0491 -0.5380
   42DOPE   H7X 5385  -3.818   1.234  -1.365 -0.6282 -1.2667  0.4172
   42DOPE   H7Y 5386  -3.951   1.339  -1.379 -0.2428  0.0304 -1.1796
   42DOPE   C38 5387  -3.993   1.195  -1.231  0.5566  0.4561  0.4454
   42DOPE   H8X 5388  -3.964   1.088  -1.224  1.1701  0.6323  0.6781
   42DOPE   H8Y 5389  -4.103   1.202  -1.244  0.2634 -1.2170  1.7405
   42DOPE   C39 5390  -3.938   1.283  -1.120  0.1696  0.5188  0.0048
   42DOPE   H9X 5391  -3.960   1.389  -1.138 -1.6907  0.0524 -0.7477
   42DOPE  C310 5392  -3.869   1.252  -1.005  0.6277  0.2897 -0.4334
   42DOPE  H10X 5393  -3.838   1.332  -0.937 -0.9869 -1.0897  2.0901
   42DOPE  C311 5394  -3.815   1.115  -0.974  0.1242  0.2665 -0.2009
   42DOPE  H11X 5395  -3.895   1.042  -0.950  0.2011 -0.3695 -1.7987
   42DOPE  H11Y 5396  -3.772   1.062  -1.062  0.2580 -1.8698  1.0766
   42DOPE  C312 5397  -3.709   1.113  -0.864 -0.1853  0.3668  0.2831
   42DOPE  H12X 5398  -3.629   1.188  -0.880  2.6296 -1.9651  2.3212
   42DOPE  H12Y 5399  -3.658   1.015  -0.878 -0.4078 -0.1114  2.4581
   42DOPE  C313 5400  -3.758   1.126  -0.715 -0.2271  0.7717 -0.3703
   42DOPE  H13X 5401  -3.823   1.216  -0.706  0.7170  2.0097 -4.0369
   42DOPE  H13Y 5402  -3.812   1.037  -0.675 -1.4507  1.2489 -0.8910
   42DOPE  C314 5403  -3.634   1.147  -0.627  0.1203  0.1886 -0.4148
   42DOPE  H14X 5404  -3.579   1.234  -0.668  0.7677 -1.0672 -2.3698
   42DOPE  H14Y 5405  -3.566   1.059  -0.632 -1.3480 -1.0106  0.0401
   42DOPE  C315 5406  -3.663   1.159  -0.474 -0.3221 -0.3908 -0.5072
   42DOPE  H15X 5407  -3.735   1.241  -0.455  0.5645  0.0628  1.0595
   42DOPE  H15Y 5408  -3.573   1.185  -0.415  0.2866 -0.1648 -1.5015
   42DOPE  C316 5409  -3.731   1.034  -0.422 -0.1503  0.6413 -0.8805
   42DOPE  H16X 5410  -3.672   0.941  -0.441  0.6163  0.8369  0.4333
   42DOPE  H16Y 5411  -3.831   1.015  -0.466 -0.0462 -0.3110 -0.7171
   42DOPE  C317 5412  -3.751   1.033  -0.273 -0.1267 -0.2141  0.0988
   42DOPE  H17X 5413  -3.799   0.937  -0.243  0.1426 -0.4594 -0.2439
   42DOPE  H17Y 5414  -3.652   1.046  -0.223 -0.9600 -0.2884  1.8639
   42DOPE  C318 5415  -3.844   1.137  -0.203  0.0643  0.6070  0.2570
   42DOPE  H18X 5416  -3.810   1.240  -0.228  0.3156  0.7109  0.9976
   42DOPE  H18Y 5417  -3.951   1.136  -0.232  0.1904  2.0198 -0.3294
   42DOPE  H18Z 5418  -3.846   1.128  -0.092 -1.0868  0.0315  0.2095
   43DOPE     N 5419  -2.083   0.560  -2.271  0.3717 -0.2836  0.2444
   43DOPE   HN1 5420  -2.181   0.594  -2.278  0.1268 -0.1169  3.0654
   43DOPE   HN2 5421  -2.058   0.569  -2.170  0.6481 -1.9247  0.3514
   43DOPE   HN3 5422  -2.029   0.635  -2.318  0.5625 -0.1287  0.7019
   43DOPE   C12 5423  -2.072   0.415  -2.316 -0.0026 -0.4802  0.3569
   43DOPE  H12A 5424  -2.152   0.355  -2.268 -1.3503  0.1730 -0.9484
   43DOPE  H12B 5425  -1.977   0.376  -2.276 -0.6195 -1.7803  0.6037
   43DOPE   C11 5426  -2.088   0.380  -2.463  0.0699  0.5748  0.7026
   43DOPE  H11A 5427  -2.058   0.274  -2.476  0.0947  0.0262  4.2584
   43DOPE  H11B 5428  -2.006   0.416  -2.527  0.9309 -1.6129  0.4896
   43DOPE     P 5429  -2.345   0.333  -2.522  0.2876  0.0254  0.3319
   43DOPE   O13 5430  -2.319   0.193  -2.477 -0.2401 -0.1480 -0.1711
   43DOPE   O14 5431  -2.404   0.338  -2.659  0.0201 -0.2934 -0.0344
   43DOPE   O11 5432  -2.430   0.408  -2.413 -0.9233 -0.8944  0.4980
   43DOPE   O12 5433  -2.214   0.422  -2.514 -0.4879  0.4289 -0.1355
   43DOPE    C1 5434  -2.574   0.397  -2.413 -0.2658  0.5660 -0.4846
   43DOPE    HA 5435  -2.619   0.310  -2.465 -1.9617  1.0645  0.0705
   43DOPE    HB 5436  -2.626   0.488  -2.451  2.6880  2.2129 -0.9020
   43DOPE    C2 5437  -2.603   0.369  -2.263 -0.3576 -0.3334 -0.6022
   43DOPE    HS 5438  -2.710   0.342  -2.253 -0.0907 -0.7299  1.7964
   43DOPE   O21 5439  -2.573   0.482  -2.183  0.2763 -0.7417  0.3158
   43DOPE   C21 5440  -2.656   0.587  -2.186 -0.1309 -0.2451 -0.6949
   43DOPE   O22 5441  -2.753   0.609  -2.255 -0.5451 -0.4224 -0.3981
   43DOPE   C22 5442  -2.620   0.686  -2.068 -0.6944 -0.2437 -0.1509
   43DOPE   H2R 5443  -2.681   0.776  -2.090 -0.9049 -0.3198  0.1082
   43DOPE   H2S 5444  -2.517   0.723  -2.089 -0.6637  0.0736  0.5305
   43DOPE    C3 5445  -2.536   0.246  -2.196  0.5072 -0.3613 -0.1094
   43DOPE    HX 5446  -2.434   0.232  -2.238  0.5841 -1.4992  0.4228
   43DOPE    HY 5447  -2.597   0.161  -2.234  0.8454  0.0986 -1.7614
   43DOPE   O31 5448  -2.542   0.251  -2.054  0.3325 -0.0240  0.2882
   43DOPE   C31 5449  -2.433   0.289  -2.004 -0.0794  0.0126 -0.1961
   43DOPE   O32 5450  -2.326   0.306  -2.057 -0.1326  0.2479  0.3392
   43DOPE   C32 5451  -2.450   0.271  -1.851  0.1089  0.0988  0.1376
   43DOPE   H2X 5452  -2.525   0.349  -1.828  0.0254 -0.1250  0.6464
   43DOPE   H2Y 5453  -2.485   0.167  -1.836  1.0547 -0.2673 -0.1012
   43DOPE   C23 5454  -2.641   0.630  -1.931  0.0453 -0.0649 -0.0050
   43DOPE   H3R 5455  -2.573   0.543  -1.917 -0.0761 -0.2686 -0.6550
   43DOPE   H3S 5456  -2.746   0.598  -1.914  0.1521  0.0120  0.8268
   43DOPE   C24 5457  -2.613   0.740  -1.827  0.0549  0.0239  0.1437
   43DOPE   H4R 5458  -2.682   0.822  -1.855  0.7007  0.9789  1.2622
   43DOPE   H4S 5459  -2.504   0.762  -1.839 -0.5894  1.7969 -4.5573
   43DOPE   C25 5460  -2.637   0.704  -1.684  0.3731  0.2465 -0.5137
   43DOPE   H5R 5461  -2.553   0.640  -1.649  0.5306  0.9599  0.4561
   43DOPE   H5S 5462  -2.725   0.638  -1.668 -1.3219  2.8807  2.0082
   43DOPE   C26 5463  -2.647   0.834  -1.601  0.2762  0.9288 -0.0197
   43DOPE   H6R 5464  -2.720   0.912  -1.632 -0.9617  0.2304  1.0589
   43DOPE   H6S 5465  -2.560   0.904  -1.604 -0.7406  2.2704  0.6951
   43DOPE   C27 5466  -2.695   0.786  -1.462  0.1630 -0.1417  0.8800
   43DOPE   H7R 5467  -2.787   0.724  -1.470 -0.3203  0.6320  0.3408
   43DOPE   H7S 5468  -2.713   0.877  -1.401 -0.7939  1.4977 -1.7103
   43DOPE   C28 5469  -2.597   0.691  -1.390 -0.4979 -0.1356  0.0318
   43DOPE   H8R 5470  -2.510   0.759  -1.384 -1.7500  1.5776 -0.6105
   43DOPE   H8S 5471  -2.569   0.605  -1.454  0.5497  0.0593  0.2009
   43DOPE   C29 5472  -2.657   0.630  -1.267  0.2503 -0.0529 -0.4537
   43DOPE   H9R 5473  -2.735   0.555  -1.286  3.1055 -2.9412 -1.8277
   43DOPE  C210 5474  -2.620   0.644  -1.141  0.3861  0.5867 -0.4975
   43DOPE  H10R 5475  -2.687   0.612  -1.061 -0.3059  3.2737  0.1046
   43DOPE  C211 5476  -2.504   0.728  -1.095 -0.4372 -0.2022 -0.7268
   43DOPE  H11R 5477  -2.455   0.774  -1.183  1.5761 -2.6645 -1.0094
   43DOPE  H11S 5478  -2.430   0.662  -1.046 -3.0305 -1.7423  1.4150
   43DOPE  C212 5479  -2.552   0.833  -0.987 -0.5044 -0.6485  0.0990
   43DOPE  H12R 5480  -2.630   0.890  -1.042  0.6298  1.3253  0.4401
   43DOPE  H12S 5481  -2.472   0.909  -0.974 -1.5049  0.3492  0.6957
   43DOPE  C213 5482  -2.598   0.777  -0.859  0.6108 -0.2639  0.7617
   43DOPE  H13R 5483  -2.529   0.701  -0.816  3.2285  0.2594 -2.1633
   43DOPE  H13S 5484  -2.689   0.716  -0.879  0.9744 -1.5690  2.7652
   43DOPE  C214 5485  -2.635   0.878  -0.749 -0.7056 -0.0836  0.1454
   43DOPE  H14R 5486  -2.726   0.936  -0.777  0.4832  1.4900 -0.6159
   43DOPE  H14S 5487  -2.548   0.947  -0.747  0.2249 -1.2367  1.6782
   43DOPE  C215 5488  -2.651   0.812  -0.613 -0.0981  0.0136  0.3859
   43DOPE  H15R 5489  -2.561   0.751  -0.591 -0.3528 -0.6925 -0.4657
   43DOPE  H15S 5490  -2.741   0.747  -0.618 -0.0023 -0.1328  0.5412
   43DOPE  C216 5491  -2.679   0.918  -0.510  0.5137 -0.0517  0.2343
   43DOPE  H16R 5492  -2.768   0.971  -0.550 -0.9644 -0.8326  2.3236
   43DOPE  H16S 5493  -2.601   0.995  -0.490 -0.5801  0.9084  0.9382
   43DOPE  C217 5494  -2.716   0.868  -0.367  0.8315  0.1823  0.2906
   43DOPE  H17R 5495  -2.810   0.810  -0.377  0.4141  0.7602  0.7933
   43DOPE  H17S 5496  -2.746   0.955  -0.306 -2.4158 -1.3458  1.0752
   43DOPE  C218 5497  -2.611   0.781  -0.315 -0.1350  0.1835  0.1283
   43DOPE  H18R 5498  -2.510   0.825  -0.330 -0.3884 -0.1089 -3.1548
   43DOPE  H18S 5499  -2.595   0.688  -0.373  1.2614  0.6017 -0.1968
   43DOPE  H18T 5500  -2.628   0.765  -0.207  0.4239  0.3533  0.2468
   43DOPE   C33 5501  -2.335   0.292  -1.755 -0.2073 -0.6157 -0.3748
   43DOPE   H3X 5502  -2.282   0.385  -1.783 -0.6864 -0.8202 -2.0998
   43DOPE   H3Y 5503  -2.256   0.215  -1.771  1.2390  0.7784 -0.1222
   43DOPE   C34 5504  -2.384   0.299  -1.615 -0.2310 -0.4063  0.1029
   43DOPE   H4X 5505  -2.439   0.395  -1.609 -1.7459 -1.2623  0.6923
   43DOPE   H4Y 5506  -2.453   0.213  -1.596 -0.3722  0.0537  1.8001
   43DOPE   C35 5507  -2.271   0.297  -1.515  0.2121 -0.2854 -1.1221
   43DOPE   H5X 5508  -2.214   0.391  -1.530  0.1523  0.0786  0.7340
   43DOPE   H5Y 5509  -2.201   0.210  -1.517  0.3706 -0.2219  0.2537
   43DOPE   C36 5510  -2.327   0.314  -1.366 -0.3075  0.4791  0.1396
   43DOPE   H6X 5511  -2.385   0.408  -1.370  1.1782  1.4633 -4.4872
   43DOPE   H6Y 5512  -2.243   0.337  -1.297  0.1916  0.0230 -0.2943
   43DOPE   C37 5513  -2.412   0.199  -1.322 -0.1331 -0.0022  0.0732
   43DOPE   H7X 5514  -2.508   0.195  -1.378  0.3682 -2.7202 -0.7008
   43DOPE   H7Y 5515  -2.358   0.105  -1.344 -0.6475 -0.1714 -0.5016
   43DOPE   C38 5516  -2.451   0.218  -1.165 -0.7903 -0.3311  0.2839
   43DOPE   H8X 5517  -2.536   0.149  -1.142  0.8323 -1.9561  1.6845
   43DOPE   H8Y 5518  -2.485   0.322  -1.148 -1.0027 -0.4202  0.4151
   43DOPE   C39 5519  -2.339   0.173  -1.073 -0.2058  0.0398 -0.1437
   43DOPE   H9X 5520  -2.300   0.075  -1.105 -0.8881 -0.4793  0.5846
   43DOPE  C310 5521  -2.279   0.239  -0.972  0.1786 -0.6384 -0.0809
   43DOPE  H10X 5522  -2.197   0.185  -0.921  0.6469 -0.4675 -0.6409
   43DOPE  C311 5523  -2.311   0.380  -0.933 -0.1032  0.1811 -0.3028
   43DOPE  H11X 5524  -2.210   0.426  -0.923 -0.3869  0.3881  2.1826
   43DOPE  H11Y 5525  -2.360   0.439  -1.014 -1.1745  0.3288  0.4273
   43DOPE  C312 5526  -2.390   0.380  -0.798 -0.2326  0.4103  0.0261
   43DOPE  H12X 5527  -2.388   0.484  -0.759 -0.1093 -0.2917  1.9807
   43DOPE  H12Y 5528  -2.349   0.294  -0.741  0.7469 -0.3867 -1.7920
   43DOPE  C313 5529  -2.538   0.358  -0.832  0.2321  0.0952  0.1766
   43DOPE  H13X 5530  -2.568   0.407  -0.927 -0.9306  1.2477  1.1105
   43DOPE  H13Y 5531  -2.549   0.247  -0.831  3.4718 -0.3513 -0.3702
   43DOPE  C314 5532  -2.636   0.422  -0.732 -0.0432 -0.0861  0.1010
   43DOPE  H14X 5533  -2.736   0.384  -0.762 -0.4994  0.3343  1.0277
   43DOPE  H14Y 5534  -2.631   0.533  -0.724  1.4859 -0.0729 -0.7461
   43DOPE  C315 5535  -2.598   0.376  -0.593 -1.0264 -0.0364  0.1506
   43DOPE  H15X 5536  -2.672   0.426  -0.527 -1.5844  2.4988 -2.1928
   43DOPE  H15Y 5537  -2.495   0.397  -0.556 -1.2632 -1.5531  1.7492
   43DOPE  C316 5538  -2.629   0.227  -0.574 -0.4553 -0.7915 -0.0554
   43DOPE  H16X 5539  -2.576   0.168  -0.651  0.9904 -1.5121  1.4205
   43DOPE  H16Y 5540  -2.738   0.213  -0.584 -0.4297 -0.3020 -1.0925
   43DOPE  C317 5541  -2.591   0.176  -0.441 -0.3416 -0.9717  0.5254
   43DOPE  H17X 5542  -2.636   0.075  -0.433 -0.4655 -0.8610  1.3138
   43DOPE  H17Y 5543  -2.485   0.150  -0.420 -0.1509 -2.5637 -2.0125
   43DOPE  C318 5544  -2.639   0.254  -0.322  0.3621  0.0168 -0.4350
   43DOPE  H18X 5545  -2.743   0.292  -0.336  0.1859 -0.5939 -0.8019
   43DOPE  H18Y 5546  -2.654   0.198  -0.228  0.1465  2.9770  1.4439
   43DOPE  H18Z 5547  -2.567   0.336  -0.299 -0.4740  0.0487  2.4965
   44DOPE     N 5548  -0.812  -1.624  -2.592 -0.3585 -0.2979 -0.5762
   44DOPE   HN1 5549  -0.833  -1.562  -2.674 -1.7564 -0.1956 -0.1610
   44DOPE   HN2 5550  -0.710  -1.643  -2.589 -0.5608 -1.2620  0.6385
   44DOPE   HN3 5551  -0.860  -1.713  -2.615 -1.1488  0.1337 -0.6197
   44DOPE   C12 5552  -0.872  -1.561  -2.467 -0.0871 -0.0252 -0.3219
   44DOPE  H12A 5553  -0.949  -1.488  -2.502 -2.2547 -1.5923  0.9209
   44DOPE  H12B 5554  -0.794  -1.496  -2.421 -0.2646 -0.2369  0.2834
   44DOPE   C11 5555  -0.925  -1.666  -2.373  0.1774 -0.2118  0.6206
   44DOPE  H11A 5556  -0.935  -1.626  -2.270 -1.6245  0.4667  0.2221
   44DOPE  H11B 5557  -0.860  -1.756  -2.365 -0.1907 -0.4752  0.7127
   44DOPE     P 5558  -1.183  -1.673  -2.367 -0.2331 -0.0705  0.0111
   44DOPE   O13 5559  -1.281  -1.772  -2.424 -0.2034  0.4342  0.0623
   44DOPE   O14 5560  -1.209  -1.529  -2.396  0.2922  0.3840 -0.2258
   44DOPE   O11 5561  -1.159  -1.694  -2.210  0.0098 -0.1526  0.2645
   44DOPE   O12 5562  -1.045  -1.715  -2.430  0.2774  0.2282 -1.2464
   44DOPE    C1 5563  -1.168  -1.827  -2.151 -0.4249 -0.6205  0.2164
   44DOPE    HA 5564  -1.079  -1.891  -2.166  0.9313  0.9697  1.1028
   44DOPE    HB 5565  -1.260  -1.881  -2.183 -2.0009  1.9495  0.1349
   44DOPE    C2 5566  -1.193  -1.817  -1.994 -0.2269 -0.5337 -1.1896
   44DOPE    HS 5567  -1.181  -1.920  -1.954  2.1771  0.0068 -0.3488
   44DOPE   O21 5568  -1.326  -1.763  -1.961 -0.4825  0.5513 -0.3774
   44DOPE   C21 5569  -1.387  -1.804  -1.852 -0.0271  0.1808 -0.1957
   44DOPE   O22 5570  -1.345  -1.886  -1.778 -0.5347  0.3417 -0.0830
   44DOPE   C22 5571  -1.515  -1.723  -1.821 -0.0002 -0.3309 -0.2445
   44DOPE   H2R 5572  -1.586  -1.735  -1.906 -0.8033  0.9928  0.2108
   44DOPE   H2S 5573  -1.480  -1.618  -1.815  2.6592 -1.1382 -0.5156
   44DOPE    C3 5574  -1.081  -1.735  -1.934  0.4752 -0.5560  0.7593
   44DOPE    HX 5575  -1.089  -1.634  -1.979 -1.5803 -1.3623 -0.8573
   44DOPE    HY 5576  -0.977  -1.770  -1.955  0.0802 -1.3705  0.1247
   44DOPE   O31 5577  -1.099  -1.716  -1.788  0.2110 -0.0105  0.4528
   44DOPE   C31 5578  -1.068  -1.824  -1.710  0.0047  0.4315  0.6802
   44DOPE   O32 5579  -1.018  -1.927  -1.753  0.0981  0.3453  0.2080
   44DOPE   C32 5580  -1.114  -1.801  -1.566  0.2652  0.0748  0.0321
   44DOPE   H2X 5581  -1.100  -1.691  -1.555  2.5570 -0.0593 -1.0314
   44DOPE   H2Y 5582  -1.216  -1.841  -1.547 -0.1083  1.1424  0.3817
   44DOPE   C23 5583  -1.564  -1.764  -1.680 -0.5387 -0.1122  0.4829
   44DOPE   H3R 5584  -1.553  -1.874  -1.666 -0.3480 -0.3152 -1.0332
   44DOPE   H3S 5585  -1.673  -1.744  -1.681 -0.2835  1.4969 -1.0116
   44DOPE   C24 5586  -1.508  -1.692  -1.564  0.4486 -1.1644 -0.2198
   44DOPE   H4R 5587  -1.542  -1.586  -1.555  2.1865 -0.7008  1.6080
   44DOPE   H4S 5588  -1.397  -1.688  -1.557  0.3959 -1.0866  0.6716
   44DOPE   C25 5589  -1.539  -1.775  -1.440  0.1007  0.1497 -0.5923
   44DOPE   H5R 5590  -1.489  -1.874  -1.444 -1.0453 -0.4941  0.4268
   44DOPE   H5S 5591  -1.647  -1.796  -1.424  0.1032  0.7025  0.2102
   44DOPE   C26 5592  -1.476  -1.707  -1.311  0.0827 -0.1558  0.3441
   44DOPE   H6R 5593  -1.541  -1.625  -1.273  0.2429 -0.6100  1.6187
   44DOPE   H6S 5594  -1.377  -1.667  -1.341 -0.2453 -0.2209 -0.9046
   44DOPE   C27 5595  -1.448  -1.805  -1.196  0.1785  0.6416  0.2146
   44DOPE   H7R 5596  -1.407  -1.898  -1.240 -2.0326  0.5469 -1.8294
   44DOPE   H7S 5597  -1.540  -1.835  -1.141  1.3773 -0.5387  1.6667
   44DOPE   C28 5598  -1.345  -1.747  -1.097 -0.1957  0.0136  0.6194
   44DOPE   H8R 5599  -1.267  -1.687  -1.148 -1.6395  0.9294 -0.5935
   44DOPE   H8S 5600  -1.287  -1.833  -1.058 -0.7962 -1.3500 -1.3639
   44DOPE   C29 5601  -1.411  -1.655  -0.997  0.2549 -0.4809  0.5731
   44DOPE   H9R 5602  -1.444  -1.562  -1.045 -0.0190 -0.2394  1.2140
   44DOPE  C210 5603  -1.429  -1.666  -0.865 -0.4200 -0.0608  0.2303
   44DOPE  H10R 5604  -1.474  -1.586  -0.804  1.1946 -0.0224  1.4247
   44DOPE  C211 5605  -1.388  -1.782  -0.766  0.3947 -0.6689 -0.2984
   44DOPE  H11R 5606  -1.330  -1.854  -0.827  1.5220  1.0904 -1.3928
   44DOPE  H11S 5607  -1.476  -1.836  -0.724 -0.0977  0.2557 -0.1201
   44DOPE  C212 5608  -1.314  -1.744  -0.636  0.0644 -0.1236  0.2458
   44DOPE  H12R 5609  -1.214  -1.701  -0.657  1.3425 -2.9591 -0.0121
   44DOPE  H12S 5610  -1.285  -1.835  -0.579 -2.7129 -0.7295  0.8808
   44DOPE  C213 5611  -1.403  -1.653  -0.552 -0.2896 -0.1052  0.3585
   44DOPE  H13R 5612  -1.508  -1.671  -0.582 -0.5956  0.4941  1.0354
   44DOPE  H13S 5613  -1.392  -1.554  -0.601 -1.8977 -0.9430 -1.8273
   44DOPE  C214 5614  -1.385  -1.667  -0.397 -0.0150 -0.4600 -0.1626
   44DOPE  H14R 5615  -1.282  -1.642  -0.363  0.1256 -1.7729  0.4252
   44DOPE  H14S 5616  -1.413  -1.771  -0.369 -0.9948 -0.2035 -0.1685
   44DOPE  C215 5617  -1.484  -1.579  -0.322 -0.1876 -0.1534 -1.0571
   44DOPE  H15R 5618  -1.589  -1.603  -0.350 -0.2523 -0.1721 -0.7998
   44DOPE  H15S 5619  -1.484  -1.469  -0.342 -1.4541  0.1348  0.3539
   44DOPE  C216 5620  -1.452  -1.594  -0.173  0.0813  0.0167  0.6527
   44DOPE  H16R 5621  -1.353  -1.551  -0.144 -0.7428  2.4008  0.1837
   44DOPE  H16S 5622  -1.447  -1.705  -0.167 -0.0975 -0.0123  0.2513
   44DOPE  C217 5623  -1.562  -1.563  -0.076 -0.3033 -0.4007 -0.5333
   44DOPE  H17R 5624  -1.541  -1.616   0.019 -1.9017  0.1167  0.1520
   44DOPE  H17S 5625  -1.655  -1.606  -0.118  1.4994 -2.8923 -2.2298
   44DOPE  C218 5626  -1.586  -1.415  -0.044 -0.5013  0.1988 -0.0420
   44DOPE  H18R 5627  -1.672  -1.395   0.023 -1.3763  0.4575 -1.2061
   44DOPE  H18S 5628  -1.613  -1.363  -0.139  2.3051 -1.9501 -2.1903
   44DOPE  H18T 5629  -1.495  -1.371   0.000 -0.1887 -0.4109 -0.0673
   44DOPE   C33 5630  -1.018  -1.864  -1.464  0.0477  0.3835  0.2379
   44DOPE   H3X 5631  -0.913  -1.829  -1.473  0.0778  0.9082  2.1751
   44DOPE   H3Y 5632  -1.017  -1.974  -1.482 -0.3363  0.2386  1.0644
   44DOPE   C34 5633  -1.061  -1.835  -1.320  0.2981 -0.1165  0.1817
   44DOPE   H4X 5634  -1.080  -1.726  -1.321 -1.2038 -0.3513  0.4127
   44DOPE   H4Y 5635  -1.159  -1.878  -1.291  0.6900 -0.1613  1.5292
   44DOPE   C35 5636  -0.946  -1.861  -1.210 -0.0146 -0.2635  0.5808
   44DOPE   H5X 5637  -0.853  -1.809  -1.240 -1.1727  1.3670 -0.3307
   44DOPE   H5Y 5638  -0.938  -1.971  -1.198 -1.8845 -0.6237 -1.0969
   44DOPE   C36 5639  -0.973  -1.803  -1.071  0.1702  0.1407  0.6959
   44DOPE   H6X 5640  -1.060  -1.861  -1.034 -0.6967  1.9113  1.5370
   44DOPE   H6Y 5641  -1.006  -1.698  -1.082  1.3220  0.3394 -1.5768
   44DOPE   C37 5642  -0.846  -1.812  -0.983  0.1319 -0.0309 -0.8540
   44DOPE   H7X 5643  -0.750  -1.823  -1.036 -0.2509 -0.2176 -1.5186
   44DOPE   H7Y 5644  -0.829  -1.710  -0.942 -2.0564 -0.4415  1.3435
   44DOPE   C38 5645  -0.854  -1.906  -0.855  0.7637 -0.0431  0.3051
   44DOPE   H8X 5646  -0.752  -1.927  -0.818 -0.2500 -3.5497  1.4417
   44DOPE   H8Y 5647  -0.888  -2.010  -0.870 -1.2303  0.4477  1.0954
   44DOPE   C39 5648  -0.939  -1.840  -0.751 -0.2503 -0.2498  0.2220
   44DOPE   H9X 5649  -0.991  -1.752  -0.791  1.1465  0.1707 -0.7490
   44DOPE  C310 5650  -0.945  -1.878  -0.617  0.1601 -0.3052  0.2950
   44DOPE  H10X 5651  -0.996  -1.808  -0.549  3.3011  2.1277  0.4082
   44DOPE  C311 5652  -0.874  -1.989  -0.547 -0.3848  0.0743 -0.1209
   44DOPE  H11X 5653  -0.950  -2.066  -0.520  0.8506 -1.8488 -1.7800
   44DOPE  H11Y 5654  -0.804  -2.035  -0.620 -0.7947 -2.4503  0.9636
   44DOPE  C312 5655  -0.803  -1.948  -0.411 -0.3160 -0.3433 -0.5052
   44DOPE  H12X 5656  -0.751  -2.041  -0.379 -0.9214 -0.6574 -0.4284
   44DOPE  H12Y 5657  -0.876  -1.907  -0.338  1.1374 -0.0107  0.8348
   44DOPE  C313 5658  -0.695  -1.846  -0.421 -0.1551  0.4280 -0.0686
   44DOPE  H13X 5659  -0.614  -1.886  -0.486  2.0411  3.1131  0.8113
   44DOPE  H13Y 5660  -0.745  -1.763  -0.475 -4.8049 -1.4360  0.8731
   44DOPE  C314 5661  -0.629  -1.799  -0.286  0.2658 -0.1381 -0.0115
   44DOPE  H14X 5662  -0.563  -1.885  -0.260 -0.3890 -0.2186  1.5013
   44DOPE  H14Y 5663  -0.703  -1.794  -0.204  0.6171 -0.1094  0.3080
   44DOPE  C315 5664  -0.564  -1.661  -0.287 -0.3449  0.3057 -0.1424
   44DOPE  H15X 5665  -0.643  -1.585  -0.303 -0.0953  0.4196 -0.8675
   44DOPE  H15Y 5666  -0.488  -1.671  -0.367 -1.2695 -2.8350 -0.7607
   44DOPE  C316 5667  -0.487  -1.648  -0.149 -0.5197 -0.3146  0.5024
   44DOPE  H16X 5668  -0.431  -1.741  -0.125 -0.0417  0.6941  3.7941
   44DOPE  H16Y 5669  -0.572  -1.626  -0.081 -1.5055  0.7987 -1.0336
   44DOPE  C317 5670  -0.389  -1.531  -0.139  0.6474 -0.8180 -0.3519
   44DOPE  H17X 5671  -0.294  -1.550  -0.193  2.2132  2.8837  0.7419
   44DOPE  H17Y 5672  -0.433  -1.440  -0.186  0.6703 -1.5744 -1.8845
   44DOPE  C318 5673  -0.350  -1.498   0.004  0.2954  0.7277 -0.4238
   44DOPE  H18X 5674  -0.318  -1.392   0.003 -0.7147  1.0423 -0.4705
   44DOPE  H18Y 5675  -0.433  -1.517   0.075 -0.0386  1.8473 -0.4969
   44DOPE  H18Z 5676  -0.267  -1.566   0.033  2.1570  3.7013  1.7931
   45DOPE     N 5677  -0.066  -1.717  -2.766  0.0828 -0.2745 -0.2525
   45DOPE   HN1 5678  -0.072  -1.647  -2.843  0.7253 -0.0197 -0.0783
   45DOPE   HN2 5679   0.029  -1.725  -2.723  0.4273 -2.8268 -1.3256
   45DOPE   HN3 5680  -0.094  -1.802  -2.818  0.1445 -1.3091  1.3371
   45DOPE   C12 5681  -0.168  -1.692  -2.662 -0.5341  0.5700 -0.4653
   45DOPE  H12A 5682  -0.121  -1.613  -2.599 -0.1796 -1.4103  1.9094
   45DOPE  H12B 5683  -0.175  -1.786  -2.603 -0.2297 -0.9436 -2.7209
   45DOPE   C11 5684  -0.299  -1.640  -2.725 -0.7006 -0.5885  0.4563
   45DOPE  H11A 5685  -0.366  -1.611  -2.641  0.5487  0.9724  0.9692
   45DOPE  H11B 5686  -0.359  -1.717  -2.779  1.2278 -1.6329 -0.2974
   45DOPE     P 5687  -0.240  -1.385  -2.767  0.1411  0.4220 -0.1497
   45DOPE   O13 5688  -0.259  -1.287  -2.878 -0.2401  0.1188 -0.2602
   45DOPE   O14 5689  -0.109  -1.385  -2.701  0.2408  0.1698  0.0566
   45DOPE   O11 5690  -0.351  -1.360  -2.655 -0.3755  0.3844 -0.2101
   45DOPE   O12 5691  -0.271  -1.534  -2.815  0.1964  0.5613 -0.3606
   45DOPE    C1 5692  -0.336  -1.252  -2.559  0.2705 -0.4009 -0.1287
   45DOPE    HA 5693  -0.427  -1.190  -2.569  0.0649 -0.7049 -0.1484
   45DOPE    HB 5694  -0.257  -1.179  -2.587  0.2987  0.3985  1.8895
   45DOPE    C2 5695  -0.318  -1.312  -2.419  0.2468 -0.1136  0.0815
   45DOPE    HS 5696  -0.381  -1.403  -2.421 -2.5063  1.6250  1.0548
   45DOPE   O21 5697  -0.372  -1.222  -2.320  0.2632  0.7503 -0.2296
   45DOPE   C21 5698  -0.417  -1.274  -2.208 -0.0754 -0.0209  0.0443
   45DOPE   O22 5699  -0.429  -1.393  -2.180  0.4618  0.0797  0.0518
   45DOPE   C22 5700  -0.457  -1.161  -2.109 -0.1310 -0.2713  0.1128
   45DOPE   H2R 5701  -0.525  -1.100  -2.173  0.9072 -1.2485 -2.0237
   45DOPE   H2S 5702  -0.359  -1.110  -2.095  0.5458 -0.3527 -3.4263
   45DOPE    C3 5703  -0.165  -1.350  -2.382  0.7983  0.2492  0.0622
   45DOPE    HX 5704  -0.110  -1.263  -2.341  1.2233  0.6118 -1.2260
   45DOPE    HY 5705  -0.099  -1.374  -2.468  0.2881  0.7124 -0.4678
   45DOPE   O31 5706  -0.162  -1.462  -2.289  0.5030  0.0563  0.5591
   45DOPE   C31 5707  -0.112  -1.436  -2.170  1.1792 -0.4367 -0.0207
   45DOPE   O32 5708  -0.082  -1.328  -2.127 -0.7367  0.1846  0.4879
   45DOPE   C32 5709  -0.092  -1.561  -2.094 -0.1545 -0.1366  0.0546
   45DOPE   H2X 5710  -0.190  -1.608  -2.069 -0.1303 -1.0811 -1.4671
   45DOPE   H2Y 5711  -0.039  -1.631  -2.162 -0.5478  0.7506 -1.2069
   45DOPE   C23 5712  -0.523  -1.220  -1.985  0.5091 -0.8332 -0.3399
   45DOPE   H3R 5713  -0.457  -1.302  -1.950  0.0939 -0.0942  2.4111
   45DOPE   H3S 5714  -0.623  -1.264  -2.008  0.7072 -1.2445 -0.4254
   45DOPE   C24 5715  -0.546  -1.105  -1.880 -0.1514 -0.4689 -0.0462
   45DOPE   H4R 5716  -0.608  -1.033  -1.937  1.7689 -0.2516 -1.9669
   45DOPE   H4S 5717  -0.455  -1.045  -1.857  1.0846 -1.0495 -2.9734
   45DOPE   C25 5718  -0.613  -1.143  -1.747  0.1569  0.2019  0.1860
   45DOPE   H5R 5719  -0.549  -1.204  -1.679 -0.4222 -0.8152 -0.1642
   45DOPE   H5S 5720  -0.692  -1.214  -1.778  1.4207 -1.0113 -0.3388
   45DOPE   C26 5721  -0.656  -1.022  -1.669  0.2522  0.3850  0.4742
   45DOPE   H6R 5722  -0.736  -0.972  -1.727  0.3976  0.2406  0.1446
   45DOPE   H6S 5723  -0.580  -0.942  -1.652 -0.7798  2.2971 -3.0197
   45DOPE   C27 5724  -0.725  -1.054  -1.539 -0.8176 -0.2177  0.5260
   45DOPE   H7R 5725  -0.814  -1.117  -1.558  0.0680 -1.0332 -1.2159
   45DOPE   H7S 5726  -0.773  -0.964  -1.494 -0.2374 -1.2476  3.3668
   45DOPE   C28 5727  -0.634  -1.114  -1.433  0.6709 -0.4205 -0.0239
   45DOPE   H8R 5728  -0.605  -1.213  -1.476  0.5313 -0.5430  0.1634
   45DOPE   H8S 5729  -0.694  -1.134  -1.342  0.5897  1.2409  0.3102
   45DOPE   C29 5730  -0.508  -1.046  -1.393 -0.1409 -0.0861  0.1533
   45DOPE   H9R 5731  -0.450  -1.011  -1.481 -2.1919  3.2525 -0.0555
   45DOPE  C210 5732  -0.455  -1.042  -1.268  0.4883 -0.0584  0.2116
   45DOPE  H10R 5733  -0.377  -0.969  -1.241 -0.6248  0.7985  1.2288
   45DOPE  C211 5734  -0.501  -1.112  -1.144 -0.9595 -0.0161  0.1932
   45DOPE  H11R 5735  -0.413  -1.144  -1.085 -1.0621  1.1966  1.0113
   45DOPE  H11S 5736  -0.548  -1.210  -1.170  1.1158 -1.3365  1.1573
   45DOPE  C212 5737  -0.604  -1.031  -1.065 -0.4222 -1.0806 -1.3150
   45DOPE  H12R 5738  -0.701  -1.024  -1.119 -1.1883  0.3648  0.1638
   45DOPE  H12S 5739  -0.557  -0.933  -1.041  0.2114 -0.8756 -3.1931
   45DOPE  C213 5740  -0.637  -1.099  -0.935 -0.0875 -0.6834 -0.1963
   45DOPE  H13R 5741  -0.541  -1.112  -0.881  0.3159  1.5818 -0.2755
   45DOPE  H13S 5742  -0.685  -1.199  -0.941 -1.4779 -0.0351 -0.3615
   45DOPE  C214 5743  -0.734  -1.013  -0.854  0.5472 -0.1252 -0.8680
   45DOPE  H14R 5744  -0.833  -1.041  -0.897 -0.8798  0.8409  1.5597
   45DOPE  H14S 5745  -0.717  -0.904  -0.864  0.7871  0.0371  0.8922
   45DOPE  C215 5746  -0.744  -1.054  -0.708 -0.6294  0.4555 -0.0014
   45DOPE  H15R 5747  -0.654  -1.021  -0.653  0.7578  1.3617 -2.6021
   45DOPE  H15S 5748  -0.752  -1.165  -0.701  2.2875  0.1677  0.1041
   45DOPE  C216 5749  -0.854  -0.989  -0.632  0.6935  0.2511  0.0492
   45DOPE  H16R 5750  -0.956  -1.016  -0.668  1.0210 -0.9823  0.0174
   45DOPE  H16S 5751  -0.854  -0.879  -0.645 -0.3948  0.2219 -0.3175
   45DOPE  C217 5752  -0.871  -1.031  -0.485  0.1249 -0.0164 -0.0563
   45DOPE  H17R 5753  -0.783  -1.003  -0.423 -0.3728 -0.1541  0.7239
   45DOPE  H17S 5754  -0.891  -1.140  -0.469 -2.7796  0.2107 -1.4611
   45DOPE  C218 5755  -0.986  -0.954  -0.417 -0.1654 -0.4381  1.2666
   45DOPE  H18R 5756  -1.004  -0.969  -0.309 -2.5968  0.8224  1.1135
   45DOPE  H18S 5757  -1.073  -1.008  -0.461  0.6681  0.5400 -1.8839
   45DOPE  H18T 5758  -0.994  -0.844  -0.429  0.9916 -0.2606  1.9894
   45DOPE   C33 5759  -0.013  -1.535  -1.964 -0.0704 -0.6424  0.0182
   45DOPE   H3X 5760  -0.050  -1.447  -1.908 -0.8986 -0.8174 -0.2447
   45DOPE   H3Y 5761   0.093  -1.503  -1.978  0.0100 -1.8746 -2.9257
   45DOPE   C34 5762  -0.008  -1.665  -1.878  0.9287 -0.4043 -0.0510
   45DOPE   H4X 5763  -0.110  -1.702  -1.859  1.7319 -1.6537  2.1791
   45DOPE   H4Y 5764   0.047  -1.750  -1.925  1.9322 -0.3088  0.9195
   45DOPE   C35 5765   0.057  -1.647  -1.741 -0.3537 -0.0257  0.1187
   45DOPE   H5X 5766   0.010  -1.560  -1.691 -0.3646 -1.4702  2.8174
   45DOPE   H5Y 5767   0.164  -1.618  -1.745 -0.4063  0.0123 -2.3009
   45DOPE   C36 5768   0.041  -1.777  -1.662  0.6774  0.5057  0.0807
   45DOPE   H6X 5769   0.095  -1.856  -1.718  0.1663  0.0792  0.1813
   45DOPE   H6Y 5770  -0.066  -1.806  -1.666  0.7382  0.3921 -1.0928
   45DOPE   C37 5771   0.092  -1.760  -1.518 -0.1426 -0.2347  0.0858
   45DOPE   H7X 5772   0.181  -1.693  -1.514  1.3314 -2.1554  1.1910
   45DOPE   H7Y 5773   0.017  -1.722  -1.446 -1.1407 -2.4592  0.2945
   45DOPE   C38 5774   0.143  -1.888  -1.451 -0.2587  0.2239  0.3197
   45DOPE   H8X 5775   0.234  -1.857  -1.395 -0.0957  0.8489 -0.2705
   45DOPE   H8Y 5776   0.191  -1.963  -1.517  0.4453  1.3354 -0.4743
   45DOPE   C39 5777   0.040  -1.959  -1.369 -0.0598  0.2205  0.4420
   45DOPE   H9X 5778  -0.035  -2.008  -1.433 -0.6243  2.7432 -0.9869
   45DOPE  C310 5779   0.009  -1.929  -1.239  0.3020 -0.2198 -0.2982
   45DOPE  H10X 5780  -0.079  -1.966  -1.184  0.4565  0.8204  0.7095
   45DOPE  C311 5781   0.089  -1.821  -1.157 -0.0173  0.4207  0.5745
   45DOPE  H11X 5782   0.199  -1.836  -1.166 -0.0737  0.2817  0.0656
   45DOPE  H11Y 5783   0.058  -1.719  -1.186 -2.3986 -0.3564  0.1264
   45DOPE  C312 5784   0.051  -1.831  -1.003  0.8703 -0.3222 -0.4362
   45DOPE  H12X 5785   0.118  -1.774  -0.935 -0.3443 -0.6910  1.1284
   45DOPE  H12Y 5786   0.049  -1.935  -0.966 -2.9819  0.3444  1.8101
   45DOPE  C313 5787  -0.085  -1.772  -0.970  0.2122 -0.6178 -0.1123
   45DOPE  H13X 5788  -0.110  -1.676  -1.019  1.3530  1.2775  2.7318
   45DOPE  H13Y 5789  -0.171  -1.837  -0.997 -1.6177  0.9405  1.6383
   45DOPE  C314 5790  -0.114  -1.754  -0.816  0.5900 -0.0013  0.8077
   45DOPE  H14X 5791  -0.208  -1.697  -0.803  0.2094 -0.3667 -0.1868
   45DOPE  H14Y 5792  -0.032  -1.693  -0.775  0.2874  1.0291 -0.0750
   45DOPE  C315 5793  -0.121  -1.896  -0.750  0.2299 -0.5839  0.3383
   45DOPE  H15X 5794  -0.024  -1.948  -0.763 -0.0893 -1.8901  2.7112
   45DOPE  H15Y 5795  -0.207  -1.944  -0.801  0.0453 -0.1633  0.2491
   45DOPE  C316 5796  -0.134  -1.908  -0.602 -0.2018  0.1697 -0.0981
   45DOPE  H16X 5797  -0.081  -1.821  -0.558  1.2238 -0.4581 -0.5450
   45DOPE  H16Y 5798  -0.091  -2.004  -0.568 -1.6197 -0.4513  0.0428
   45DOPE  C317 5799  -0.282  -1.907  -0.561  0.8272 -0.5648  0.5055
   45DOPE  H17X 5800  -0.343  -1.818  -0.588  0.4488 -0.8859  0.2887
   45DOPE  H17Y 5801  -0.334  -1.996  -0.601  0.1717  0.0079  0.0414
   45DOPE  C318 5802  -0.281  -1.916  -0.409 -0.2812 -0.0824  0.4976
   45DOPE  H18X 5803  -0.257  -1.813  -0.373  0.3121 -0.2397  0.5707
   45DOPE  H18Y 5804  -0.378  -1.954  -0.372 -0.8419  0.1737 -0.6821
   45DOPE  H18Z 5805  -0.201  -1.988  -0.380 -0.5167 -0.4987  0.1260
   46DOPE     N 5806  -0.353  -2.981  -2.296 -0.6474 -0.2098 -0.0281
   46DOPE   HN1 5807  -0.386  -3.000  -2.393  1.5959 -0.6512 -0.7536
   46DOPE   HN2 5808  -0.375  -2.882  -2.271 -1.1954 -0.4196  0.3540
   46DOPE   HN3 5809  -0.250  -2.990  -2.307 -0.7490 -2.1496  0.2777
   46DOPE   C12 5810  -0.402  -3.082  -2.193  0.0296  0.0021 -0.2745
   46DOPE  H12A 5811  -0.402  -3.185  -2.236 -2.2756  0.0401 -0.4667
   46DOPE  H12B 5812  -0.502  -3.051  -2.156 -0.3765 -0.4227 -0.9821
   46DOPE   C11 5813  -0.301  -3.079  -2.079  0.1463  0.3441 -0.1180
   46DOPE  H11A 5814  -0.351  -3.128  -1.993  2.8693  0.6940  1.8002
   46DOPE  H11B 5815  -0.285  -2.972  -2.053 -0.1407  0.8432 -1.8565
   46DOPE     P 5816  -0.042  -3.074  -2.158  0.1824 -0.0534 -0.1263
   46DOPE   O13 5817  -0.079  -2.975  -2.267 -0.4349  0.3303  0.6767
   46DOPE   O14 5818   0.056  -3.177  -2.194 -0.3298 -0.4422  0.9235
   46DOPE   O11 5819   0.002  -2.994  -2.029 -0.6482 -0.1153 -0.4418
   46DOPE   O12 5820  -0.177  -3.146  -2.111  0.2332  0.3217  0.5344
   46DOPE    C1 5821  -0.021  -3.040  -1.899 -0.8120 -0.2965  0.1488
   46DOPE    HA 5822   0.026  -3.140  -1.885  0.5869  0.5095  1.5436
   46DOPE    HB 5823  -0.131  -3.045  -1.888 -0.7374 -0.9120  0.6877
   46DOPE    C2 5824   0.036  -2.942  -1.795  0.7431 -0.1979 -0.2552
   46DOPE    HS 5825  -0.032  -2.854  -1.796 -0.1942 -0.8185  1.7986
   46DOPE   O21 5826   0.173  -2.910  -1.816 -0.0737  0.4408  0.3123
   46DOPE   C21 5827   0.212  -2.789  -1.782 -0.4595 -0.3626  0.2884
   46DOPE   O22 5828   0.146  -2.694  -1.737  0.5212  0.3112  0.0348
   46DOPE   C22 5829   0.362  -2.789  -1.771 -0.2508  0.4801  0.9431
   46DOPE   H2R 5830   0.404  -2.728  -1.854 -0.4452  0.0170  0.4987
   46DOPE   H2S 5831   0.403  -2.890  -1.790  0.7895  1.1403 -0.4982
   46DOPE    C3 5832   0.013  -3.002  -1.654  0.2978 -0.0829 -0.4934
   46DOPE    HX 5833   0.054  -3.105  -1.652  1.3505  0.3191 -0.2906
   46DOPE    HY 5834  -0.097  -3.018  -1.651  0.1529  0.1729 -2.6668
   46DOPE   O31 5835   0.071  -2.921  -1.554 -0.1322  0.2188 -0.4131
   46DOPE   C31 5836  -0.014  -2.853  -1.474  0.0970 -0.0556 -0.1227
   46DOPE   O32 5837  -0.136  -2.848  -1.480 -0.0112  0.5632  0.2476
   46DOPE   C32 5838   0.056  -2.787  -1.356 -0.0406  0.2615 -0.0917
   46DOPE   H2X 5839   0.135  -2.719  -1.395 -0.4495  1.0379  0.3937
   46DOPE   H2Y 5840  -0.017  -2.726  -1.298 -0.3539  0.8555 -1.0805
   46DOPE   C23 5841   0.419  -2.744  -1.633 -0.2330 -0.3150 -0.0702
   46DOPE   H3R 5842   0.527  -2.772  -1.628 -0.3186 -1.1874 -2.0505
   46DOPE   H3S 5843   0.360  -2.784  -1.548  1.9805  0.0343  1.7256
   46DOPE   C24 5844   0.414  -2.594  -1.606  0.6764 -0.1205  0.1295
   46DOPE   H4R 5845   0.305  -2.574  -1.597  0.6393 -0.5112  0.5998
   46DOPE   H4S 5846   0.451  -2.540  -1.696  0.1850 -2.3232 -1.4678
   46DOPE   C25 5847   0.474  -2.570  -1.466  0.1785 -0.2554 -0.2857
   46DOPE   H5R 5848   0.584  -2.580  -1.461  0.3103  1.5039  1.2484
   46DOPE   H5S 5849   0.424  -2.643  -1.398 -1.1157  2.5761  2.0052
   46DOPE   C26 5850   0.445  -2.430  -1.417  0.0641 -0.7400 -0.0808
   46DOPE   H6R 5851   0.347  -2.394  -1.454  0.6713 -1.0960 -2.1830
   46DOPE   H6S 5852   0.516  -2.366  -1.474  0.6531 -0.3379  1.0837
   46DOPE   C27 5853   0.478  -2.422  -1.266  0.2725  0.8410  0.7806
   46DOPE   H7R 5854   0.585  -2.440  -1.241 -0.3276 -1.3283  1.9322
   46DOPE   H7S 5855   0.416  -2.488  -1.203 -0.3361  0.8737  0.2271
   46DOPE   C28 5856   0.446  -2.282  -1.215 -0.1532 -0.2694  0.3694
   46DOPE   H8R 5857   0.426  -2.291  -1.106  0.6690  0.1126  0.5653
   46DOPE   H8S 5858   0.348  -2.242  -1.249  0.2418 -1.2363 -2.1069
   46DOPE   C29 5859   0.556  -2.180  -1.237  0.5042 -0.4480  0.0096
   46DOPE   H9R 5860   0.646  -2.216  -1.290  0.2282  0.0866 -0.8362
   46DOPE  C210 5861   0.553  -2.048  -1.207  0.2259  1.1436  0.3445
   46DOPE  H10R 5862   0.635  -1.977  -1.226  2.0135  0.2305  3.7036
   46DOPE  C211 5863   0.441  -1.973  -1.136 -0.2082  0.4207  0.1814
   46DOPE  H11R 5864   0.348  -2.034  -1.136  0.6801 -0.9683  0.6318
   46DOPE  H11S 5865   0.424  -1.878  -1.192  1.3895  0.2796 -0.5934
   46DOPE  C212 5866   0.482  -1.948  -0.989  0.2641  0.8218 -0.2990
   46DOPE  H12R 5867   0.571  -1.883  -0.980  1.0307 -0.4414  2.8398
   46DOPE  H12S 5868   0.512  -2.048  -0.950  2.8296  2.2934  1.8683
   46DOPE  C213 5869   0.368  -1.901  -0.909  0.4154  0.1330  0.1872
   46DOPE  H13R 5870   0.295  -1.986  -0.913  1.0863 -0.4813  0.7341
   46DOPE  H13S 5871   0.331  -1.801  -0.940 -0.8541 -0.3575  0.0444
   46DOPE  C214 5872   0.406  -1.871  -0.760 -0.2234  0.5249 -0.4105
   46DOPE  H14R 5873   0.453  -1.770  -0.755  0.3438  0.4925 -3.1504
   46DOPE  H14S 5874   0.480  -1.950  -0.737 -1.9658 -1.0469  0.0475
   46DOPE  C215 5875   0.292  -1.895  -0.663  1.3490  0.7305  0.4381
   46DOPE  H15R 5876   0.274  -2.004  -0.657 -0.6823  1.0157  0.2817
   46DOPE  H15S 5877   0.195  -1.853  -0.696  0.8505  0.7031  1.8224
   46DOPE  C216 5878   0.316  -1.829  -0.526 -0.1468  0.7532  0.0925
   46DOPE  H16R 5879   0.298  -1.720  -0.537  1.2410  0.9227 -0.6928
   46DOPE  H16S 5880   0.420  -1.852  -0.496 -0.7075  0.2348  1.8211
   46DOPE  C217 5881   0.218  -1.889  -0.423 -0.1706  0.0511  0.6323
   46DOPE  H17R 5882   0.233  -1.999  -0.428 -0.7929 -0.0080 -0.0406
   46DOPE  H17S 5883   0.117  -1.882  -0.467 -0.3100  1.3885  1.1313
   46DOPE  C218 5884   0.215  -1.827  -0.285 -0.5814  0.4097 -0.4717
   46DOPE  H18R 5885   0.197  -1.718  -0.291  0.6533  0.6659  0.2499
   46DOPE  H18S 5886   0.314  -1.827  -0.235 -0.6883  3.4214 -0.0915
   46DOPE  H18T 5887   0.145  -1.882  -0.218 -0.2432  1.0938  0.4548
   46DOPE   C33 5888   0.123  -2.880  -1.253 -0.0507  0.3682  0.0891
   46DOPE   H3X 5889   0.193  -2.947  -1.308  0.4724  1.0085 -0.0350
   46DOPE   H3Y 5890   0.056  -2.941  -1.189  0.5838 -0.8229 -0.3499
   46DOPE   C34 5891   0.210  -2.797  -1.161  0.5262 -0.2338  0.3641
   46DOPE   H4X 5892   0.288  -2.745  -1.221 -0.7004  1.4598  0.1329
   46DOPE   H4Y 5893   0.150  -2.716  -1.114  1.4641 -0.6976  2.4701
   46DOPE   C35 5894   0.267  -2.882  -1.053 -0.2774  0.8468 -0.2460
   46DOPE   H5X 5895   0.320  -2.963  -1.107  1.5383  1.1536  1.0151
   46DOPE   H5Y 5896   0.181  -2.916  -0.992 -1.4276 -1.0569 -2.7459
   46DOPE   C36 5897   0.361  -2.810  -0.952 -0.4707 -0.4754  0.2023
   46DOPE   H6X 5898   0.449  -2.774  -1.009 -1.5091  0.2017 -1.0206
   46DOPE   H6Y 5899   0.413  -2.881  -0.884 -1.8183  1.1288  3.1100
   46DOPE   C37 5900   0.295  -2.693  -0.871 -0.6258 -0.3513 -0.0405
   46DOPE   H7X 5901   0.290  -2.611  -0.945 -1.0251 -1.9713 -1.8819
   46DOPE   H7Y 5902   0.192  -2.724  -0.842 -0.8478  1.1428  0.9033
   46DOPE   C38 5903   0.372  -2.648  -0.749  0.1511  0.4124  1.2574
   46DOPE   H8X 5904   0.418  -2.733  -0.693  3.2133  1.2603  0.2545
   46DOPE   H8Y 5905   0.305  -2.591  -0.682 -0.2130  1.1489  0.2889
   46DOPE   C39 5906   0.490  -2.570  -0.802  0.3359  0.3025  0.4142
   46DOPE   H9X 5907   0.536  -2.614  -0.892 -1.3608 -0.8479  0.0649
   46DOPE  C310 5908   0.546  -2.456  -0.749 -0.5792  0.4596  0.2702
   46DOPE  H10X 5909   0.650  -2.430  -0.775  0.3993 -0.7284  2.6790
   46DOPE  C311 5910   0.487  -2.370  -0.642  0.0161 -1.1989  0.0028
   46DOPE  H11X 5911   0.429  -2.285  -0.683  0.1877 -0.5824  1.0089
   46DOPE  H11Y 5912   0.420  -2.421  -0.570  0.3831  0.0152  1.2481
   46DOPE  C312 5913   0.589  -2.304  -0.552 -0.8077 -0.6364 -0.6188
   46DOPE  H12X 5914   0.678  -2.279  -0.614  1.0163 -4.1269  0.3264
   46DOPE  H12Y 5915   0.638  -2.369  -0.476  0.0905  1.2004  0.4616
   46DOPE  C313 5916   0.533  -2.185  -0.482  0.1726 -0.8386  0.0935
   46DOPE  H13X 5917   0.482  -2.115  -0.553 -1.8898 -0.7947  1.5340
   46DOPE  H13Y 5918   0.448  -2.223  -0.421 -1.7401  0.9124 -1.3208
   46DOPE  C314 5919   0.626  -2.111  -0.384  0.1670  0.2359  0.2454
   46DOPE  H14X 5920   0.572  -2.020  -0.351 -1.4789 -0.0459 -1.5035
   46DOPE  H14Y 5921   0.724  -2.084  -0.430 -0.3401  0.2817 -0.8327
   46DOPE  C315 5922   0.654  -2.198  -0.260 -0.3560  0.4251  0.4328
   46DOPE  H15X 5923   0.680  -2.300  -0.294  0.1591  0.3370  1.0763
   46DOPE  H15Y 5924   0.568  -2.224  -0.195  0.5229 -0.4990  1.2622
   46DOPE  C316 5925   0.763  -2.125  -0.183  0.9647  0.3072 -0.6673
   46DOPE  H16X 5926   0.744  -2.015  -0.182  2.1727  0.6813  3.8352
   46DOPE  H16Y 5927   0.862  -2.146  -0.228  1.4346 -1.7189  1.1458
   46DOPE  C317 5928   0.754  -2.160  -0.028 -0.3551 -0.5518 -0.1185
   46DOPE  H17X 5929   0.650  -2.148   0.010 -0.2763  3.0320 -0.6848
   46DOPE  H17Y 5930   0.774  -2.269  -0.032  1.4962 -0.2659  0.4950
   46DOPE  C318 5931   0.854  -2.094   0.062  1.0127  0.2311  0.5863
   46DOPE  H18X 5932   0.845  -2.139   0.163  2.8049  0.0275  0.6948
   46DOPE  H18Y 5933   0.956  -2.086   0.017  0.1333  2.9943 -1.1938
   46DOPE  H18Z 5934   0.810  -1.993   0.080  0.6591  0.0802  0.5644
   47DOPE     N 5935  -2.017   2.333  -2.128 -0.2807  0.3182 -0.3775
   47DOPE   HN1 5936  -2.096   2.266  -2.128  0.0114 -0.0587  1.2807
   47DOPE   HN2 5937  -2.024   2.383  -2.037 -1.0997  1.8840 -1.2472
   47DOPE   HN3 5938  -2.029   2.415  -2.192  1.3647  2.7645  2.1788
   47DOPE   C12 5939  -1.894   2.256  -2.134  0.3556  0.0526  0.8353
   47DOPE  H12A 5940  -1.909   2.177  -2.210  0.5993  0.9941 -0.2182
   47DOPE  H12B 5941  -1.872   2.206  -2.037  0.1377 -0.1565  0.7781
   47DOPE   C11 5942  -1.770   2.344  -2.173 -0.1182  0.3709  0.2331
   47DOPE  H11A 5943  -1.794   2.380  -2.275 -0.6229  0.3329  0.3372
   47DOPE  H11B 5944  -1.686   2.271  -2.176  1.4984  2.1396  0.3911
   47DOPE     P 5945  -1.714   2.587  -2.134  0.3575  0.0672 -0.3853
   47DOPE   O13 5946  -1.807   2.626  -2.241  0.4041  0.0841 -0.0001
   47DOPE   O14 5947  -1.574   2.592  -2.166  0.6751 -0.1823  1.0651
   47DOPE   O11 5948  -1.741   2.690  -2.026  0.1964 -0.4373  0.4133
   47DOPE   O12 5949  -1.755   2.449  -2.077 -0.2674  0.0056 -0.1073
   47DOPE    C1 5950  -1.842   2.664  -1.924 -0.4098 -0.6188 -0.3099
   47DOPE    HA 5951  -1.800   2.598  -1.845 -1.3357 -0.2289  0.5415
   47DOPE    HB 5952  -1.930   2.612  -1.968  0.0731  0.0110 -2.1180
   47DOPE    C2 5953  -1.903   2.787  -1.866 -0.1471 -0.3748  0.0378
   47DOPE    HS 5954  -1.837   2.822  -1.784 -0.1622  1.2309 -0.6080
   47DOPE   O21 5955  -2.034   2.777  -1.815 -0.1617 -0.0689 -0.1475
   47DOPE   C21 5956  -2.054   2.697  -1.704 -0.5261 -0.1723  0.4744
   47DOPE   O22 5957  -1.967   2.647  -1.641 -0.1677  0.4534  0.2391
   47DOPE   C22 5958  -2.199   2.686  -1.663 -0.1266 -1.0940  0.4236
   47DOPE   H2R 5959  -2.250   2.637  -1.748  0.1197  0.7718 -0.8647
   47DOPE   H2S 5960  -2.229   2.792  -1.646 -0.0166 -1.1131  0.7421
   47DOPE    C3 5961  -1.908   2.900  -1.978 -0.0559 -0.5669 -0.4047
   47DOPE    HX 5962  -1.979   2.877  -2.060  2.8854 -4.0411 -2.2831
   47DOPE    HY 5963  -1.805   2.907  -2.018  0.3353  0.0692  0.6640
   47DOPE   O31 5964  -1.944   3.033  -1.918  0.6576 -0.4524  0.0558
   47DOPE   C31 5965  -1.838   3.092  -1.857 -0.0491  0.4364  0.0839
   47DOPE   O32 5966  -1.728   3.047  -1.849  0.2611 -0.0159  0.6714
   47DOPE   C32 5967  -1.870   3.224  -1.791  0.1810  0.0753  0.6886
   47DOPE   H2X 5968  -1.792   3.284  -1.844 -0.2043  0.3671  0.4455
   47DOPE   H2Y 5969  -1.973   3.248  -1.826  0.7020  2.9689  0.8690
   47DOPE   C23 5970  -2.220   2.593  -1.536  0.1714 -0.3216 -0.0720
   47DOPE   H3R 5971  -2.154   2.635  -1.458  0.2786 -1.4709  0.4700
   47DOPE   H3S 5972  -2.187   2.492  -1.566  1.2016 -0.3768  1.1845
   47DOPE   C24 5973  -2.361   2.582  -1.485  0.3023 -0.2439  0.5496
   47DOPE   H4R 5974  -2.419   2.542  -1.570 -0.3237  0.4022  0.6640
   47DOPE   H4S 5975  -2.407   2.680  -1.457  3.6727  1.1529  1.8082
   47DOPE   C25 5976  -2.365   2.498  -1.358 -0.1144  0.0578 -0.0502
   47DOPE   H5R 5977  -2.301   2.407  -1.368 -1.0053 -0.4679 -1.3134
   47DOPE   H5S 5978  -2.468   2.457  -1.352  0.1766 -0.8606 -0.9711
   47DOPE   C26 5979  -2.329   2.576  -1.236  0.3198 -0.2997  0.2115
   47DOPE   H6R 5980  -2.426   2.614  -1.196  0.3158 -0.3078  0.2092
   47DOPE   H6S 5981  -2.253   2.653  -1.261  2.4239 -2.5804 -0.7742
   47DOPE   C27 5982  -2.273   2.487  -1.126  1.0902  0.4349 -0.3063
   47DOPE   H7R 5983  -2.189   2.428  -1.166 -1.4567 -3.3631 -0.5591
   47DOPE   H7S 5984  -2.350   2.409  -1.107 -1.0104  1.9277 -2.0848
   47DOPE   C28 5985  -2.241   2.565  -1.002  0.3981  0.4404  0.5832
   47DOPE   H8R 5986  -2.163   2.638  -1.032 -1.1680  1.6946 -0.6116
   47DOPE   H8S 5987  -2.198   2.488  -0.934 -1.5970 -0.7095  0.6322
   47DOPE   C29 5988  -2.349   2.649  -0.936  0.1327  0.9869  0.1556
   47DOPE   H9R 5989  -2.394   2.723  -1.005  0.0399  0.2839 -0.5490
   47DOPE  C210 5990  -2.387   2.649  -0.805 -0.1117  0.0703 -0.3552
   47DOPE  H10R 5991  -2.452   2.727  -0.765 -0.5847 -0.2216 -0.5484
   47DOPE  C211 5992  -2.325   2.565  -0.697 -0.2532  0.0637  0.2617
   47DOPE  H11R 5993  -2.279   2.466  -0.721 -0.1498 -0.3660  2.0623
   47DOPE  H11S 5994  -2.409   2.531  -0.633  0.1310 -1.2008  0.1213
   47DOPE  C212 5995  -2.228   2.655  -0.615 -0.0191 -0.4052  0.7558
   47DOPE  H12R 5996  -2.278   2.754  -0.606 -1.4163 -0.7485 -2.0332
   47DOPE  H12S 5997  -2.131   2.671  -0.668  0.8373  3.3680  3.0553
   47DOPE  C213 5998  -2.205   2.592  -0.483  0.0767 -0.3632 -1.1873
   47DOPE  H13R 5999  -2.184   2.485  -0.503  0.1770 -0.2080 -1.9419
   47DOPE  H13S 6000  -2.300   2.587  -0.425  1.4505 -0.2937  1.2007
   47DOPE  C214 6001  -2.096   2.657  -0.395 -0.9461  0.1443 -0.0278
   47DOPE  H14R 6002  -2.132   2.759  -0.373 -2.6940 -0.4370  0.0159
   47DOPE  H14S 6003  -1.999   2.643  -0.447 -0.0529 -1.1521  1.8777
   47DOPE  C215 6004  -2.072   2.587  -0.261  0.1772  0.2462  0.3359
   47DOPE  H15R 6005  -2.058   2.477  -0.269  0.1930  0.2457  0.3711
   47DOPE  H15S 6006  -2.168   2.597  -0.205 -0.8424 -2.0578 -0.8437
   47DOPE  C216 6007  -1.973   2.654  -0.169  0.6712  0.1183 -0.2096
   47DOPE  H16R 6008  -1.870   2.659  -0.210  0.7728  0.9798  0.1423
   47DOPE  H16S 6009  -1.946   2.594  -0.080 -0.2871 -0.7119 -0.4520
   47DOPE  C217 6010  -2.021   2.797  -0.121  0.0543  0.1319 -0.0874
   47DOPE  H17R 6011  -2.127   2.774  -0.094  0.5169 -1.9871  0.1327
   47DOPE  H17S 6012  -2.026   2.844  -0.221 -0.5808 -0.7996 -0.5112
   47DOPE  C218 6013  -1.938   2.874  -0.015  0.3616 -0.3151  0.1058
   47DOPE  H18R 6014  -1.988   2.971   0.007  0.9134 -0.1701  0.7611
   47DOPE  H18S 6015  -1.837   2.885  -0.060  2.1265 -0.2873  3.6380
   47DOPE  H18T 6016  -1.917   2.810   0.074  1.9946 -3.5517 -2.4177
   47DOPE   C33 6017  -1.854   3.224  -1.637 -0.2192  0.3626 -0.1070
   47DOPE   H3X 6018  -1.819   3.123  -1.608  0.4631  0.2563 -1.2586
   47DOPE   H3Y 6019  -1.956   3.235  -1.594 -0.3154 -0.0154 -0.2381
   47DOPE   C34 6020  -1.755   3.328  -1.570  0.0075  0.7857 -0.0841
   47DOPE   H4X 6021  -1.792   3.426  -1.608  1.3478  1.5035  0.3873
   47DOPE   H4Y 6022  -1.752   3.330  -1.459 -0.4228 -2.8677  0.1035
   47DOPE   C35 6023  -1.602   3.299  -1.612  0.2909 -0.8638  0.1540
   47DOPE   H5X 6024  -1.544   3.392  -1.598  0.8762 -1.2798  0.5685
   47DOPE   H5Y 6025  -1.594   3.280  -1.721  2.8417 -0.6019  0.2298
   47DOPE   C36 6026  -1.531   3.183  -1.534  0.1921  0.0396 -0.9176
   47DOPE   H6X 6027  -1.455   3.143  -1.604 -0.7560 -1.3008 -1.2165
   47DOPE   H6Y 6028  -1.603   3.100  -1.525  2.3758 -1.8776 -0.1333
   47DOPE   C37 6029  -1.482   3.216  -1.394  0.1770 -0.1501  0.9774
   47DOPE   H7X 6030  -1.413   3.304  -1.393 -1.7197  1.4290  0.0217
   47DOPE   H7Y 6031  -1.562   3.258  -1.328 -0.4049  0.4918 -0.0948
   47DOPE   C38 6032  -1.411   3.105  -1.310  0.2940  0.0723 -0.0198
   47DOPE   H8X 6033  -1.391   3.157  -1.214 -0.0819 -0.3269  0.2775
   47DOPE   H8Y 6034  -1.310   3.086  -1.353  0.5964  0.0212  0.7079
   47DOPE   C39 6035  -1.482   2.971  -1.288  0.1224 -0.3123  0.1526
   47DOPE   H9X 6036  -1.464   2.895  -1.366  1.4113  0.4903 -0.3546
   47DOPE  C310 6037  -1.547   2.938  -1.174  0.6279 -0.4247 -0.0975
   47DOPE  H10X 6038  -1.575   2.832  -1.179 -0.5045 -0.1001 -1.0108
   47DOPE  C311 6039  -1.583   3.008  -1.052 -0.4403  0.0373 -0.1731
   47DOPE  H11X 6040  -1.573   3.116  -1.074  0.0429 -0.1788 -1.0542
   47DOPE  H11Y 6041  -1.686   2.982  -1.021 -0.1240 -1.9750 -0.6411
   47DOPE  C312 6042  -1.503   2.975  -0.924  0.3663  0.3408  0.0127
   47DOPE  H12X 6043  -1.397   2.995  -0.950 -0.0076  0.9721 -1.0810
   47DOPE  H12Y 6044  -1.518   2.866  -0.908 -1.2397  0.9187  3.2237
   47DOPE  C313 6045  -1.545   3.055  -0.806  0.4716  0.0370 -0.0768
   47DOPE  H13X 6046  -1.527   3.160  -0.838  0.4510  0.0081 -0.1863
   47DOPE  H13Y 6047  -1.649   3.042  -0.770  0.9425  1.3988  1.9318
   47DOPE  C314 6048  -1.456   3.017  -0.688 -0.2400 -0.5409  0.5919
   47DOPE  H14X 6049  -1.420   2.912  -0.691  0.6922 -0.2833  2.0349
   47DOPE  H14Y 6050  -1.514   3.023  -0.593  0.6189  1.3010  1.0473
   47DOPE  C315 6051  -1.341   3.124  -0.682 -0.3724 -0.0038  0.3909
   47DOPE  H15X 6052  -1.381   3.225  -0.703  4.2619  2.3063  1.2135
   47DOPE  H15Y 6053  -1.277   3.108  -0.772 -1.4730  1.2174 -0.6363
   47DOPE  C316 6054  -1.245   3.110  -0.556 -0.5780 -0.1308  0.7964
   47DOPE  H16X 6055  -1.157   3.177  -0.568  0.8159 -1.7111  1.6130
   47DOPE  H16Y 6056  -1.208   3.005  -0.564  0.5439  0.3052 -0.0591
   47DOPE  C317 6057  -1.313   3.138  -0.419  0.0813  0.4084  0.7911
   47DOPE  H17X 6058  -1.329   3.247  -0.408  0.4318  0.4843  0.5589
   47DOPE  H17Y 6059  -1.403   3.077  -0.398  0.4678  0.5396  3.1021
   47DOPE  C318 6060  -1.216   3.101  -0.304  0.3229 -0.0013 -0.1851
   47DOPE  H18X 6061  -1.117   3.150  -0.320 -0.0165  0.3249 -1.4314
   47DOPE  H18Y 6062  -1.260   3.123  -0.204 -1.4415 -0.3101 -0.8467
   47DOPE  H18Z 6063  -1.201   2.991  -0.309  1.8063  0.2463 -1.9431
   48DOPE     N 6064   2.247   0.195  -2.534  0.4260  0.5586 -0.1268
   48DOPE   HN1 6065   2.344   0.211  -2.501  0.7968  1.8608 -1.6768
   48DOPE   HN2 6066   2.254   0.119  -2.604 -1.6181 -0.2715  0.4889
   48DOPE   HN3 6067   2.219   0.281  -2.586 -0.5032 -1.3827 -3.1200
   48DOPE   C12 6068   2.154   0.146  -2.427 -0.3438 -0.1026 -0.0675
   48DOPE  H12A 6069   2.113   0.232  -2.371 -2.8720 -1.9510  1.0836
   48DOPE  H12B 6070   2.207   0.076  -2.359 -1.1392 -1.2822 -0.6271
   48DOPE   C11 6071   2.036   0.059  -2.479  0.9683  0.1612  0.1829
   48DOPE  H11A 6072   1.978   0.136  -2.535 -0.2004 -1.9423 -1.6607
   48DOPE  H11B 6073   1.981   0.017  -2.392  2.8026 -0.8128  0.9257
   48DOPE     P 6074   2.101  -0.189  -2.536 -0.1823 -0.0773 -0.2394
   48DOPE   O13 6075   2.242  -0.223  -2.577  0.0346  0.4598 -0.4443
   48DOPE   O14 6076   1.996  -0.280  -2.582  0.1235  0.0009  0.3551
   48DOPE   O11 6077   2.109  -0.188  -2.383 -0.0423  1.0067  0.0350
   48DOPE   O12 6078   2.076  -0.040  -2.576  0.3494  0.2601  0.2738
   48DOPE    C1 6079   2.055  -0.302  -2.305 -0.2056  0.5799 -0.7071
   48DOPE    HA 6080   2.119  -0.393  -2.310  0.3016  0.9378 -0.7637
   48DOPE    HB 6081   1.958  -0.341  -2.344 -1.3326  0.9311  1.5837
   48DOPE    C2 6082   2.036  -0.265  -2.153 -0.4052  0.3073  0.4462
   48DOPE    HS 6083   1.981  -0.169  -2.157  0.8653  1.0278 -0.6995
   48DOPE   O21 6084   2.166  -0.253  -2.090 -0.3238 -0.1366  0.2387
   48DOPE   C21 6085   2.171  -0.181  -1.972 -0.3012 -0.2665  0.7523
   48DOPE   O22 6086   2.086  -0.103  -1.936 -0.1318  0.0472 -0.0143
   48DOPE   C22 6087   2.296  -0.201  -1.897 -0.1971 -0.8324 -0.4769
   48DOPE   H2R 6088   2.378  -0.179  -1.969 -0.9385 -0.3609 -1.1964
   48DOPE   H2S 6089   2.296  -0.303  -1.855 -1.9924 -0.8883 -0.5388
   48DOPE    C3 6090   1.953  -0.372  -2.080  0.1509 -0.3630  0.2308
   48DOPE    HX 6091   2.010  -0.465  -2.061  0.6982  0.1672  1.3156
   48DOPE    HY 6092   1.855  -0.405  -2.120  1.1714 -2.0282 -0.9974
   48DOPE   O31 6093   1.923  -0.305  -1.957  0.0136  0.0288 -0.2956
   48DOPE   C31 6094   1.955  -0.352  -1.841 -0.1892  0.0489 -0.2738
   48DOPE   O32 6095   2.025  -0.446  -1.818 -0.0485  0.0817  0.0149
   48DOPE   C32 6096   1.892  -0.263  -1.731  0.0979 -0.0259 -0.4783
   48DOPE   H2X 6097   1.950  -0.169  -1.721  1.3744 -1.0142  2.3103
   48DOPE   H2Y 6098   1.784  -0.241  -1.749 -0.2387 -0.0297  1.3707
   48DOPE   C23 6099   2.319  -0.107  -1.770  0.8257 -0.5622 -0.0505
   48DOPE   H3R 6100   2.269  -0.008  -1.779  0.0221 -0.9129  0.4021
   48DOPE   H3S 6101   2.427  -0.085  -1.754  0.4917 -0.5138  2.5770
   48DOPE   C24 6102   2.260  -0.169  -1.642 -0.3951 -0.4315  0.0166
   48DOPE   H4R 6103   2.330  -0.251  -1.616 -0.6106 -0.5405  0.2630
   48DOPE   H4S 6104   2.159  -0.208  -1.668  0.0288 -1.4304 -0.1809
   48DOPE   C25 6105   2.247  -0.068  -1.532 -0.4369 -0.4027 -0.4397
   48DOPE   H5R 6106   2.192   0.021  -1.571  1.3736  0.5104 -0.9999
   48DOPE   H5S 6107   2.350  -0.038  -1.503 -0.1738 -1.8533  0.2222
   48DOPE   C26 6108   2.197  -0.116  -1.393  0.3084  0.8062  0.6073
   48DOPE   H6R 6109   2.229  -0.218  -1.365 -1.7654  0.4124  1.6730
   48DOPE   H6S 6110   2.086  -0.121  -1.399  0.3658 -2.8454  0.4265
   48DOPE   C27 6111   2.239  -0.021  -1.278  0.0294 -0.1940 -0.8837
   48DOPE   H7R 6112   2.207   0.081  -1.310 -1.9151 -0.3655  0.3856
   48DOPE   H7S 6113   2.349  -0.026  -1.270  0.0283  1.6283  0.9502
   48DOPE   C28 6114   2.174  -0.060  -1.141  0.6783  1.0210 -0.7276
   48DOPE   H8R 6115   2.064  -0.072  -1.143  0.9863 -3.1708 -0.9320
   48DOPE   H8S 6116   2.193   0.029  -1.076  2.0039  0.5494 -0.4388
   48DOPE   C29 6117   2.222  -0.198  -1.092 -0.1443  0.0614  0.4863
   48DOPE   H9R 6118   2.228  -0.276  -1.169 -0.6598 -0.1541  0.6614
   48DOPE  C210 6119   2.275  -0.223  -0.972 -0.4324 -0.9138  0.2431
   48DOPE  H10R 6120   2.310  -0.326  -0.953 -0.2678 -0.9109 -0.0389
   48DOPE  C211 6121   2.274  -0.128  -0.853 -0.5171  0.3736 -0.2039
   48DOPE  H11R 6122   2.224  -0.031  -0.875  0.4809  0.9777  0.1282
   48DOPE  H11S 6123   2.376  -0.090  -0.834  0.6115 -2.1736 -0.8079
   48DOPE  C212 6124   2.214  -0.195  -0.727  0.7460  0.0243  0.4260
   48DOPE  H12R 6125   2.292  -0.266  -0.691  0.4983 -0.2691  0.3856
   48DOPE  H12S 6126   2.128  -0.257  -0.759 -0.0128  1.1012  0.3252
   48DOPE  C213 6127   2.181  -0.097  -0.612 -0.4787  0.5914 -0.6256
   48DOPE  H13R 6128   2.111  -0.020  -0.650 -0.4777  1.2251  0.6084
   48DOPE  H13S 6129   2.273  -0.042  -0.582  0.7540 -1.6266 -0.1004
   48DOPE  C214 6130   2.135  -0.166  -0.481  0.1598 -0.0135  0.3018
   48DOPE  H14R 6131   2.213  -0.232  -0.437  0.4394  0.2200  0.1550
   48DOPE  H14S 6132   2.060  -0.238  -0.519 -0.0455  0.0993  0.4864
   48DOPE  C215 6133   2.094  -0.071  -0.372 -0.6963 -0.0278  0.1879
   48DOPE  H15R 6134   2.001  -0.023  -0.409 -0.8265 -0.6551 -0.3225
   48DOPE  H15S 6135   2.170   0.006  -0.348  2.2502 -2.2585 -1.2707
   48DOPE  C216 6136   2.069  -0.147  -0.241  0.0709 -0.6562 -1.0477
   48DOPE  H16R 6137   2.014  -0.079  -0.172  1.5228 -2.0070  1.6013
   48DOPE  H16S 6138   2.172  -0.163  -0.202 -1.1147 -3.9678  1.0617
   48DOPE  C217 6139   1.984  -0.273  -0.254  0.3759 -0.5381  0.3214
   48DOPE  H17R 6140   2.039  -0.350  -0.313  0.9791 -0.1072  0.3166
   48DOPE  H17S 6141   1.893  -0.243  -0.310 -0.1214 -1.2875  0.7049
   48DOPE  C218 6142   1.937  -0.342  -0.121 -0.3565 -0.1189  0.0797
   48DOPE  H18R 6143   1.873  -0.428  -0.151 -0.3618  0.1173 -0.5935
   48DOPE  H18S 6144   1.891  -0.269  -0.051  0.5586  0.0704  0.5006
   48DOPE  H18T 6145   2.025  -0.384  -0.068  0.6878 -0.4303 -1.8379
   48DOPE   C33 6146   1.901  -0.346  -1.598  0.3342 -0.0558  0.5195
   48DOPE   H3X 6147   2.010  -0.352  -1.577  0.4846  1.8021  0.4154
   48DOPE   H3Y 6148   1.859  -0.448  -1.611 -0.1968  0.1341  0.7088
   48DOPE   C34 6149   1.833  -0.291  -1.468 -0.1843  0.4112  0.1230
   48DOPE   H4X 6150   1.885  -0.196  -1.444  0.4671  0.3600 -1.0278
   48DOPE   H4Y 6151   1.724  -0.273  -1.479 -0.5086 -0.5134  1.4562
   48DOPE   C35 6152   1.861  -0.379  -1.353  0.4483 -0.7536  0.4359
   48DOPE   H5X 6153   1.970  -0.379  -1.331  0.3955 -1.5559  0.7347
   48DOPE   H5Y 6154   1.843  -0.485  -1.381  0.6594 -1.1883  1.8478
   48DOPE   C36 6155   1.786  -0.345  -1.226  0.3026  0.3320 -0.5472
   48DOPE   H6X 6156   1.676  -0.357  -1.239 -0.0281  0.2661  1.8574
   48DOPE   H6Y 6157   1.809  -0.242  -1.193 -1.7611  0.6697 -0.0000
   48DOPE   C37 6158   1.826  -0.435  -1.113 -0.3843 -0.7767  1.1642
   48DOPE   H7X 6159   1.800  -0.539  -1.139  1.2093 -0.8708 -0.2205
   48DOPE   H7Y 6160   1.937  -0.433  -1.109 -0.3585 -0.2469  0.3949
   48DOPE   C38 6161   1.754  -0.385  -0.984  0.2451 -0.0177 -0.3927
   48DOPE   H8X 6162   1.643  -0.387  -0.986  0.0774  2.3210 -4.5485
   48DOPE   H8Y 6163   1.780  -0.278  -0.967  2.0402 -0.2879 -1.2813
   48DOPE   C39 6164   1.792  -0.473  -0.873 -0.0565 -0.1477 -0.0564
   48DOPE   H9X 6165   1.815  -0.578  -0.898 -1.1034 -0.0913 -1.3995
   48DOPE  C310 6166   1.829  -0.424  -0.755 -0.1815 -0.2594  0.5989
   48DOPE  H10X 6167   1.860  -0.500  -0.681 -1.1037 -2.2742 -0.9810
   48DOPE  C311 6168   1.806  -0.285  -0.702 -1.0631  0.0862 -0.3077
   48DOPE  H11X 6169   1.894  -0.251  -0.644 -0.2010  0.4669 -1.8009
   48DOPE  H11Y 6170   1.798  -0.205  -0.778  0.5861  1.5866  1.0048
   48DOPE  C312 6171   1.687  -0.290  -0.616 -0.4065 -1.6421 -0.7395
   48DOPE  H12X 6172   1.603  -0.290  -0.688  0.5456  0.7537 -1.9616
   48DOPE  H12Y 6173   1.690  -0.187  -0.572 -0.0713 -1.4865 -1.1219
   48DOPE  C313 6174   1.672  -0.400  -0.511 -0.3689 -0.0411 -0.0509
   48DOPE  H13X 6175   1.655  -0.499  -0.558 -0.3803  0.3608 -0.9057
   48DOPE  H13Y 6176   1.764  -0.393  -0.449  0.9098 -0.0878 -1.8769
   48DOPE  C314 6177   1.556  -0.379  -0.414  0.6177 -0.1282  0.8471
   48DOPE  H14X 6178   1.461  -0.401  -0.468  1.6342 -1.3406 -0.5041
   48DOPE  H14Y 6179   1.552  -0.269  -0.396 -0.4398  0.3910 -2.0538
   48DOPE  C315 6180   1.570  -0.471  -0.284  0.2451 -0.0152  0.4077
   48DOPE  H15X 6181   1.666  -0.447  -0.233 -0.3896 -1.1811  2.2737
   48DOPE  H15Y 6182   1.582  -0.578  -0.314  0.9536  0.3254 -0.5669
   48DOPE  C316 6183   1.453  -0.443  -0.195 -0.4590  0.4682 -1.1065
   48DOPE  H16X 6184   1.468  -0.487  -0.094  2.2949  0.6433 -1.3657
   48DOPE  H16Y 6185   1.359  -0.490  -0.233 -0.3738 -1.1198  0.5134
   48DOPE  C317 6186   1.434  -0.289  -0.156 -0.4911 -0.5530 -0.3354
   48DOPE  H17X 6187   1.527  -0.261  -0.102 -1.0045  1.4989 -0.4336
   48DOPE  H17Y 6188   1.421  -0.230  -0.249  1.6684 -1.0130 -0.9766
   48DOPE  C318 6189   1.313  -0.279  -0.065  0.0218  0.1035  0.1593
   48DOPE  H18X 6190   1.332  -0.344   0.023  3.0663  1.8698  0.9558
   48DOPE  H18Y 6191   1.307  -0.173  -0.032  2.9624  0.8353 -1.3011
   48DOPE  H18Z 6192   1.228  -0.313  -0.128  0.5959  2.1184 -1.8579
   49DOPE     N 6193   2.931   1.822  -2.549 -0.2369 -0.1261  0.7549
   49DOPE   HN1 6194   2.952   1.765  -2.633  0.6390  0.1669  0.7584
   49DOPE   HN2 6195   2.869   1.899  -2.581 -1.5172 -0.2115  2.8605
   49DOPE   HN3 6196   3.018   1.877  -2.534  1.2415 -1.8807 -0.9312
   49DOPE   C12 6197   2.903   1.756  -2.417 -0.0715 -0.0213 -0.1827
   49DOPE  H12A 6198   3.002   1.734  -2.371  0.3307 -0.6944 -1.3222
   49DOPE  H12B 6199   2.843   1.667  -2.445  0.9930 -0.7260 -0.2892
   49DOPE   C11 6200   2.812   1.848  -2.326  0.0060 -0.1945 -0.2799
   49DOPE  H11A 6201   2.871   1.930  -2.281 -1.0594 -0.4533  1.7214
   49DOPE  H11B 6202   2.771   1.786  -2.243  0.3595 -0.0399  0.0101
   49DOPE     P 6203   2.645   2.035  -2.353 -0.1435  0.1681 -0.2418
   49DOPE   O13 6204   2.516   2.042  -2.427  0.0913 -0.1373  0.2302
   49DOPE   O14 6205   2.743   2.155  -2.362 -0.2754  0.8553  0.3348
   49DOPE   O11 6206   2.609   1.998  -2.197 -0.4004  0.3777 -0.0250
   49DOPE   O12 6207   2.707   1.902  -2.406  0.3614 -0.4157 -0.6976
   49DOPE    C1 6208   2.476   1.938  -2.178 -0.5560  0.3120 -0.7304
   49DOPE    HA 6209   2.479   1.837  -2.223  0.4055  0.4772 -1.0557
   49DOPE    HB 6210   2.394   2.001  -2.219 -0.2309 -0.0626 -2.0022
   49DOPE    C2 6211   2.459   1.915  -2.024  0.3019 -0.7936  0.5935
   49DOPE    HS 6212   2.483   2.002  -1.959 -0.7762 -0.5737  0.7124
   49DOPE   O21 6213   2.530   1.787  -1.997 -0.0354  0.1737  0.2350
   49DOPE   C21 6214   2.639   1.801  -1.924 -0.1377 -1.0936 -0.4511
   49DOPE   O22 6215   2.677   1.910  -1.887 -0.1833  0.1612  0.2869
   49DOPE   C22 6216   2.721   1.677  -1.919  0.4863  0.1417 -0.6021
   49DOPE   H2R 6217   2.753   1.657  -2.024  0.2716  2.4368 -1.1685
   49DOPE   H2S 6218   2.662   1.591  -1.882 -0.2610  0.5626 -0.7906
   49DOPE    C3 6219   2.309   1.882  -2.000 -0.0466  0.1196 -0.2160
   49DOPE    HX 6220   2.281   1.808  -2.078  1.6524 -0.4182 -0.3604
   49DOPE    HY 6221   2.248   1.974  -2.005 -2.5050 -1.1123  3.1690
   49DOPE   O31 6222   2.301   1.819  -1.870  0.2932  0.6609  0.1041
   49DOPE   C31 6223   2.170   1.785  -1.840 -0.3749 -0.2619 -0.3861
   49DOPE   O32 6224   2.084   1.788  -1.924  0.4691 -0.3980 -0.2280
   49DOPE   C32 6225   2.156   1.742  -1.698 -0.5131  0.3206 -0.2335
   49DOPE   H2X 6226   2.224   1.658  -1.675  2.5787  2.8266  0.4662
   49DOPE   H2Y 6227   2.189   1.824  -1.630  2.9999 -0.2512 -1.0419
   49DOPE   C23 6228   2.843   1.670  -1.834  0.0783  0.3594 -0.1781
   49DOPE   H3R 6229   2.885   1.773  -1.832  2.0295 -0.3920 -0.0045
   49DOPE   H3S 6230   2.921   1.598  -1.867 -0.7989 -0.0286 -1.4449
   49DOPE   C24 6231   2.801   1.641  -1.690  0.2645  0.3052  0.2352
   49DOPE   H4R 6232   2.770   1.534  -1.687  3.2587 -0.8971 -3.7642
   49DOPE   H4S 6233   2.722   1.716  -1.666 -1.7316 -1.1544 -1.3890
   49DOPE   C25 6234   2.909   1.667  -1.588 -0.3755 -0.2674  0.3056
   49DOPE   H5R 6235   2.949   1.769  -1.610 -2.3589  0.6086  0.5095
   49DOPE   H5S 6236   2.992   1.603  -1.624 -1.1919 -0.3573 -1.5849
   49DOPE   C26 6237   2.881   1.649  -1.437 -0.0403  0.0033  0.3904
   49DOPE   H6R 6238   2.815   1.560  -1.429 -0.1409  0.1913  2.0669
   49DOPE   H6S 6239   2.841   1.746  -1.402  0.9393  0.4461  0.3313
   49DOPE   C27 6240   3.000   1.628  -1.341 -0.8555 -0.1805  0.0810
   49DOPE   H7R 6241   3.069   1.715  -1.349 -1.3836  0.1552 -0.9452
   49DOPE   H7S 6242   3.052   1.531  -1.362 -0.6732 -0.1997  0.5994
   49DOPE   C28 6243   2.945   1.621  -1.196  0.2668 -0.1332 -0.4647
   49DOPE   H8R 6244   3.025   1.578  -1.131  1.6184 -0.7850 -2.4518
   49DOPE   H8S 6245   2.872   1.537  -1.192 -1.8647  1.5673 -1.7466
   49DOPE   C29 6246   2.870   1.737  -1.148 -0.4429 -0.0327 -0.7401
   49DOPE   H9R 6247   2.858   1.821  -1.218  0.0222 -0.5442 -1.4615
   49DOPE  C210 6248   2.820   1.746  -1.023 -0.0601  0.1513  0.6234
   49DOPE  H10R 6249   2.775   1.842  -0.994  0.9766  1.1393 -0.8799
   49DOPE  C211 6250   2.839   1.646  -0.914 -0.2049  0.8220 -0.0947
   49DOPE  H11R 6251   2.922   1.572  -0.916 -1.1784 -0.2835 -0.5930
   49DOPE  H11S 6252   2.752   1.577  -0.920  0.2788  0.2956 -1.2172
   49DOPE  C212 6253   2.831   1.718  -0.777 -0.0878  0.0204 -0.5794
   49DOPE  H12R 6254   2.749   1.792  -0.772  0.2123  0.5209 -2.4078
   49DOPE  H12S 6255   2.926   1.776  -0.768  0.9402 -1.1133 -2.9537
   49DOPE  C213 6256   2.836   1.617  -0.657 -0.4029 -0.6176 -0.1511
   49DOPE  H13R 6257   2.923   1.548  -0.665  2.3898  2.4085  1.5482
   49DOPE  H13S 6258   2.740   1.562  -0.669 -0.5611 -0.4941  0.4770
   49DOPE  C214 6259   2.843   1.670  -0.517  0.6517  0.3887 -0.1657
   49DOPE  H14R 6260   2.773   1.756  -0.514  0.3456  0.1719 -1.0487
   49DOPE  H14S 6261   2.949   1.699  -0.495  0.0790  2.0587  0.6204
   49DOPE  C215 6262   2.812   1.569  -0.409 -0.0388  0.6112 -0.2974
   49DOPE  H15R 6263   2.863   1.472  -0.428 -1.0354 -0.2355  1.1525
   49DOPE  H15S 6264   2.701   1.564  -0.401  0.0480  1.0061  1.7127
   49DOPE  C216 6265   2.871   1.615  -0.269  0.6485  0.3913  0.5829
   49DOPE  H16R 6266   2.981   1.615  -0.282  0.5142  2.0922 -1.0588
   49DOPE  H16S 6267   2.848   1.539  -0.192  1.2605 -0.9134 -0.4759
   49DOPE  C217 6268   2.837   1.761  -0.227 -0.2802  0.1316  0.1451
   49DOPE  H17R 6269   2.728   1.781  -0.227 -0.3288 -0.0997 -0.4140
   49DOPE  H17S 6270   2.877   1.829  -0.306 -1.6357  1.0543  0.2187
   49DOPE  C218 6271   2.893   1.800  -0.092 -0.6917 -0.1390  0.1565
   49DOPE  H18R 6272   3.002   1.783  -0.080 -0.4169 -1.4616 -3.1532
   49DOPE  H18S 6273   2.825   1.757  -0.015 -3.3543  1.8425 -0.9248
   49DOPE  H18T 6274   2.886   1.910  -0.076  1.1168 -0.2410  2.0188
   49DOPE   C33 6275   2.011   1.702  -1.664 -0.3349 -0.2782 -0.3608
   49DOPE   H3X 6276   1.972   1.621  -1.730  2.3393 -3.8183  1.9938
   49DOPE   H3Y 6277   1.950   1.794  -1.674  1.9937  1.3127 -0.5884
   49DOPE   C34 6278   1.994   1.647  -1.525 -0.6392 -0.7427 -0.2461
   49DOPE   H4X 6279   1.896   1.597  -1.510 -0.8884 -0.1046  0.3176
   49DOPE   H4Y 6280   2.064   1.564  -1.501 -1.8297 -1.1985  1.8456
   49DOPE   C35 6281   2.008   1.758  -1.420 -0.0479  0.5638  0.1611
   49DOPE   H5X 6282   1.954   1.852  -1.446  1.6571  1.8215  0.9689
   49DOPE   H5Y 6283   2.113   1.795  -1.421 -0.8039  2.8866 -1.2589
   49DOPE   C36 6284   1.960   1.703  -1.286 -0.0218  0.2066  0.7233
   49DOPE   H6X 6285   2.027   1.618  -1.263 -2.4422 -2.1116 -0.3124
   49DOPE   H6Y 6286   1.855   1.671  -1.300 -0.4441  1.9833 -0.5301
   49DOPE   C37 6287   1.940   1.809  -1.171  0.5619  1.0429  0.1702
   49DOPE   H7X 6288   2.037   1.856  -1.144  0.4171  0.1115  2.5741
   49DOPE   H7Y 6289   1.875   1.893  -1.202 -1.4383 -0.2221  0.6955
   49DOPE   C38 6290   1.890   1.740  -1.044 -0.1006  0.6432  0.1169
   49DOPE   H8X 6291   1.956   1.651  -1.035  1.3794  1.2332 -3.2304
   49DOPE   H8Y 6292   1.789   1.699  -1.063  0.5239 -0.9791  0.1078
   49DOPE   C39 6293   1.890   1.836  -0.932 -0.1356 -0.4489 -0.4929
   49DOPE   H9X 6294   1.881   1.941  -0.961 -2.1050  0.1179  1.8247
   49DOPE  C310 6295   1.919   1.800  -0.804  0.0924 -0.4809 -0.0251
   49DOPE  H10X 6296   1.910   1.878  -0.727 -1.6687 -1.2094  0.5677
   49DOPE  C311 6297   1.948   1.665  -0.748  0.3635  0.5351 -0.4169
   49DOPE  H11X 6298   1.860   1.597  -0.756  1.7929 -1.2722 -1.5277
   49DOPE  H11Y 6299   2.032   1.626  -0.809  0.8121  0.2572  0.3550
   49DOPE  C312 6300   1.996   1.660  -0.599  0.0156 -0.6542  0.4708
   49DOPE  H12X 6301   2.092   1.715  -0.610 -0.5240  0.2972  0.3732
   49DOPE  H12Y 6302   2.005   1.556  -0.561 -1.1345 -0.7583  0.4944
   49DOPE  C313 6303   1.919   1.732  -0.494  0.3962  1.0509  0.1803
   49DOPE  H13X 6304   1.976   1.727  -0.399  1.9921 -1.3723 -0.8273
   49DOPE  H13Y 6305   1.917   1.841  -0.514 -1.3526  1.3676  1.7803
   49DOPE  C314 6306   1.775   1.675  -0.483 -0.2481  0.0900 -0.4736
   49DOPE  H14X 6307   1.783   1.564  -0.477  1.8606  0.2654  1.3274
   49DOPE  H14Y 6308   1.717   1.713  -0.569 -2.0075  0.3331  0.7593
   49DOPE  C315 6309   1.700   1.717  -0.355 -0.0285 -0.9143  0.0404
   49DOPE  H15X 6310   1.598   1.673  -0.360 -0.8876  1.0552 -0.6359
   49DOPE  H15Y 6311   1.686   1.827  -0.362 -1.3373 -1.1419 -2.0363
   49DOPE  C316 6312   1.755   1.688  -0.216 -0.1593 -0.1964  0.3410
   49DOPE  H16X 6313   1.672   1.692  -0.143 -2.6399  0.3514 -2.3036
   49DOPE  H16Y 6314   1.820   1.776  -0.198  0.6560 -0.8252  0.5441
   49DOPE  C317 6315   1.842   1.557  -0.201  0.4300 -0.2698  0.4810
   49DOPE  H17X 6316   1.900   1.541  -0.294  1.0513  0.3899  0.7430
   49DOPE  H17Y 6317   1.917   1.587  -0.125  0.3165  0.2166  0.4056
   49DOPE  C318 6318   1.773   1.426  -0.171  1.1062  0.5060 -0.0311
   49DOPE  H18X 6319   1.833   1.369  -0.097 -0.8313  1.8633  2.7933
   49DOPE  H18Y 6320   1.671   1.435  -0.129  0.1373  1.1747 -2.3451
   49DOPE  H18Z 6321   1.753   1.370  -0.265  2.2025 -0.1838  0.1345
   50DOPE     N 6322   2.903   2.299  -2.205 -0.1769  0.5607 -0.3414
   50DOPE   HN1 6323   2.863   2.246  -2.285 -0.5660  1.1051 -0.5130
   50DOPE   HN2 6324   2.893   2.228  -2.130 -1.9222  1.0998 -0.0336
   50DOPE   HN3 6325   2.838   2.372  -2.169  0.0341  0.5904 -0.0115
   50DOPE   C12 6326   3.052   2.336  -2.221  0.5356 -0.4525  0.1838
   50DOPE  H12A 6327   3.069   2.403  -2.135  1.8625 -0.7402  0.1676
   50DOPE  H12B 6328   3.062   2.390  -2.318  1.6033  0.6262  0.8812
   50DOPE   C11 6329   3.147   2.220  -2.209 -0.2420  0.0605  0.0993
   50DOPE  H11A 6330   3.147   2.181  -2.105 -1.1872  0.1072  0.1325
   50DOPE  H11B 6331   3.243   2.272  -2.229  0.3674 -1.0619  0.0271
   50DOPE     P 6332   3.214   2.043  -2.387 -0.3108  0.2941  0.5616
   50DOPE   O13 6333   3.324   2.133  -2.426 -0.2160  0.3768 -0.0990
   50DOPE   O14 6334   3.145   1.969  -2.499  0.4816  0.1632  0.5202
   50DOPE   O11 6335   3.277   1.935  -2.292 -0.7541 -0.2869 -0.1336
   50DOPE   O12 6336   3.104   2.118  -2.300 -0.0812 -0.3979  0.1347
   50DOPE    C1 6337   3.199   1.868  -2.194  0.5003 -0.2008  0.6698
   50DOPE    HA 6338   3.216   1.759  -2.211  0.5627 -0.1372  0.3060
   50DOPE    HB 6339   3.093   1.892  -2.213  0.3807 -1.5930 -0.6053
   50DOPE    C2 6340   3.245   1.898  -2.049  0.1847  0.0474 -0.0652
   50DOPE    HS 6341   3.223   2.007  -2.044  0.0178  0.0967 -1.5071
   50DOPE   O21 6342   3.392   1.876  -2.047  0.3803  0.2402  0.3238
   50DOPE   C21 6343   3.457   1.976  -1.986  0.5402  0.6813  0.2644
   50DOPE   O22 6344   3.406   2.066  -1.921  0.0781 -0.4416 -0.0091
   50DOPE   C22 6345   3.611   1.951  -1.982 -0.1710 -0.2356  0.0561
   50DOPE   H2R 6346   3.651   2.032  -1.917 -0.2558 -0.7140  0.7219
   50DOPE   H2S 6347   3.645   1.963  -2.087 -1.5571 -1.4174 -0.5601
   50DOPE    C3 6348   3.158   1.833  -1.937  0.2244  1.0320 -0.0935
   50DOPE    HX 6349   3.182   1.726  -1.954 -2.0649  0.5014 -0.2790
   50DOPE    HY 6350   3.049   1.844  -1.949 -0.4133  0.1217  3.5556
   50DOPE   O31 6351   3.211   1.872  -1.807 -0.5581 -0.3676  0.3435
   50DOPE   C31 6352   3.143   1.977  -1.756 -0.2450  0.8741 -0.0728
   50DOPE   O32 6353   3.050   2.036  -1.807  0.1324 -0.4155 -0.1525
   50DOPE   C32 6354   3.218   2.016  -1.634 -0.0062  0.1893  0.1573
   50DOPE   H2X 6355   3.325   2.021  -1.663 -0.1472 -0.6945 -0.5526
   50DOPE   H2Y 6356   3.182   2.114  -1.596 -1.4668  0.4720 -1.8319
   50DOPE   C23 6357   3.653   1.814  -1.923 -0.5254  0.3990  0.2687
   50DOPE   H3R 6358   3.761   1.797  -1.941 -0.8139 -1.2214 -0.0556
   50DOPE   H3S 6359   3.596   1.733  -1.973 -0.5556  0.3282  0.4161
   50DOPE   C24 6360   3.621   1.800  -1.777  0.6707  0.9728 -0.7169
   50DOPE   H4R 6361   3.637   1.692  -1.757 -1.2170  0.9947  1.3511
   50DOPE   H4S 6362   3.512   1.818  -1.764  0.8114  0.3148  2.0915
   50DOPE   C25 6363   3.696   1.895  -1.679 -0.1752 -0.2968  0.0497
   50DOPE   H5R 6364   3.670   1.999  -1.708  0.2855 -0.2463 -0.1906
   50DOPE   H5S 6365   3.806   1.888  -1.689 -0.1732 -0.6334  0.3002
   50DOPE   C26 6366   3.651   1.870  -1.533  0.0022  0.0843 -0.4347
   50DOPE   H6R 6367   3.688   1.781  -1.478  0.4727  0.8927  0.5974
   50DOPE   H6S 6368   3.540   1.865  -1.523 -0.2657  0.1760 -2.8456
   50DOPE   C27 6369   3.701   1.991  -1.449 -0.6009  0.6921 -0.1829
   50DOPE   H7R 6370   3.659   2.081  -1.498  1.5233  2.7110  1.4786
   50DOPE   H7S 6371   3.810   1.989  -1.467 -0.4289 -2.5421  0.5259
   50DOPE   C28 6372   3.670   1.986  -1.294  0.8426  0.4914 -0.1923
   50DOPE   H8R 6373   3.690   1.883  -1.256 -1.2314  0.0382 -0.2066
   50DOPE   H8S 6374   3.562   2.009  -1.286  0.9097  0.4576  1.1232
   50DOPE   C29 6375   3.745   2.092  -1.224 -0.4814 -0.3688 -0.0010
   50DOPE   H9R 6376   3.830   2.134  -1.280  0.5656 -1.2755  0.8569
   50DOPE  C210 6377   3.714   2.139  -1.101 -0.1109  0.4420 -0.5339
   50DOPE  H10R 6378   3.774   2.215  -1.048 -0.5500  0.6634 -0.3495
   50DOPE  C211 6379   3.603   2.081  -1.012 -0.3290  0.3102  0.0750
   50DOPE  H11R 6380   3.534   2.012  -1.066 -2.4088  1.7435  0.7589
   50DOPE  H11S 6381   3.539   2.165  -0.977 -0.8560 -0.2123  0.3735
   50DOPE  C212 6382   3.665   2.018  -0.889  0.0122  0.0572  0.1774
   50DOPE  H12R 6383   3.708   2.103  -0.831 -1.7599  1.1734 -0.0925
   50DOPE  H12S 6384   3.736   1.938  -0.920 -1.6096 -1.6895  0.7648
   50DOPE  C213 6385   3.586   1.945  -0.781 -0.1507 -0.2283  0.3506
   50DOPE  H13R 6386   3.548   1.851  -0.826 -0.2238  0.0378 -0.1564
   50DOPE  H13S 6387   3.493   1.996  -0.750 -1.5378 -1.2290 -1.8749
   50DOPE  C214 6388   3.670   1.917  -0.650 -0.0114 -0.3588  0.6344
   50DOPE  H14R 6389   3.660   2.013  -0.594  1.6286  0.6720 -0.7519
   50DOPE  H14S 6390   3.772   1.905  -0.690  0.2769  2.8534  0.1048
   50DOPE  C215 6391   3.627   1.791  -0.574  0.5127 -0.3561 -0.1035
   50DOPE  H15R 6392   3.588   1.718  -0.648 -1.9482  1.2670 -0.5627
   50DOPE  H15S 6393   3.540   1.817  -0.510  1.8743  1.1009  1.2593
   50DOPE  C216 6394   3.750   1.731  -0.508 -0.6025  0.4353 -0.1399
   50DOPE  H16R 6395   3.828   1.709  -0.584 -2.0842 -0.7437 -1.3910
   50DOPE  H16S 6396   3.725   1.638  -0.453 -0.9518  0.4162 -0.3227
   50DOPE  C217 6397   3.811   1.821  -0.399  0.1286 -0.4911 -0.4521
   50DOPE  H17R 6398   3.873   1.904  -0.439 -1.3081 -0.0128 -1.7857
   50DOPE  H17S 6399   3.902   1.767  -0.366 -0.7009 -0.5326  1.9228
   50DOPE  C218 6400   3.720   1.852  -0.280  0.4746 -0.0969 -0.3595
   50DOPE  H18R 6401   3.628   1.898  -0.322 -0.5209  1.3004  3.0035
   50DOPE  H18S 6402   3.762   1.915  -0.199  2.2441 -2.1148  0.3953
   50DOPE  H18T 6403   3.684   1.757  -0.234 -0.7743 -0.0678 -1.2213
   50DOPE   C33 6404   3.206   1.915  -1.522  0.2278 -0.5018  0.3549
   50DOPE   H3X 6405   3.240   1.819  -1.567 -1.1746 -0.9256  0.1497
   50DOPE   H3Y 6406   3.102   1.903  -1.483  0.3426  2.0301  1.6091
   50DOPE   C34 6407   3.298   1.937  -1.400  0.1494  0.5309 -0.1485
   50DOPE   H4X 6408   3.310   1.834  -1.359 -1.3230 -0.1115 -1.2549
   50DOPE   H4Y 6409   3.404   1.959  -1.426  0.6427 -2.3015 -0.8278
   50DOPE   C35 6410   3.242   2.026  -1.293  0.9265 -0.0615  0.2241
   50DOPE   H5X 6411   3.135   2.034  -1.319  0.8303 -0.6542  0.4290
   50DOPE   H5Y 6412   3.286   2.129  -1.291 -0.7025  0.6583  0.4138
   50DOPE   C36 6413   3.239   1.982  -1.144  0.8368  0.7514 -0.4586
   50DOPE   H6X 6414   3.341   1.963  -1.104  0.5134  1.0935  0.5398
   50DOPE   H6Y 6415   3.184   1.886  -1.136 -1.1140  1.7360 -1.3504
   50DOPE   C37 6416   3.163   2.082  -1.058 -0.6518 -0.5628  0.1779
   50DOPE   H7X 6417   3.232   2.168  -1.044 -2.4082  0.8146  0.7363
   50DOPE   H7Y 6418   3.074   2.122  -1.111 -1.0852  0.9023  1.9417
   50DOPE   C38 6419   3.101   2.037  -0.926 -0.6408  0.0319 -0.7148
   50DOPE   H8X 6420   3.012   1.974  -0.944 -0.2698 -0.6788 -0.1052
   50DOPE   H8Y 6421   3.062   2.129  -0.878  2.4384  1.3048 -0.3983
   50DOPE   C39 6422   3.202   1.968  -0.834 -0.4411 -0.5249  0.2942
   50DOPE   H9X 6423   3.271   1.900  -0.886  0.5982  1.5947 -1.2062
   50DOPE  C310 6424   3.206   1.978  -0.700  0.5888  0.4130 -0.6415
   50DOPE  H10X 6425   3.286   1.922  -0.650  1.9089  2.8493  0.0948
   50DOPE  C311 6426   3.113   2.049  -0.599  0.3340 -0.6422 -0.4283
   50DOPE  H11X 6427   3.100   2.158  -0.616 -2.0995 -0.7020  0.6375
   50DOPE  H11Y 6428   3.012   2.003  -0.595 -0.3053  0.7819  1.1625
   50DOPE  C312 6429   3.168   2.043  -0.454 -0.2765 -0.4278 -0.6605
   50DOPE  H12X 6430   3.267   2.092  -0.446 -0.9238  0.6189  2.2015
   50DOPE  H12Y 6431   3.162   1.935  -0.428 -1.2061 -0.0940  0.6589
   50DOPE  C313 6432   3.071   2.118  -0.363 -0.1356  0.5503  0.7807
   50DOPE  H13X 6433   3.073   2.222  -0.400 -1.2084 -0.3794 -2.1831
   50DOPE  H13Y 6434   2.973   2.070  -0.380 -0.8344  1.4772  2.0253
   50DOPE  C314 6435   3.098   2.116  -0.214  0.0142  0.2959 -0.3244
   50DOPE  H14X 6436   3.202   2.150  -0.197  0.1399 -0.3381  0.2144
   50DOPE  H14Y 6437   3.098   2.008  -0.188 -0.4081  0.8289  2.1465
   50DOPE  C315 6438   2.989   2.187  -0.133  0.0208 -0.0126 -0.8163
   50DOPE  H15X 6439   2.999   2.149  -0.029 -0.1169 -1.4736 -1.3060
   50DOPE  H15Y 6440   2.890   2.152  -0.171 -1.3458  0.5701  1.9532
   50DOPE  C316 6441   3.005   2.339  -0.131  0.1382  0.4008  0.1639
   50DOPE  H16X 6442   2.982   2.378  -0.232  0.0629 -2.2949 -0.9588
   50DOPE  H16Y 6443   3.106   2.370  -0.098 -0.3686  1.3711  0.8539
   50DOPE  C317 6444   2.896   2.402  -0.038  0.0007  0.0441  0.3559
   50DOPE  H17X 6445   2.808   2.336  -0.053 -0.0838  0.6654 -2.3392
   50DOPE  H17Y 6446   2.941   2.388   0.063  3.0865  0.2155 -0.8666
   50DOPE  C318 6447   2.874   2.544  -0.063  0.4153  0.4056 -0.4274
   50DOPE  H18X 6448   2.784   2.580  -0.010  0.0890  2.8680 -2.4441
   50DOPE  H18Y 6449   2.961   2.606  -0.033  0.1368  2.7607 -3.8791
   50DOPE  H18Z 6450   2.861   2.561  -0.172 -2.0777  0.1449 -0.2319
   51DOPE     N 6451  -1.515  -2.252  -2.378  0.7559 -0.0260 -0.0806
   51DOPE   HN1 6452  -1.547  -2.224  -2.283 -1.6470  1.1902 -1.1428
   51DOPE   HN2 6453  -1.591  -2.211  -2.436  0.0621  0.4697  1.1174
   51DOPE   HN3 6454  -1.504  -2.354  -2.394  3.6676  0.3816 -1.1271
   51DOPE   C12 6455  -1.382  -2.194  -2.417  0.9726 -0.9056 -0.3147
   51DOPE  H12A 6456  -1.361  -2.107  -2.351  0.7320 -2.4827  1.9550
   51DOPE  H12B 6457  -1.380  -2.170  -2.525 -0.9112 -0.5256 -0.2824
   51DOPE   C11 6458  -1.279  -2.312  -2.384  0.4250 -0.7583 -0.2416
   51DOPE  H11A 6459  -1.292  -2.366  -2.288  1.6549 -2.4143 -0.9685
   51DOPE  H11B 6460  -1.180  -2.261  -2.384 -0.3823  1.0343  2.4345
   51DOPE     P 6461  -1.156  -2.508  -2.507 -0.3601 -0.1895  0.3240
   51DOPE   O13 6462  -1.038  -2.426  -2.545 -0.1849 -0.2935 -0.2395
   51DOPE   O14 6463  -1.199  -2.610  -2.606 -0.1799 -0.6654 -0.4860
   51DOPE   O11 6464  -1.136  -2.578  -2.370  0.3282 -1.0915  0.4248
   51DOPE   O12 6465  -1.280  -2.408  -2.483 -0.1799  0.1315 -0.1247
   51DOPE    C1 6466  -1.053  -2.518  -2.271  0.5785  0.2011 -0.0942
   51DOPE    HA 6467  -1.078  -2.412  -2.248 -0.0013  0.4070 -1.5577
   51DOPE    HB 6468  -0.949  -2.507  -2.309  0.0414  0.9591 -1.4163
   51DOPE    C2 6469  -1.038  -2.595  -2.136  0.0327 -0.1536  0.1908
   51DOPE    HS 6470  -1.012  -2.698  -2.170  1.7559  0.2341  0.2448
   51DOPE   O21 6471  -1.160  -2.588  -2.065  0.4660  0.1934 -0.5872
   51DOPE   C21 6472  -1.203  -2.695  -2.004  0.6991 -0.2665  1.0191
   51DOPE   O22 6473  -1.141  -2.800  -2.005  0.3659  0.0862  1.3959
   51DOPE   C22 6474  -1.309  -2.644  -1.905 -0.0770 -0.1252 -0.3508
   51DOPE   H2R 6475  -1.355  -2.724  -1.843 -0.1164  0.0911 -0.0983
   51DOPE   H2S 6476  -1.386  -2.599  -1.972 -0.3823 -0.3548 -0.1573
   51DOPE    C3 6477  -0.923  -2.549  -2.049  0.2477 -0.1340  0.5447
   51DOPE    HX 6478  -0.948  -2.446  -2.015  0.3407 -0.8782  3.0932
   51DOPE    HY 6479  -0.828  -2.543  -2.106  0.5523 -0.6132  0.9914
   51DOPE   O31 6480  -0.903  -2.641  -1.939  0.5601  0.4661 -1.1767
   51DOPE   C31 6481  -0.828  -2.747  -1.969 -0.6461 -0.7047  0.0257
   51DOPE   O32 6482  -0.775  -2.774  -2.075  0.5346 -0.4021 -0.5081
   51DOPE   C32 6483  -0.807  -2.830  -1.845 -0.4498  0.9183 -0.0730
   51DOPE   H2X 6484  -0.772  -2.931  -1.877 -1.4723  0.3353  0.5863
   51DOPE   H2Y 6485  -0.722  -2.782  -1.792 -0.1696  0.1495  0.1917
   51DOPE   C23 6486  -1.261  -2.531  -1.810 -0.5871 -0.1034 -0.4074
   51DOPE   H3R 6487  -1.195  -2.459  -1.865  1.6548 -0.7555  1.2620
   51DOPE   H3S 6488  -1.188  -2.580  -1.742  0.2360  0.2378 -1.0166
   51DOPE   C24 6489  -1.387  -2.466  -1.742  0.3954  0.9084 -0.1562
   51DOPE   H4R 6490  -1.441  -2.541  -1.682  0.4056 -1.3214 -2.7597
   51DOPE   H4S 6491  -1.456  -2.424  -1.819  0.7266  1.3522 -0.2132
   51DOPE   C25 6492  -1.347  -2.353  -1.651  0.4506 -0.0960  0.5886
   51DOPE   H5R 6493  -1.302  -2.264  -1.700  0.6353  0.3713  1.5889
   51DOPE   H5S 6494  -1.265  -2.392  -1.587  0.2637 -1.0567  0.2646
   51DOPE   C26 6495  -1.457  -2.302  -1.555  0.2175 -0.1158  0.0177
   51DOPE   H6R 6496  -1.495  -2.391  -1.500  0.8592 -0.3154  0.1550
   51DOPE   H6S 6497  -1.533  -2.255  -1.620 -0.0350 -1.7819 -0.9584
   51DOPE   C27 6498  -1.402  -2.201  -1.458  0.6630  0.8497 -0.0217
   51DOPE   H7R 6499  -1.491  -2.157  -1.408 -0.0602 -0.9984  0.3988
   51DOPE   H7S 6500  -1.363  -2.109  -1.505  0.5663  0.6082 -0.5918
   51DOPE   C28 6501  -1.310  -2.263  -1.349 -0.2906  0.0532  0.0637
   51DOPE   H8R 6502  -1.211  -2.298  -1.385 -0.6147  0.7246 -1.5976
   51DOPE   H8S 6503  -1.368  -2.350  -1.312  2.1182 -1.1064  1.3318
   51DOPE   C29 6504  -1.269  -2.170  -1.238 -0.0252 -0.1502 -0.9116
   51DOPE   H9R 6505  -1.210  -2.085  -1.276 -0.0258  0.6121  0.7120
   51DOPE  C210 6506  -1.296  -2.187  -1.107 -0.1012  0.2230 -0.3984
   51DOPE  H10R 6507  -1.257  -2.112  -1.036  2.0296 -1.6755  0.5513
   51DOPE  C211 6508  -1.363  -2.300  -1.039 -0.9062 -0.2249 -0.2183
   51DOPE  H11R 6509  -1.330  -2.391  -1.094  1.9983 -1.2009  2.7944
   51DOPE  H11S 6510  -1.474  -2.303  -1.048 -0.9384  1.6603 -0.8862
   51DOPE  C212 6511  -1.316  -2.317  -0.895 -0.1866 -0.3223  0.2696
   51DOPE  H12R 6512  -1.206  -2.326  -0.902 -0.3516 -1.0482 -3.7475
   51DOPE  H12S 6513  -1.361  -2.412  -0.861  0.5734 -1.9953 -3.0664
   51DOPE  C213 6514  -1.352  -2.199  -0.806 -0.3208  0.0697 -0.8632
   51DOPE  H13R 6515  -1.461  -2.179  -0.805 -0.2976  0.2587  0.5285
   51DOPE  H13S 6516  -1.303  -2.105  -0.836  1.4640 -0.9472 -1.2704
   51DOPE  C214 6517  -1.321  -2.240  -0.658  0.3072 -0.6762  0.4265
   51DOPE  H14R 6518  -1.350  -2.346  -0.639  1.2220 -0.9761  0.2021
   51DOPE  H14S 6519  -1.379  -2.164  -0.602  1.9189  1.6528 -0.9094
   51DOPE  C215 6520  -1.176  -2.208  -0.616 -0.4089 -0.5896 -0.2219
   51DOPE  H15R 6521  -1.189  -2.098  -0.607 -2.6569 -0.8272  0.1560
   51DOPE  H15S 6522  -1.098  -2.239  -0.689  0.8055  1.0721  0.3185
   51DOPE  C216 6523  -1.138  -2.267  -0.479 -0.0139 -0.2611  0.1333
   51DOPE  H16R 6524  -1.033  -2.243  -0.450 -0.3668  2.0107 -0.2616
   51DOPE  H16S 6525  -1.135  -2.377  -0.493  2.4705 -0.4839  1.7295
   51DOPE  C217 6526  -1.237  -2.215  -0.370  0.4376  0.0800  0.1638
   51DOPE  H17R 6527  -1.232  -2.270  -0.273 -1.9896 -0.0837  0.2762
   51DOPE  H17S 6528  -1.338  -2.238  -0.410  2.0624 -3.0439 -2.6012
   51DOPE  C218 6529  -1.226  -2.067  -0.321  1.0244  0.0136 -0.0441
   51DOPE  H18R 6530  -1.231  -2.008  -0.415  1.1620  1.7247  0.9780
   51DOPE  H18S 6531  -1.127  -2.036  -0.283  0.2670  0.4892  1.6059
   51DOPE  H18T 6532  -1.307  -2.024  -0.259  0.4801  1.4492 -1.6549
   51DOPE   C33 6533  -0.930  -2.846  -1.746 -0.4437  0.1143  0.7147
   51DOPE   H3X 6534  -1.012  -2.901  -1.798  0.3188  0.4886 -0.9537
   51DOPE   H3Y 6535  -0.974  -2.749  -1.716  1.3883  2.0943 -2.4483
   51DOPE   C34 6536  -0.890  -2.930  -1.624 -0.0692 -0.8267  0.6528
   51DOPE   H4X 6537  -0.836  -3.016  -1.669  2.5776  1.3832 -0.6540
   51DOPE   H4Y 6538  -0.803  -2.882  -1.574 -0.1307  0.2846 -0.2823
   51DOPE   C35 6539  -1.019  -2.977  -1.548  0.0530  0.1232 -0.3582
   51DOPE   H5X 6540  -0.992  -3.028  -1.453  1.3687  1.4177  0.0058
   51DOPE   H5Y 6541  -1.055  -3.061  -1.610 -0.5535  0.2208 -0.1417
   51DOPE   C36 6542  -1.134  -2.876  -1.526  0.0388  0.4000  0.0973
   51DOPE   H6X 6543  -1.221  -2.942  -1.502  1.5726 -1.3306  1.2160
   51DOPE   H6Y 6544  -1.160  -2.813  -1.614 -1.0046 -0.3255 -0.1334
   51DOPE   C37 6545  -1.108  -2.800  -1.398  0.2670 -0.7982  0.4651
   51DOPE   H7X 6546  -1.106  -2.864  -1.307  0.8091  0.5853  1.4448
   51DOPE   H7Y 6547  -1.015  -2.741  -1.407 -0.5306  0.5002  0.4636
   51DOPE   C38 6548  -1.217  -2.693  -1.383 -0.2712  0.0976  0.4456
   51DOPE   H8X 6549  -1.318  -2.740  -1.375  0.7910 -2.8192 -1.6909
   51DOPE   H8Y 6550  -1.203  -2.632  -1.475  0.9012 -1.2588 -0.2943
   51DOPE   C39 6551  -1.177  -2.607  -1.265  1.1213  0.3225 -1.1203
   51DOPE   H9X 6552  -1.145  -2.503  -1.281  1.9795  0.2220 -0.1982
   51DOPE  C310 6553  -1.189  -2.641  -1.134 -0.5005  0.9375  0.2858
   51DOPE  H10X 6554  -1.156  -2.563  -1.064  0.9757  1.3619 -0.8087
   51DOPE  C311 6555  -1.230  -2.775  -1.076  0.2843 -0.5019 -0.2137
   51DOPE  H11X 6556  -1.265  -2.834  -1.164  0.9090  1.3206 -1.7547
   51DOPE  H11Y 6557  -1.132  -2.824  -1.055  0.9943  0.3737 -1.3421
   51DOPE  C312 6558  -1.326  -2.771  -0.959  0.0811  0.2770 -0.4634
   51DOPE  H12X 6559  -1.386  -2.864  -0.952  1.0646 -0.4506 -1.4197
   51DOPE  H12Y 6560  -1.399  -2.689  -0.977 -0.9392 -0.8040 -1.4129
   51DOPE  C313 6561  -1.262  -2.732  -0.830  0.0845  0.0042 -0.1246
   51DOPE  H13X 6562  -1.199  -2.810  -0.782  1.3896  1.8495  1.3206
   51DOPE  H13Y 6563  -1.195  -2.643  -0.838  0.1010 -0.1903 -2.9424
   51DOPE  C314 6564  -1.359  -2.687  -0.715  0.0264  0.1022 -0.0030
   51DOPE  H14X 6565  -1.427  -2.771  -0.690 -0.6952  0.5716 -0.3790
   51DOPE  H14Y 6566  -1.416  -2.599  -0.750 -1.2623 -0.3739  0.8555
   51DOPE  C315 6567  -1.284  -2.651  -0.593  0.6985  0.4733  0.3950
   51DOPE  H15X 6568  -1.232  -2.553  -0.607 -1.8798  1.6944 -1.6503
   51DOPE  H15Y 6569  -1.208  -2.726  -0.564  0.8589  0.0153 -1.1432
   51DOPE  C316 6570  -1.391  -2.626  -0.482 -0.0938 -0.0496  0.2632
   51DOPE  H16X 6571  -1.442  -2.725  -0.480 -0.1733 -0.0364 -0.6657
   51DOPE  H16Y 6572  -1.470  -2.553  -0.511 -3.7747 -3.3024  1.2482
   51DOPE  C317 6573  -1.319  -2.594  -0.354  0.4725  0.0330 -0.0894
   51DOPE  H17X 6574  -1.245  -2.673  -0.325 -0.1259 -0.6882 -0.4779
   51DOPE  H17Y 6575  -1.260  -2.500  -0.359  2.0957 -0.9767 -0.9629
   51DOPE  C318 6576  -1.399  -2.573  -0.226  0.2590 -0.1860 -0.0520
   51DOPE  H18X 6577  -1.335  -2.536  -0.142  0.3396  1.0759 -0.6378
   51DOPE  H18Y 6578  -1.483  -2.502  -0.243  0.7726  0.3508 -0.4132
   51DOPE  H18Z 6579  -1.447  -2.667  -0.195  0.3460  0.1258  1.0814
   52DOPE     N 6580   2.440  -0.329  -2.391  0.0096  0.3611 -0.0430
   52DOPE   HN1 6581   2.389  -0.264  -2.455 -1.5206 -0.8431 -0.1078
   52DOPE   HN2 6582   2.529  -0.359  -2.434 -0.1023  2.6166 -2.0667
   52DOPE   HN3 6583   2.391  -0.421  -2.399  0.2633  0.3232 -1.3761
   52DOPE   C12 6584   2.452  -0.273  -2.256  0.3579 -0.3596 -0.1225
   52DOPE  H12A 6585   2.471  -0.360  -2.189 -2.2826  0.1447  1.4226
   52DOPE  H12B 6586   2.355  -0.227  -2.228  1.5854  1.6378  1.1342
   52DOPE   C11 6587   2.561  -0.161  -2.254 -0.1761  0.3258  0.5721
   52DOPE  H11A 6588   2.661  -0.206  -2.271  0.0452  0.9674  0.1127
   52DOPE  H11B 6589   2.560  -0.117  -2.151 -1.1558  3.0227 -0.4985
   52DOPE     P 6590   2.569   0.097  -2.336 -0.4238  0.0992 -0.1494
   52DOPE   O13 6591   2.473   0.186  -2.408  0.0651  0.0960 -0.4157
   52DOPE   O14 6592   2.712   0.111  -2.365 -0.0710  0.1054 -0.0698
   52DOPE   O11 6593   2.552   0.112  -2.185 -0.5144  0.1451 -0.2457
   52DOPE   O12 6594   2.526  -0.055  -2.352  0.3995  0.2532 -0.4007
   52DOPE    C1 6595   2.434   0.120  -2.102 -0.5192  0.2387  0.0098
   52DOPE    HA 6596   2.441   0.049  -2.016 -1.0049  0.8960  0.5969
   52DOPE    HB 6597   2.344   0.089  -2.159  0.9833  0.7826 -2.8186
   52DOPE    C2 6598   2.410   0.263  -2.047 -0.3526 -0.2852  0.0181
   52DOPE    HS 6599   2.508   0.313  -2.060  1.2975 -3.3161 -0.3313
   52DOPE   O21 6600   2.397   0.243  -1.910  0.2942  0.4273 -0.3140
   52DOPE   C21 6601   2.396   0.351  -1.834  0.3613 -0.1865  0.2524
   52DOPE   O22 6602   2.426   0.462  -1.875 -0.1259 -0.1663  0.0779
   52DOPE   C22 6603   2.373   0.311  -1.691 -0.2166 -0.2549  0.1039
   52DOPE   H2R 6604   2.442   0.225  -1.680  1.2657  0.6245 -1.7279
   52DOPE   H2S 6605   2.266   0.283  -1.682 -0.6396  0.7523 -1.4247
   52DOPE    C3 6606   2.295   0.336  -2.121  0.1486  0.5834  0.1591
   52DOPE    HX 6607   2.324   0.341  -2.228 -0.1721  0.1864  0.0521
   52DOPE    HY 6608   2.288   0.442  -2.089 -0.0967  0.5051  0.3645
   52DOPE   O31 6609   2.167   0.269  -2.107 -0.1845  0.0737  0.1558
   52DOPE   C31 6610   2.092   0.302  -2.001  0.3704  0.4094  0.5690
   52DOPE   O32 6611   2.121   0.376  -1.913 -0.0721 -0.2271  0.4898
   52DOPE   C32 6612   1.969   0.214  -2.013  0.2400  0.0007 -0.0761
   52DOPE   H2X 6613   1.913   0.232  -2.108 -1.4815 -0.5961  0.7742
   52DOPE   H2Y 6614   2.012   0.113  -2.021  0.5306  0.2340 -1.7280
   52DOPE   C23 6615   2.401   0.419  -1.587 -0.1554 -0.8074 -0.0923
   52DOPE   H3R 6616   2.350   0.515  -1.612  1.1651  1.1617  3.9056
   52DOPE   H3S 6617   2.508   0.443  -1.569  0.0114 -1.7339  0.2252
   52DOPE   C24 6618   2.333   0.383  -1.450  0.4276 -0.0092  0.9373
   52DOPE   H4R 6619   2.357   0.279  -1.421 -0.4825 -0.2909  0.7016
   52DOPE   H4S 6620   2.222   0.379  -1.459  0.2057 -0.6669  3.2179
   52DOPE   C25 6621   2.358   0.473  -1.333 -0.2798  0.7722 -0.2630
   52DOPE   H5R 6622   2.309   0.572  -1.337  0.5931  1.4638  3.1567
   52DOPE   H5S 6623   2.466   0.498  -1.339 -0.3763  1.1027 -0.6965
   52DOPE   C26 6624   2.325   0.403  -1.201 -0.4327 -0.5921 -0.1616
   52DOPE   H6R 6625   2.221   0.367  -1.184  0.0166 -1.0264  2.0411
   52DOPE   H6S 6626   2.349   0.480  -1.124  0.8398 -0.0816 -1.0461
   52DOPE   C27 6627   2.429   0.295  -1.163  0.1409 -0.1823 -0.4027
   52DOPE   H7R 6628   2.527   0.339  -1.191  0.4863 -0.9560 -0.4078
   52DOPE   H7S 6629   2.407   0.201  -1.217 -0.5084  0.9836 -2.2672
   52DOPE   C28 6630   2.443   0.259  -1.005  0.4053  0.0041 -0.3259
   52DOPE   H8R 6631   2.520   0.179  -0.995  1.5228  0.9803 -0.9450
   52DOPE   H8S 6632   2.354   0.195  -0.987 -0.6959  1.4745 -0.4274
   52DOPE   C29 6633   2.464   0.370  -0.911 -0.1057 -0.7880 -0.0294
   52DOPE   H9R 6634   2.560   0.422  -0.928  0.0188 -1.3753 -1.1795
   52DOPE  C210 6635   2.373   0.421  -0.821  1.2291  0.2507 -0.2693
   52DOPE  H10R 6636   2.402   0.518  -0.778  2.7673  1.2234 -3.2711
   52DOPE  C211 6637   2.232   0.373  -0.779  0.0249 -0.0107  0.2622
   52DOPE  H11R 6638   2.179   0.316  -0.859  1.0199 -2.3666  1.1743
   52DOPE  H11S 6639   2.161   0.458  -0.767 -0.3527 -0.1311 -1.0155
   52DOPE  C212 6640   2.238   0.271  -0.663  0.6869 -0.3562 -0.0040
   52DOPE  H12R 6641   2.299   0.184  -0.693  1.0563 -1.1467  2.7851
   52DOPE  H12S 6642   2.141   0.224  -0.638  1.0589 -0.6115  0.9767
   52DOPE  C213 6643   2.299   0.329  -0.537 -0.5006  0.1854  0.1324
   52DOPE  H13R 6644   2.406   0.338  -0.563 -1.1457  1.6517 -2.3397
   52DOPE  H13S 6645   2.273   0.261  -0.453 -2.1999  0.0793 -0.4379
   52DOPE  C214 6646   2.241   0.470  -0.506 -0.2595 -0.0527 -0.2012
   52DOPE  H14R 6647   2.253   0.546  -0.586 -0.6596 -1.6985 -1.9093
   52DOPE  H14S 6648   2.289   0.505  -0.413 -1.4975 -2.0832  1.2703
   52DOPE  C215 6649   2.093   0.458  -0.469 -0.1824 -0.0751 -0.6259
   52DOPE  H15R 6650   2.091   0.380  -0.390 -0.2887 -0.0983 -0.6521
   52DOPE  H15S 6651   2.030   0.423  -0.554 -0.0644 -0.8724 -0.3925
   52DOPE  C216 6652   2.034   0.597  -0.431 -0.4764  0.9580 -0.1679
   52DOPE  H16R 6653   2.055   0.667  -0.515 -1.0845  0.8357 -0.4313
   52DOPE  H16S 6654   2.089   0.630  -0.341 -1.6888  0.6071  0.7403
   52DOPE  C217 6655   1.881   0.597  -0.421  0.2298  0.0324 -0.4096
   52DOPE  H17R 6656   1.844   0.497  -0.390 -0.8444  0.3294 -0.6898
   52DOPE  H17S 6657   1.837   0.604  -0.523  0.1652 -0.5393 -0.4243
   52DOPE  C218 6658   1.826   0.706  -0.326  0.2940  0.0075  0.0677
   52DOPE  H18R 6659   1.719   0.688  -0.306  0.5306 -1.2179  0.3293
   52DOPE  H18S 6660   1.876   0.698  -0.227 -4.0196 -1.4977  2.3390
   52DOPE  H18T 6661   1.847   0.806  -0.371  5.2476 -1.0108 -0.4502
   52DOPE   C33 6662   1.867   0.227  -1.901  0.1974  0.3571 -0.0597
   52DOPE   H3X 6663   1.769   0.182  -1.930 -0.0470  1.4152 -0.9394
   52DOPE   H3Y 6664   1.841   0.335  -1.901 -0.2100  0.2590  0.1601
   52DOPE   C34 6665   1.915   0.164  -1.769 -0.1057 -0.4290  0.1589
   52DOPE   H4X 6666   1.929   0.056  -1.788 -1.3946 -0.3575 -1.3569
   52DOPE   H4Y 6667   2.015   0.203  -1.739 -0.2887 -0.5282  0.9054
   52DOPE   C35 6668   1.832   0.190  -1.650  0.5443 -0.7643  0.3922
   52DOPE   H5X 6669   1.738   0.144  -1.688 -0.0888  0.4909  0.3888
   52DOPE   H5Y 6670   1.816   0.299  -1.649 -0.3922 -0.8932  1.2339
   52DOPE   C36 6671   1.888   0.138  -1.515  0.0205  0.0914 -0.2945
   52DOPE   H6X 6672   1.986   0.182  -1.489 -1.0686  1.6991  1.3904
   52DOPE   H6Y 6673   1.897   0.028  -1.527  1.6987 -0.0659  1.8732
   52DOPE   C37 6674   1.784   0.146  -1.405 -0.1827  0.4891  0.1666
   52DOPE   H7X 6675   1.729   0.242  -1.394 -1.5040 -0.3154  0.8468
   52DOPE   H7Y 6676   1.704   0.071  -1.424 -1.4438  1.9109 -0.4086
   52DOPE   C38 6677   1.836   0.103  -1.265  0.4458 -0.8883 -0.4698
   52DOPE   H8X 6678   1.874  -0.000  -1.276  0.1307 -0.8702 -1.9614
   52DOPE   H8Y 6679   1.744   0.106  -1.203  1.6036 -1.2085  1.3064
   52DOPE   C39 6680   1.944   0.197  -1.212 -0.5193  0.2905  0.2132
   52DOPE   H9X 6681   2.037   0.200  -1.270  0.1346 -2.0027  1.0282
   52DOPE  C310 6682   1.941   0.261  -1.095  0.0233  0.3098  0.5443
   52DOPE  H10X 6683   2.006   0.349  -1.083  0.7390  0.2591 -2.4004
   52DOPE  C311 6684   1.837   0.260  -0.984  0.3480 -0.2551  0.2889
   52DOPE  H11X 6685   1.823   0.370  -0.969  0.5086 -0.1939 -0.0239
   52DOPE  H11Y 6686   1.734   0.227  -1.010  0.6924 -1.0055 -0.1397
   52DOPE  C312 6687   1.876   0.185  -0.855  0.1058  0.0120  0.3440
   52DOPE  H12X 6688   1.974   0.220  -0.815  0.2445 -1.3602  1.2477
   52DOPE  H12Y 6689   1.877   0.074  -0.858  0.7768  0.0094  0.3804
   52DOPE  C313 6690   1.797   0.224  -0.736  1.0330 -0.1939  0.1127
   52DOPE  H13X 6691   1.821   0.330  -0.712  1.1079  0.5561 -2.8262
   52DOPE  H13Y 6692   1.691   0.220  -0.771  1.7561 -0.1744 -2.2877
   52DOPE  C314 6693   1.814   0.139  -0.615  0.0421  0.2327 -0.0980
   52DOPE  H14X 6694   1.921   0.109  -0.602  0.7308  1.7675 -1.8229
   52DOPE  H14Y 6695   1.746   0.053  -0.628  1.4527 -0.6125 -2.4752
   52DOPE  C315 6696   1.772   0.205  -0.486 -0.4083 -0.3933  0.9680
   52DOPE  H15X 6697   1.689   0.278  -0.501  1.2633  1.5467  0.7863
   52DOPE  H15Y 6698   1.862   0.257  -0.446 -0.4677  0.9352 -0.5083
   52DOPE  C316 6699   1.718   0.110  -0.373 -0.3137  0.7456 -0.2531
   52DOPE  H16X 6700   1.809   0.098  -0.310 -0.8667  0.6714  0.5509
   52DOPE  H16Y 6701   1.689   0.012  -0.416  1.3951 -0.1072  0.4045
   52DOPE  C317 6702   1.614   0.160  -0.272 -0.0910 -0.6422 -0.0683
   52DOPE  H17X 6703   1.650   0.261  -0.241  1.1819 -1.5463  1.5814
   52DOPE  H17Y 6704   1.522   0.183  -0.329  0.9307 -1.1998 -2.0432
   52DOPE  C318 6705   1.559   0.071  -0.155 -0.2385 -0.1410  0.1565
   52DOPE  H18X 6706   1.480   0.126  -0.099 -1.1258  0.1140 -1.2799
   52DOPE  H18Y 6707   1.521  -0.026  -0.195  1.7442 -0.8834 -0.0424
   52DOPE  H18Z 6708   1.645   0.036  -0.095  0.5598  1.2013 -0.1579
   53DOPE     N 6709   1.270   3.094  -2.291  0.0998  0.1117 -0.1100
   53DOPE   HN1 6710   1.217   3.037  -2.359 -0.9532  1.6812 -0.6421
   53DOPE   HN2 6711   1.200   3.148  -2.236 -0.2420 -1.0781  0.6698
   53DOPE   HN3 6712   1.321   3.172  -2.338  0.2367  0.0209 -0.1130
   53DOPE   C12 6713   1.358   3.008  -2.202 -0.5814 -0.7851 -0.1870
   53DOPE  H12A 6714   1.428   2.949  -2.265  0.6636 -2.4719  2.5938
   53DOPE  H12B 6715   1.296   2.932  -2.150  0.7890 -2.7126 -1.2402
   53DOPE   C11 6716   1.444   3.091  -2.097 -0.7137  0.2469 -0.3152
   53DOPE  H11A 6717   1.477   3.005  -2.035 -2.1080 -0.3977 -0.4459
   53DOPE  H11B 6718   1.375   3.165  -2.052 -2.7840 -1.7896  0.0347
   53DOPE     P 6719   1.555   3.290  -2.223  0.5979  0.1526 -0.1278
   53DOPE   O13 6720   1.437   3.298  -2.310 -0.4101 -0.0098  0.0215
   53DOPE   O14 6721   1.689   3.303  -2.280 -0.6743 -0.2612 -0.1024
   53DOPE   O11 6722   1.528   3.389  -2.107  0.6135  0.5131  0.4427
   53DOPE   O12 6723   1.560   3.149  -2.153  0.1596 -0.0433  0.8758
   53DOPE    C1 6724   1.636   3.445  -2.027  0.2899  0.3893 -0.5315
   53DOPE    HA 6725   1.590   3.525  -1.965  0.1434  1.3058 -1.7947
   53DOPE    HB 6726   1.714   3.493  -2.090 -0.8068  0.1795 -2.1075
   53DOPE    C2 6727   1.690   3.349  -1.918 -0.5217 -0.5065 -0.0885
   53DOPE    HS 6728   1.740   3.265  -1.970  0.4139  0.3912 -0.6723
   53DOPE   O21 6729   1.573   3.314  -1.842  0.1723  0.0784  0.2840
   53DOPE   C21 6730   1.588   3.191  -1.788 -0.1283 -0.1935  0.2933
   53DOPE   O22 6731   1.689   3.122  -1.801  0.2087  0.5271  0.0648
   53DOPE   C22 6732   1.471   3.159  -1.695  0.8653 -0.5889 -0.3372
   53DOPE   H2R 6733   1.450   3.051  -1.701  3.4029 -1.2804  1.4777
   53DOPE   H2S 6734   1.391   3.224  -1.736  0.6593 -0.7616 -0.2061
   53DOPE    C3 6735   1.788   3.432  -1.827  0.0875  0.0355  0.5640
   53DOPE    HX 6736   1.751   3.536  -1.807  2.9494  1.3963 -0.6571
   53DOPE    HY 6737   1.884   3.427  -1.881 -1.7308 -1.0614 -2.8072
   53DOPE   O31 6738   1.795   3.370  -1.693  0.1744 -0.6396  0.1818
   53DOPE   C31 6739   1.907   3.307  -1.649 -0.4391 -0.4891  0.7732
   53DOPE   O32 6740   2.005   3.297  -1.721 -0.0281 -0.2547  0.6922
   53DOPE   C32 6741   1.901   3.255  -1.513  0.4707  0.4112 -0.7978
   53DOPE   H2X 6742   1.838   3.163  -1.513 -1.2150  1.4628  1.6818
   53DOPE   H2Y 6743   2.009   3.233  -1.501  0.8326  1.5308 -1.8871
   53DOPE   C23 6744   1.491   3.182  -1.546 -0.1090 -1.1949  0.0363
   53DOPE   H3R 6745   1.494   3.291  -1.527 -0.7765 -1.3320  0.9762
   53DOPE   H3S 6746   1.592   3.147  -1.517 -0.1696 -0.4353  1.2082
   53DOPE   C24 6747   1.388   3.123  -1.456  0.3065  0.0461  0.3676
   53DOPE   H4R 6748   1.386   3.013  -1.471  1.0447 -0.0596  0.9625
   53DOPE   H4S 6749   1.289   3.167  -1.480 -0.7711 -1.1877  2.3630
   53DOPE   C25 6750   1.420   3.162  -1.314  0.3470  0.8888 -0.7562
   53DOPE   H5R 6751   1.443   3.271  -1.312 -2.9925  1.7206 -1.3488
   53DOPE   H5S 6752   1.505   3.098  -1.284 -1.9717 -1.5474  1.1312
   53DOPE   C26 6753   1.312   3.116  -1.217  0.2157  0.4913  0.0330
   53DOPE   H6R 6754   1.309   3.005  -1.213 -0.7465  0.4513 -1.2267
   53DOPE   H6S 6755   1.217   3.158  -1.256 -0.4196 -0.7469  0.2008
   53DOPE   C27 6756   1.341   3.174  -1.077  0.9746  0.7022 -0.0855
   53DOPE   H7R 6757   1.343   3.285  -1.077 -1.4416  0.7956  1.2299
   53DOPE   H7S 6758   1.446   3.140  -1.060  1.5372  2.1683 -0.4638
   53DOPE   C28 6759   1.248   3.104  -0.977  0.1830  0.3363 -0.6100
   53DOPE   H8R 6760   1.255   2.994  -0.991 -3.3803  0.1817 -2.2019
   53DOPE   H8S 6761   1.146   3.133  -1.010 -0.6688 -1.9178 -0.1237
   53DOPE   C29 6762   1.277   3.142  -0.836 -0.7614 -0.1435  0.5543
   53DOPE   H9R 6763   1.225   3.237  -0.815  0.5636  0.5454  0.7886
   53DOPE  C210 6764   1.338   3.070  -0.742  0.8400  0.7610  0.5374
   53DOPE  H10R 6765   1.322   3.110  -0.641 -3.9260 -0.2667  0.4273
   53DOPE  C211 6766   1.416   2.941  -0.762  0.0159 -0.3079 -0.2523
   53DOPE  H11R 6767   1.526   2.960  -0.765  0.1567 -1.0209  0.2509
   53DOPE  H11S 6768   1.390   2.874  -0.847 -1.1693 -0.5683  0.2929
   53DOPE  C212 6769   1.377   2.853  -0.651 -0.2450  0.4269  0.0543
   53DOPE  H12R 6770   1.409   2.748  -0.672  0.5015  0.4298  1.0688
   53DOPE  H12S 6771   1.269   2.842  -0.625  0.1019  0.6176  1.7139
   53DOPE  C213 6772   1.457   2.884  -0.518 -0.4357 -0.5679  0.4788
   53DOPE  H13R 6773   1.420   2.978  -0.473  0.6005  0.2901 -0.4166
   53DOPE  H13S 6774   1.561   2.908  -0.549 -0.3141 -0.3511  1.0423
   53DOPE  C214 6775   1.460   2.773  -0.415 -0.2043 -0.0973  0.2845
   53DOPE  H14R 6776   1.498   2.679  -0.462  0.0343  0.1148  0.0486
   53DOPE  H14S 6777   1.359   2.742  -0.382  0.0071 -0.9186  0.1824
   53DOPE  C215 6778   1.543   2.814  -0.296 -0.4050  0.1479  0.1075
   53DOPE  H15R 6779   1.500   2.907  -0.255  0.3070  0.6376 -0.2470
   53DOPE  H15S 6780   1.646   2.831  -0.336  0.0260  0.1485  1.1941
   53DOPE  C216 6781   1.550   2.699  -0.194  0.4681 -0.5340 -0.1263
   53DOPE  H16R 6782   1.448   2.658  -0.177 -0.4883  1.1846 -1.3826
   53DOPE  H16S 6783   1.595   2.736  -0.099  1.1861  1.1072 -1.0776
   53DOPE  C217 6784   1.615   2.569  -0.242  0.1640  0.0984  0.6347
   53DOPE  H17R 6785   1.705   2.597  -0.300 -1.1036  0.6057 -1.1691
   53DOPE  H17S 6786   1.547   2.529  -0.320  1.1119  0.3101 -0.3194
   53DOPE  C218 6787   1.646   2.456  -0.143 -0.2773  0.3053 -0.3176
   53DOPE  H18R 6788   1.562   2.418  -0.080  0.2126 -1.2717 -0.5718
   53DOPE  H18S 6789   1.723   2.487  -0.069  0.0929 -1.0446 -0.1147
   53DOPE  H18T 6790   1.673   2.364  -0.200 -0.6319  0.4927 -0.7973
   53DOPE   C33 6791   1.857   3.346  -1.395 -0.0468 -0.6472 -0.3968
   53DOPE   H3X 6792   1.761   3.397  -1.417 -0.4312 -0.1874  2.1055
   53DOPE   H3Y 6793   1.939   3.421  -1.390  0.0540 -0.6398 -1.7526
   53DOPE   C34 6794   1.837   3.274  -1.263 -0.0580 -0.3459 -0.3219
   53DOPE   H4X 6795   1.795   3.173  -1.280 -0.4687 -0.0790 -0.9095
   53DOPE   H4Y 6796   1.940   3.256  -1.225 -0.1333 -0.9578 -0.4101
   53DOPE   C35 6797   1.756   3.354  -1.164  0.1025  0.3398 -0.2115
   53DOPE   H5X 6798   1.654   3.360  -1.207  0.2301 -0.4454 -0.6437
   53DOPE   H5Y 6799   1.786   3.461  -1.156  0.3693  0.2203  0.4731
   53DOPE   C36 6800   1.758   3.302  -1.021  0.1678 -0.2517 -0.2208
   53DOPE   H6X 6801   1.857   3.316  -0.972  0.4164  1.1014 -1.0548
   53DOPE   H6Y 6802   1.725   3.196  -1.028  0.5118 -0.3626 -0.1442
   53DOPE   C37 6803   1.644   3.377  -0.943  0.1432  0.0647 -0.1897
   53DOPE   H7X 6804   1.668   3.485  -0.939 -1.3778  0.4463 -0.6624
   53DOPE   H7Y 6805   1.548   3.367  -0.999 -0.2543  0.3407  0.4244
   53DOPE   C38 6806   1.618   3.330  -0.801 -0.4377 -0.4493 -0.9150
   53DOPE   H8X 6807   1.580   3.228  -0.781  0.7427 -0.6374  0.6612
   53DOPE   H8Y 6808   1.545   3.404  -0.761  1.4204  0.7019  0.5617
   53DOPE   C39 6809   1.741   3.328  -0.715 -0.1388 -0.0232 -0.3961
   53DOPE   H9X 6810   1.798   3.234  -0.723  2.3105  1.2416  0.8407
   53DOPE  C310 6811   1.779   3.426  -0.631  0.5559  0.3394 -0.2520
   53DOPE  H10X 6812   1.851   3.402  -0.551 -1.5715 -1.9554  1.1476
   53DOPE  C311 6813   1.708   3.561  -0.608 -0.5086  0.2656 -0.1695
   53DOPE  H11X 6814   1.726   3.639  -0.685  0.9005  0.6283  0.4938
   53DOPE  H11Y 6815   1.598   3.546  -0.601 -0.4148 -2.3697 -2.4887
   53DOPE  C312 6816   1.749   3.621  -0.470  0.1869  0.1428  0.0128
   53DOPE  H12X 6817   1.859   3.629  -0.464  0.2296 -1.2602  2.1550
   53DOPE  H12Y 6818   1.720   3.556  -0.384 -2.2029 -0.0629 -0.8691
   53DOPE  C313 6819   1.690   3.764  -0.445 -0.2527  1.0459 -0.2341
   53DOPE  H13X 6820   1.707   3.830  -0.533 -0.5077  0.0385 -1.0686
   53DOPE  H13Y 6821   1.579   3.759  -0.444 -0.2749  1.0987 -1.1143
   53DOPE  C314 6822   1.752   3.835  -0.320  0.1443 -0.4917 -0.6708
   53DOPE  H14X 6823   1.687   3.920  -0.287 -0.4619 -2.0352  2.4249
   53DOPE  H14Y 6824   1.856   3.866  -0.341 -0.5804  2.3164 -0.5552
   53DOPE  C315 6825   1.747   3.746  -0.195  0.0781  0.4331  0.4303
   53DOPE  H15X 6826   1.793   3.648  -0.219 -1.4212 -0.1871 -0.0673
   53DOPE  H15Y 6827   1.642   3.717  -0.174 -0.2495  0.3789 -1.1985
   53DOPE  C316 6828   1.817   3.795  -0.068  0.1658  0.7796  0.5364
   53DOPE  H16X 6829   1.887   3.879  -0.086 -0.2362  1.3398  1.4645
   53DOPE  H16Y 6830   1.876   3.708  -0.036 -2.9666 -1.4688  0.7051
   53DOPE  C317 6831   1.712   3.838   0.043  0.1305  0.0099  0.7088
   53DOPE  H17X 6832   1.654   3.926   0.007 -2.4828 -2.1818 -0.7903
   53DOPE  H17Y 6833   1.645   3.751   0.061 -0.0705 -0.7416 -3.0340
   53DOPE  C318 6834   1.796   3.868   0.179 -0.0478  0.4310 -0.4073
   53DOPE  H18X 6835   1.883   3.933   0.152  0.2895  0.6065  1.0512
   53DOPE  H18Y 6836   1.729   3.917   0.253 -1.0722 -2.5284  0.7767
   53DOPE  H18Z 6837   1.836   3.772   0.217  0.3670  1.1737  1.1091
   54DOPE     N 6838   3.352  -0.548  -2.379 -0.4351  0.3646  0.5940
   54DOPE   HN1 6839   3.439  -0.563  -2.434 -1.5978  1.8364 -1.8179
   54DOPE   HN2 6840   3.370  -0.473  -2.309  2.5396 -1.0888  1.5510
   54DOPE   HN3 6841   3.326  -0.640  -2.338 -0.8896  0.2433  0.0541
   54DOPE   C12 6842   3.249  -0.518  -2.488  0.3342 -0.1387  0.1042
   54DOPE  H12A 6843   3.158  -0.486  -2.434  1.0440  1.5166  0.3780
   54DOPE  H12B 6844   3.238  -0.613  -2.545 -3.3250 -0.4173  1.0550
   54DOPE   C11 6845   3.304  -0.400  -2.573 -1.0294  0.5519 -0.1869
   54DOPE  H11A 6846   3.252  -0.405  -2.671  1.9463 -3.3398 -1.8052
   54DOPE  H11B 6847   3.410  -0.417  -2.599 -1.0784  2.0895 -1.5652
   54DOPE     P 6848   3.361  -0.149  -2.543 -0.2301 -0.0597  0.2037
   54DOPE   O13 6849   3.303  -0.038  -2.467 -0.5903  0.0933 -0.2971
   54DOPE   O14 6850   3.351  -0.136  -2.695  0.2739  0.7658  0.3558
   54DOPE   O11 6851   3.515  -0.172  -2.501  0.5934  0.1206  0.0720
   54DOPE   O12 6852   3.283  -0.279  -2.506 -0.1111 -0.0113 -0.1637
   54DOPE    C1 6853   3.569  -0.215  -2.377  0.0801  0.4057  0.3335
   54DOPE    HA 6854   3.640  -0.298  -2.396 -0.6383 -0.1155 -0.1369
   54DOPE    HB 6855   3.491  -0.259  -2.311  0.5131 -0.1595  0.4741
   54DOPE    C2 6856   3.649  -0.102  -2.305 -0.2019 -0.2234  0.4973
   54DOPE    HS 6857   3.701  -0.045  -2.386  3.3575 -1.0400  2.0035
   54DOPE   O21 6858   3.742  -0.161  -2.218  0.2381 -0.3150  0.1751
   54DOPE   C21 6859   3.851  -0.090  -2.212  0.1701  0.2881 -0.9522
   54DOPE   O22 6860   3.890   0.001  -2.284 -0.4443 -0.1374  0.3559
   54DOPE   C22 6861   3.949  -0.157  -2.115 -0.3118 -0.7967 -0.1712
   54DOPE   H2R 6862   4.050  -0.113  -2.125 -0.8261  0.1271 -1.6187
   54DOPE   H2S 6863   3.961  -0.258  -2.159  1.6877 -0.9621  0.6712
   54DOPE    C3 6864   3.543  -0.016  -2.231 -0.0814  0.1048 -0.3324
   54DOPE    HX 6865   3.482  -0.080  -2.164  1.3940 -0.6593  0.3388
   54DOPE    HY 6866   3.477   0.029  -2.308  2.1370 -0.3582 -2.6661
   54DOPE   O31 6867   3.606   0.090  -2.155 -0.1347  0.5217  0.1001
   54DOPE   C31 6868   3.642   0.197  -2.220  0.3521 -0.1635  0.0194
   54DOPE   O32 6869   3.604   0.233  -2.330 -0.3661 -0.0109 -0.1663
   54DOPE   C32 6870   3.747   0.269  -2.135 -0.0649 -1.0354 -0.0878
   54DOPE   H2X 6871   3.843   0.214  -2.137 -0.3487 -1.5348 -0.1697
   54DOPE   H2Y 6872   3.772   0.367  -2.180 -1.1285  0.3064  2.0897
   54DOPE   C23 6873   3.882  -0.177  -1.977  0.0038  0.3047  0.4500
   54DOPE   H3R 6874   3.804  -0.256  -1.987 -1.5836  1.5052  2.5236
   54DOPE   H3S 6875   3.829  -0.083  -1.952  1.0156  1.9233 -2.9057
   54DOPE   C24 6876   3.972  -0.225  -1.864  0.4688  0.1936  0.0313
   54DOPE   H4R 6877   4.030  -0.301  -1.921  1.7838  0.4972  0.9190
   54DOPE   H4S 6878   3.921  -0.287  -1.787 -0.0913  0.6523  0.0339
   54DOPE   C25 6879   4.059  -0.121  -1.797 -0.4708  0.0020 -0.5719
   54DOPE   H5R 6880   4.101  -0.050  -1.871  0.1886 -0.5232 -0.7115
   54DOPE   H5S 6881   4.144  -0.173  -1.748 -0.9984 -1.1789 -0.8597
   54DOPE   C26 6882   3.988  -0.041  -1.694 -0.1861 -0.0773  0.4807
   54DOPE   H6R 6883   3.905   0.008  -1.749  0.8060  0.2295 -0.8006
   54DOPE   H6S 6884   4.059   0.034  -1.653 -1.7262  1.2792  0.7813
   54DOPE   C27 6885   3.912  -0.109  -1.576  0.4378 -0.2769 -0.2191
   54DOPE   H7R 6886   3.840  -0.184  -1.615 -0.8286  0.0477  1.3474
   54DOPE   H7S 6887   3.846  -0.046  -1.511 -0.0870 -3.7870  2.9956
   54DOPE   C28 6888   4.009  -0.191  -1.486 -0.1999  0.0722 -0.4860
   54DOPE   H8R 6889   4.063  -0.263  -1.550  1.0708  1.1622 -0.7006
   54DOPE   H8S 6890   3.941  -0.245  -1.418 -0.5185 -3.0268 -3.0542
   54DOPE   C29 6891   4.115  -0.105  -1.417 -0.7523  0.2554 -0.1526
   54DOPE   H9R 6892   4.161  -0.026  -1.479 -1.0758 -0.2855 -1.0968
   54DOPE  C210 6893   4.172  -0.132  -1.299  0.2913  0.1624  0.2358
   54DOPE  H10R 6894   4.255  -0.067  -1.268  2.5214 -1.9980 -0.8747
   54DOPE  C211 6895   4.138  -0.252  -1.214 -0.3668 -0.7471  0.4171
   54DOPE  H11R 6896   4.223  -0.323  -1.223 -1.2362 -1.8924  0.9986
   54DOPE  H11S 6897   4.045  -0.307  -1.240 -0.8575  0.5807 -0.7264
   54DOPE  C212 6898   4.138  -0.208  -1.071  0.0347  0.0042 -0.4379
   54DOPE  H12R 6899   4.227  -0.145  -1.049 -0.7313  0.5259  1.4285
   54DOPE  H12S 6900   4.148  -0.298  -1.006 -1.3873 -0.0816 -0.3158
   54DOPE  C213 6901   4.019  -0.138  -1.021 -0.1937 -0.2481  0.0587
   54DOPE  H13R 6902   3.929  -0.202  -1.030  0.2953 -1.3734  2.3707
   54DOPE  H13S 6903   4.012  -0.045  -1.081 -0.0606 -1.0210 -1.1862
   54DOPE  C214 6904   4.033  -0.092  -0.872 -0.5254 -0.8146  1.2109
   54DOPE  H14R 6905   4.128  -0.035  -0.861 -0.1538 -1.0989 -0.3341
   54DOPE  H14S 6906   4.052  -0.177  -0.804  2.6446 -0.6099  0.7215
   54DOPE  C215 6907   3.927   0.001  -0.821  0.5492 -0.0390  0.2125
   54DOPE  H15R 6908   3.933   0.087  -0.890 -0.9198  0.9632  1.2793
   54DOPE  H15S 6909   3.961   0.028  -0.719  1.3447 -1.7793  0.4454
   54DOPE  C216 6910   3.782  -0.055  -0.816 -0.2251 -0.1569  0.0481
   54DOPE  H16R 6911   3.791  -0.148  -0.755  0.2303 -0.0354  0.1704
   54DOPE  H16S 6912   3.757  -0.073  -0.922  0.6076  0.8188 -0.3324
   54DOPE  C217 6913   3.676   0.047  -0.778  0.9162 -0.0452 -0.4658
   54DOPE  H17R 6914   3.662   0.128  -0.853 -3.4576  1.9649  2.1689
   54DOPE  H17S 6915   3.691   0.094  -0.679 -0.9556  1.0969 -0.6806
   54DOPE  C218 6916   3.534  -0.005  -0.765 -0.1162 -0.3446 -0.1929
   54DOPE  H18R 6917   3.492  -0.059  -0.852  2.3363 -0.8684 -1.1333
   54DOPE  H18S 6918   3.458   0.071  -0.738  1.0228  0.4729  0.8057
   54DOPE  H18T 6919   3.543  -0.083  -0.687  0.1247 -0.7504 -0.6231
   54DOPE   C33 6920   3.709   0.264  -1.985 -0.0892 -0.7171 -0.3011
   54DOPE   H3X 6921   3.717   0.162  -1.941  1.8737  0.7055  3.0660
   54DOPE   H3Y 6922   3.620   0.325  -1.959  0.9680  0.1383  1.4741
   54DOPE   C34 6923   3.827   0.324  -1.903  0.2553  0.7949  0.2256
   54DOPE   H4X 6924   3.920   0.278  -1.941  0.1668 -0.1028  1.0786
   54DOPE   H4Y 6925   3.823   0.433  -1.926 -0.9892  0.4753 -1.2040
   54DOPE   C35 6926   3.805   0.307  -1.755  0.3787  0.0051 -0.2378
   54DOPE   H5X 6927   3.760   0.208  -1.734  3.1480 -0.8837  2.1657
   54DOPE   H5Y 6928   3.735   0.384  -1.716  1.2664  1.4505 -1.4039
   54DOPE   C36 6929   3.938   0.324  -1.680 -0.7255 -0.4226 -0.3173
   54DOPE   H6X 6930   3.996   0.406  -1.728  0.8236 -1.3429 -0.0790
   54DOPE   H6Y 6931   4.013   0.242  -1.680  1.2068  1.2156 -2.4080
   54DOPE   C37 6932   3.932   0.366  -1.531 -0.1109 -0.1822  0.7277
   54DOPE   H7X 6933   4.038   0.372  -1.499 -0.2020  0.0622  0.9896
   54DOPE   H7Y 6934   3.893   0.470  -1.532 -0.4153 -0.2937 -0.3096
   54DOPE   C38 6935   3.839   0.271  -1.448 -0.2268  0.2068 -0.2353
   54DOPE   H8X 6936   3.855   0.164  -1.475 -1.2391 -0.2386  0.7851
   54DOPE   H8Y 6937   3.738   0.296  -1.488 -0.0937  2.1363  0.5572
   54DOPE   C39 6938   3.856   0.289  -1.302 -0.0967  0.4320 -0.1894
   54DOPE   H9X 6939   3.953   0.321  -1.260 -0.8649  2.1050  0.3709
   54DOPE  C310 6940   3.760   0.274  -1.210  0.1050 -0.1759  0.3452
   54DOPE  H10X 6941   3.790   0.288  -1.105  1.6449 -2.4880  0.2915
   54DOPE  C311 6942   3.616   0.237  -1.222 -0.1548  0.2837  0.6155
   54DOPE  H11X 6943   3.551   0.271  -1.138 -0.6394  0.2124  0.2730
   54DOPE  H11Y 6944   3.574   0.281  -1.315 -1.6862 -1.3402  0.4823
   54DOPE  C312 6945   3.602   0.091  -1.249  1.0508 -0.7987 -0.0381
   54DOPE  H12X 6946   3.653   0.035  -1.168 -0.0684 -0.5926  0.8307
   54DOPE  H12Y 6947   3.661   0.069  -1.341  0.2652  3.3163 -1.7412
   54DOPE  C313 6948   3.452   0.031  -1.260  0.0050 -0.4364 -1.1810
   54DOPE  H13X 6949   3.458  -0.080  -1.254  1.5107 -0.2943  0.8378
   54DOPE  H13Y 6950   3.391   0.077  -1.179  0.3188  1.1343 -1.7932
   54DOPE  C314 6951   3.388   0.072  -1.392 -0.3812  0.1424 -0.1931
   54DOPE  H14X 6952   3.366   0.180  -1.384  1.3409  0.5722 -0.9482
   54DOPE  H14Y 6953   3.283   0.038  -1.410 -0.5995  0.0498  1.1317
   54DOPE  C315 6954   3.472   0.045  -1.513 -0.6629 -0.3397  0.6597
   54DOPE  H15X 6955   3.546  -0.032  -1.483 -0.1876 -0.7214 -1.3013
   54DOPE  H15Y 6956   3.539   0.128  -1.543  0.3999 -1.6294 -0.7421
   54DOPE  C316 6957   3.395  -0.010  -1.637 -0.4086  0.1214  0.2408
   54DOPE  H16X 6958   3.328   0.076  -1.660  2.1231  1.8275 -1.2400
   54DOPE  H16Y 6959   3.328  -0.095  -1.610  0.7897 -0.9615 -0.0810
   54DOPE  C317 6960   3.485  -0.060  -1.747 -0.1992 -0.4273 -0.5428
   54DOPE  H17X 6961   3.552   0.020  -1.785  0.8544 -0.5356  0.9741
   54DOPE  H17Y 6962   3.559  -0.133  -1.708 -0.2667 -0.7570 -1.0335
   54DOPE  C318 6963   3.412  -0.124  -1.868 -0.6404 -0.1149 -0.0266
   54DOPE  H18X 6964   3.346  -0.052  -1.920 -1.9395 -0.1594  1.4929
   54DOPE  H18Y 6965   3.482  -0.171  -1.941 -0.9418 -1.6917  0.6553
   54DOPE  H18Z 6966   3.347  -0.209  -1.839 -0.5499 -0.2801 -0.3071
   55DOPE     N 6967  -2.757   0.642  -2.832 -0.5517  1.1865  0.6228
   55DOPE   HN1 6968  -2.713   0.697  -2.909 -0.7840  0.3940 -0.0970
   55DOPE   HN2 6969  -2.713   0.550  -2.813  1.6279  2.3831  1.7487
   55DOPE   HN3 6970  -2.856   0.629  -2.861 -1.2365  4.1898  1.2350
   55DOPE   C12 6971  -2.767   0.725  -2.709  0.3985 -0.3476  0.3192
   55DOPE  H12A 6972  -2.679   0.721  -2.641 -0.1450 -1.6771  0.9749
   55DOPE  H12B 6973  -2.843   0.675  -2.646 -0.3369 -1.6597 -1.5667
   55DOPE   C11 6974  -2.807   0.872  -2.739  0.5479  0.5173  0.7159
   55DOPE  H11A 6975  -2.821   0.918  -2.639  1.0872  1.8523  0.2058
   55DOPE  H11B 6976  -2.896   0.881  -2.805  1.5314 -0.2997 -0.8061
   55DOPE     P 6977  -2.687   1.079  -2.840 -0.1368  0.2167 -0.5764
   55DOPE   O13 6978  -2.786   1.114  -2.938  0.3264 -0.1195 -0.3261
   55DOPE   O14 6979  -2.549   1.118  -2.871  0.6173  0.0131  0.4416
   55DOPE   O11 6980  -2.736   1.143  -2.704 -0.2672 -0.9674  0.6202
   55DOPE   O12 6981  -2.698   0.930  -2.811 -0.1674  0.2452  0.5957
   55DOPE    C1 6982  -2.639   1.173  -2.602  0.3052  0.5601 -0.0317
   55DOPE    HA 6983  -2.560   1.233  -2.652 -0.2420  0.7365 -0.7110
   55DOPE    HB 6984  -2.585   1.082  -2.568  1.7303  0.9386 -1.1500
   55DOPE    C2 6985  -2.700   1.259  -2.485 -0.1662  0.2244  0.0960
   55DOPE    HS 6986  -2.631   1.278  -2.400  1.0688  1.0563 -1.0510
   55DOPE   O21 6987  -2.809   1.193  -2.424  0.0393  0.3173  0.5425
   55DOPE   C21 6988  -2.785   1.078  -2.372 -0.3276 -0.3713 -0.2240
   55DOPE   O22 6989  -2.674   1.032  -2.344  0.0649  0.3083 -0.0327
   55DOPE   C22 6990  -2.913   1.016  -2.354 -0.4604 -0.3030  0.2195
   55DOPE   H2R 6991  -2.943   0.977  -2.454  0.1233  0.5373 -0.2953
   55DOPE   H2S 6992  -2.984   1.099  -2.330  0.6371 -0.1261  3.3063
   55DOPE    C3 6993  -2.750   1.398  -2.533 -0.3985  0.0653  1.3908
   55DOPE    HX 6994  -2.797   1.398  -2.634  2.7923  1.0035 -0.2241
   55DOPE    HY 6995  -2.652   1.447  -2.553 -0.5780 -0.5795 -1.5086
   55DOPE   O31 6996  -2.826   1.470  -2.436 -0.1067  0.0889 -0.5128
   55DOPE   C31 6997  -2.955   1.455  -2.447  0.1850 -0.2228  0.2955
   55DOPE   O32 6998  -3.014   1.380  -2.517 -0.4378 -0.2247 -0.1995
   55DOPE   C32 6999  -3.009   1.553  -2.350  0.4536  0.0369  0.1675
   55DOPE   H2X 7000  -3.028   1.649  -2.402  1.6917 -0.7754 -1.9073
   55DOPE   H2Y 7001  -3.100   1.496  -2.319  1.4717 -1.2094  0.9278
   55DOPE   C23 7002  -2.920   0.916  -2.244 -0.4492 -0.0901 -0.5457
   55DOPE   H3R 7003  -2.896   0.957  -2.144 -2.3589 -0.3083  0.0402
   55DOPE   H3S 7004  -2.856   0.828  -2.270 -0.3942 -0.8902  2.0378
   55DOPE   C24 7005  -3.069   0.878  -2.216  0.0285 -0.2968  0.1376
   55DOPE   H4R 7006  -3.123   0.838  -2.305  2.5796 -2.5397 -0.5346
   55DOPE   H4S 7007  -3.120   0.971  -2.184 -0.3128 -0.3982 -0.1071
   55DOPE   C25 7008  -3.085   0.775  -2.105 -0.1002 -0.2346 -0.1388
   55DOPE   H5R 7009  -3.012   0.694  -2.125  2.6041  2.3039 -1.4801
   55DOPE   H5S 7010  -3.181   0.720  -2.106 -1.1508  1.4646  1.4074
   55DOPE   C26 7011  -3.060   0.826  -1.972 -0.3795 -0.5318 -0.2867
   55DOPE   H6R 7012  -3.132   0.906  -1.947 -0.4354 -0.9035  0.7915
   55DOPE   H6S 7013  -2.958   0.868  -1.976 -0.7718  0.4133 -0.5093
   55DOPE   C27 7014  -3.065   0.723  -1.855  0.3392  0.1716  0.7242
   55DOPE   H7R 7015  -3.009   0.639  -1.901  0.3315 -0.1537  1.3085
   55DOPE   H7S 7016  -3.171   0.694  -1.837  0.3423 -0.2243  0.1255
   55DOPE   C28 7017  -2.999   0.761  -1.728 -0.0247  0.2862  0.2165
   55DOPE   H8R 7018  -2.894   0.791  -1.750 -0.1950  1.4967  0.9817
   55DOPE   H8S 7019  -3.009   0.669  -1.666 -2.8553  1.0967  1.0782
   55DOPE   C29 7020  -3.076   0.875  -1.663 -0.0358  0.1372  0.1952
   55DOPE   H9R 7021  -3.088   0.961  -1.730  1.3599  0.6550  0.5796
   55DOPE  C210 7022  -3.136   0.871  -1.543  0.2466 -0.6363 -0.7243
   55DOPE  H10R 7023  -3.194   0.959  -1.511 -1.3590 -1.5237 -1.1318
   55DOPE  C211 7024  -3.157   0.768  -1.440  0.5668  0.4610 -0.3724
   55DOPE  H11R 7025  -3.144   0.675  -1.499 -0.6567  1.1214 -1.7671
   55DOPE  H11S 7026  -3.265   0.765  -1.412 -0.0551  1.2006 -2.4761
   55DOPE  C212 7027  -3.068   0.745  -1.316 -0.2550  0.1013 -0.5200
   55DOPE  H12R 7028  -3.019   0.834  -1.272 -0.2534  0.1477 -0.6148
   55DOPE  H12S 7029  -2.986   0.689  -1.367  1.2508  2.3599 -0.7181
   55DOPE  C213 7030  -3.132   0.664  -1.206 -0.0546 -0.1610  0.0678
   55DOPE  H13R 7031  -3.177   0.565  -1.232  0.5942  0.1616 -2.5749
   55DOPE  H13S 7032  -3.216   0.726  -1.171  1.4812  0.3163  3.3054
   55DOPE  C214 7033  -3.026   0.641  -1.097 -0.1033 -0.3972 -0.4383
   55DOPE  H14R 7034  -2.968   0.735  -1.081 -0.5045  0.0773 -1.6154
   55DOPE  H14S 7035  -2.948   0.565  -1.122  2.0819  1.4138  0.5153
   55DOPE  C215 7036  -3.101   0.596  -0.973  0.2820 -0.3216 -0.0604
   55DOPE  H15R 7037  -3.136   0.492  -0.993  2.8911 -1.3596  0.4076
   55DOPE  H15S 7038  -3.190   0.657  -0.946 -0.7263 -1.0583 -1.5840
   55DOPE  C216 7039  -3.002   0.584  -0.850 -0.5256 -0.2482  0.1375
   55DOPE  H16R 7040  -2.963   0.688  -0.850 -0.9351 -0.0230 -2.5742
   55DOPE  H16S 7041  -2.910   0.532  -0.887 -0.7175 -0.0312 -0.6698
   55DOPE  C217 7042  -3.056   0.541  -0.722 -0.7908  0.2859 -0.3394
   55DOPE  H17R 7043  -3.142   0.602  -0.688  1.1603  2.2309  1.4078
   55DOPE  H17S 7044  -2.976   0.566  -0.648 -0.9695  2.4183 -0.8233
   55DOPE  C218 7045  -3.089   0.392  -0.710 -0.4278 -0.1863 -0.6233
   55DOPE  H18R 7046  -3.184   0.370  -0.763 -1.0076 -0.6374  0.5702
   55DOPE  H18S 7047  -3.093   0.348  -0.608 -1.7053 -0.0364 -0.5909
   55DOPE  H18T 7048  -3.002   0.337  -0.751  0.1786  1.1350 -1.1866
   55DOPE   C33 7049  -2.922   1.576  -2.217 -1.0542  0.2675  0.1373
   55DOPE   H3X 7050  -2.959   1.657  -2.151  1.9485  1.1636  0.8630
   55DOPE   H3Y 7051  -2.827   1.620  -2.255 -1.1189  0.6096  0.3755
   55DOPE   C34 7052  -2.885   1.454  -2.130  0.1314  0.6474  0.0919
   55DOPE   H4X 7053  -2.831   1.379  -2.191 -1.3931  1.8482 -2.9553
   55DOPE   H4Y 7054  -2.820   1.488  -2.046 -1.2435  0.7084  1.1593
   55DOPE   C35 7055  -3.007   1.392  -2.057  0.3451  0.0718 -0.5172
   55DOPE   H5X 7056  -3.091   1.377  -2.128 -0.1284 -0.0526  0.0614
   55DOPE   H5Y 7057  -3.046   1.468  -1.987  3.0328  1.2662 -0.1741
   55DOPE   C36 7058  -2.978   1.254  -1.990 -0.2838 -0.4460  0.5286
   55DOPE   H6X 7059  -2.927   1.201  -2.072  1.8991  1.7114  0.3749
   55DOPE   H6Y 7060  -3.072   1.208  -1.952  0.3777  0.2029  3.1736
   55DOPE   C37 7061  -2.873   1.257  -1.878  0.1190  0.7586  1.0192
   55DOPE   H7X 7062  -2.842   1.157  -1.843  1.4137  1.2687  1.4115
   55DOPE   H7Y 7063  -2.778   1.299  -1.919 -0.3018  0.2436 -0.5842
   55DOPE   C38 7064  -2.928   1.339  -1.760 -0.2583 -0.0020  0.8664
   55DOPE   H8X 7065  -3.030   1.299  -1.739 -0.9469  1.2700  0.1154
   55DOPE   H8Y 7066  -2.949   1.443  -1.791  1.8287  0.7000  1.6634
   55DOPE   C39 7067  -2.832   1.332  -1.642  0.4738  1.0235  0.1909
   55DOPE   H9X 7068  -2.738   1.385  -1.665 -0.3727  2.0028 -1.1594
   55DOPE  C310 7069  -2.846   1.264  -1.522 -0.1224  0.2166 -0.6405
   55DOPE  H10X 7070  -2.764   1.271  -1.449 -2.0183  0.1532  1.6440
   55DOPE  C311 7071  -2.967   1.179  -1.481 -0.7831  0.1835 -0.0624
   55DOPE  H11X 7072  -3.049   1.206  -1.551 -0.3273  0.4643 -0.5024
   55DOPE  H11Y 7073  -2.946   1.070  -1.486  3.1618  0.8522 -1.0219
   55DOPE  C312 7074  -3.018   1.209  -1.337  0.0608 -0.2881 -0.0769
   55DOPE  H12X 7075  -3.125   1.182  -1.328 -0.2215  1.4423  3.1799
   55DOPE  H12Y 7076  -3.030   1.316  -1.310 -1.3680 -0.6215  0.6773
   55DOPE  C313 7077  -2.944   1.130  -1.223  0.3685  0.0879  1.2032
   55DOPE  H13X 7078  -2.967   1.023  -1.237 -0.4131  0.6145 -2.5483
   55DOPE  H13Y 7079  -2.834   1.130  -1.238  0.4053  2.5667  1.0093
   55DOPE  C314 7080  -2.983   1.169  -1.085 -0.4753 -0.3203 -0.7485
   55DOPE  H14X 7081  -3.090   1.198  -1.085 -0.3004  0.3457 -0.8387
   55DOPE  H14Y 7082  -2.936   1.268  -1.066 -0.7273 -0.0168 -1.6543
   55DOPE  C315 7083  -2.954   1.063  -0.976 -0.2982  0.3590  0.0836
   55DOPE  H15X 7084  -2.856   1.011  -0.977 -1.3119 -1.6657  0.4866
   55DOPE  H15Y 7085  -3.010   0.971  -1.002 -0.9987  0.7547  0.1517
   55DOPE  C316 7086  -2.987   1.101  -0.827  1.0948 -0.4614 -0.3897
   55DOPE  H16X 7087  -2.971   1.015  -0.759 -1.2055 -0.8854 -0.3166
   55DOPE  H16Y 7088  -3.096   1.122  -0.827  1.3239  0.8556 -0.1240
   55DOPE  C317 7089  -2.913   1.223  -0.791  0.4448  0.0238 -0.6093
   55DOPE  H17X 7090  -2.803   1.214  -0.807  0.2828 -1.6990 -0.9105
   55DOPE  H17Y 7091  -2.953   1.312  -0.845 -1.3161 -0.5653 -0.3233
   55DOPE  C318 7092  -2.944   1.262  -0.645 -0.3801  0.0130 -0.0655
   55DOPE  H18X 7093  -2.876   1.347  -0.625 -1.3714  0.2818  2.5724
   55DOPE  H18Y 7094  -3.046   1.302  -0.627 -1.0338 -0.4563 -2.3649
   55DOPE  H18Z 7095  -2.925   1.182  -0.571 -0.4402  0.2562  0.2180
   56DOPE     N 7096   2.866   2.981  -2.551 -0.3584 -0.6865 -0.4140
   56DOPE   HN1 7097   2.888   2.899  -2.611  0.8065 -1.7097  1.3379
   56DOPE   HN2 7098   2.909   3.067  -2.591 -0.3479 -0.1677  0.6874
   56DOPE   HN3 7099   2.924   2.954  -2.469  0.6836  2.9975  0.2332
   56DOPE   C12 7100   2.730   2.978  -2.500  0.0247  0.4174  0.3031
   56DOPE  H12A 7101   2.654   2.997  -2.579 -0.4851 -1.1286  0.3688
   56DOPE  H12B 7102   2.712   3.051  -2.418  0.4724  0.5101  0.3215
   56DOPE   C11 7103   2.702   2.846  -2.429  0.1109  0.1501  0.4252
   56DOPE  H11A 7104   2.706   2.763  -2.503 -1.6126  0.9650 -0.6659
   56DOPE  H11B 7105   2.597   2.839  -2.392 -0.0925 -1.9529 -0.4114
   56DOPE     P 7106   2.814   2.697  -2.232 -0.4296  0.1239 -0.0749
   56DOPE   O13 7107   2.861   2.750  -2.100 -0.1111 -0.2867 -0.2540
   56DOPE   O14 7108   2.897   2.587  -2.292  0.4748 -0.4146 -0.2449
   56DOPE   O11 7109   2.671   2.635  -2.213  0.2176  0.1052 -0.0252
   56DOPE   O12 7110   2.801   2.822  -2.327 -0.2482 -0.8091 -0.2268
   56DOPE    C1 7111   2.576   2.698  -2.118 -0.3288 -0.1560  0.2774
   56DOPE    HA 7112   2.475   2.665  -2.150 -0.4760  1.8557 -1.6049
   56DOPE    HB 7113   2.571   2.807  -2.141  1.4281  0.0635  0.8238
   56DOPE    C2 7114   2.597   2.666  -1.966 -0.1650 -0.0438  0.2358
   56DOPE    HS 7115   2.704   2.683  -1.942 -0.2408 -0.1735  0.6732
   56DOPE   O21 7116   2.547   2.531  -1.933  0.3362  0.1276 -0.2064
   56DOPE   C21 7117   2.619   2.427  -1.976  0.2960  0.6926  0.5718
   56DOPE   O22 7118   2.732   2.430  -2.021  0.0530 -0.3406 -0.1062
   56DOPE   C22 7119   2.536   2.299  -1.976 -0.1224  0.1539  0.2897
   56DOPE   H2R 7120   2.590   2.219  -2.031 -0.2322  0.3084 -0.0513
   56DOPE   H2S 7121   2.449   2.328  -2.038 -0.4592 -1.8942 -0.2448
   56DOPE    C3 7122   2.513   2.774  -1.891  0.0508  0.0549  0.0236
   56DOPE    HX 7123   2.408   2.751  -1.919  0.2523 -0.2557 -0.5027
   56DOPE    HY 7124   2.541   2.875  -1.929 -1.5842  0.4877 -0.0974
   56DOPE   O31 7125   2.538   2.778  -1.752  0.2694  0.1808  0.2164
   56DOPE   C31 7126   2.478   2.686  -1.673 -0.2238 -0.1852 -0.4856
   56DOPE   O32 7127   2.383   2.617  -1.712 -0.0810  0.0250 -0.3160
   56DOPE   C32 7128   2.545   2.685  -1.538  0.0862 -0.4480  0.2710
   56DOPE   H2X 7129   2.655   2.674  -1.555 -0.0729 -0.2719 -0.9532
   56DOPE   H2Y 7130   2.521   2.778  -1.483 -3.2073  0.0642 -1.7567
   56DOPE   C23 7131   2.484   2.262  -1.834  0.3816 -0.4118 -0.1253
   56DOPE   H3R 7132   2.501   2.354  -1.774 -2.4147 -0.3767  0.7283
   56DOPE   H3S 7133   2.541   2.177  -1.792  0.5414 -0.2183  0.0534
   56DOPE   C24 7134   2.335   2.234  -1.831 -0.0284  0.6733  1.2680
   56DOPE   H4R 7135   2.317   2.134  -1.876  0.7047  1.3777 -0.6703
   56DOPE   H4S 7136   2.289   2.312  -1.896  0.3184  0.9743  1.3834
   56DOPE   C25 7137   2.279   2.253  -1.690 -0.1493  0.4918 -0.2476
   56DOPE   H5R 7138   2.170   2.241  -1.712  0.0573 -1.7563 -0.2209
   56DOPE   H5S 7139   2.300   2.353  -1.645  1.6549 -0.5824  1.4313
   56DOPE   C26 7140   2.323   2.129  -1.605 -0.7756  0.2663  0.3611
   56DOPE   H6R 7141   2.412   2.086  -1.655 -1.8208  0.4339 -1.7426
   56DOPE   H6S 7142   2.245   2.050  -1.616 -1.7059  0.9631  1.6802
   56DOPE   C27 7143   2.355   2.159  -1.457  0.0586  0.2682 -0.0962
   56DOPE   H7R 7144   2.276   2.227  -1.420  0.0154 -1.5582  3.5496
   56DOPE   H7S 7145   2.447   2.220  -1.440  1.1057 -1.0845 -0.7250
   56DOPE   C28 7146   2.356   2.031  -1.370  0.7677  0.3579  0.4246
   56DOPE   H8R 7147   2.270   1.973  -1.409  0.3125  0.8714  0.6608
   56DOPE   H8S 7148   2.333   2.054  -1.264 -1.4799  1.4038 -0.2355
   56DOPE   C29 7149   2.480   1.948  -1.399  0.0444  0.8630  0.3390
   56DOPE   H9R 7150   2.469   1.874  -1.480  0.2461  0.4760  0.6592
   56DOPE  C210 7151   2.593   1.940  -1.334  0.0351 -0.9501 -0.2512
   56DOPE  H10R 7152   2.683   1.903  -1.385  0.9686 -1.6261  1.7713
   56DOPE  C211 7153   2.623   2.051  -1.237 -0.4739 -0.5716  0.5972
   56DOPE  H11R 7154   2.614   2.009  -1.135  0.8310 -0.5895  0.7271
   56DOPE  H11S 7155   2.551   2.135  -1.249  2.7413  2.2391 -0.5786
   56DOPE  C212 7156   2.759   2.119  -1.247  0.7354  0.2629 -0.1390
   56DOPE  H12R 7157   2.841   2.046  -1.268  2.6614  1.5911  2.2795
   56DOPE  H12S 7158   2.802   2.162  -1.154  2.9084  0.9029 -1.3442
   56DOPE  C213 7159   2.769   2.218  -1.370  0.2460 -0.4764  0.0635
   56DOPE  H13R 7160   2.686   2.291  -1.363  0.3547 -0.3430 -0.0494
   56DOPE  H13S 7161   2.769   2.152  -1.459  0.4733  1.2092 -1.2339
   56DOPE  C214 7162   2.896   2.298  -1.372 -0.0438 -0.2229 -0.3121
   56DOPE  H14R 7163   2.990   2.239  -1.384 -0.8763 -1.4319 -1.1492
   56DOPE  H14S 7164   2.900   2.340  -1.270  1.4643 -0.3274 -0.3080
   56DOPE  C215 7165   2.890   2.403  -1.483 -0.6647  0.1893  0.2243
   56DOPE  H15R 7166   2.979   2.467  -1.466 -1.1260  0.6750  0.9191
   56DOPE  H15S 7167   2.797   2.464  -1.485 -1.8591 -1.5729 -1.7829
   56DOPE  C216 7168   2.918   2.334  -1.614 -0.0337 -0.2923 -0.1888
   56DOPE  H16R 7169   2.830   2.269  -1.633  0.3978 -0.9156 -0.0982
   56DOPE  H16S 7170   3.002   2.262  -1.608  1.7215  1.7039  0.5130
   56DOPE  C217 7171   2.950   2.435  -1.727 -0.1889  0.1489  0.2987
   56DOPE  H17R 7172   3.034   2.501  -1.695  1.2615 -1.6232  0.3228
   56DOPE  H17S 7173   2.867   2.504  -1.752  1.3095  1.4850 -1.1993
   56DOPE  C218 7174   2.990   2.364  -1.854  0.1773 -0.1306 -0.4522
   56DOPE  H18R 7175   3.020   2.433  -1.936 -1.4638  1.2109  0.0201
   56DOPE  H18S 7176   2.911   2.297  -1.893  1.4216 -3.4227  2.2212
   56DOPE  H18T 7177   3.073   2.292  -1.839 -0.4830 -1.0900 -1.3368
   56DOPE   C33 7178   2.475   2.581  -1.442 -0.2267  0.4737  0.2390
   56DOPE   H3X 7179   2.483   2.479  -1.485 -0.2249  0.4730  0.2414
   56DOPE   H3Y 7180   2.367   2.607  -1.435  0.2552  2.3276  1.6223
   56DOPE   C34 7181   2.534   2.580  -1.301  0.0054 -0.5597  1.4502
   56DOPE   H4X 7182   2.645   2.567  -1.306 -0.1790 -2.3771  1.5046
   56DOPE   H4Y 7183   2.514   2.678  -1.253 -1.8553 -0.8305  1.2676
   56DOPE   C35 7184   2.477   2.471  -1.217 -0.9123 -0.0312 -0.6273
   56DOPE   H5X 7185   2.498   2.367  -1.251 -0.9343 -0.6513  1.1489
   56DOPE   H5Y 7186   2.369   2.492  -1.204 -0.1895  3.5715  0.5565
   56DOPE   C36 7187   2.531   2.476  -1.071 -0.2629  0.1482  0.7671
   56DOPE   H6X 7188   2.443   2.463  -1.004 -0.9740  3.2927  0.6414
   56DOPE   H6Y 7189   2.563   2.580  -1.047  1.9699  0.2159 -1.9250
   56DOPE   C37 7190   2.640   2.374  -1.037  0.0861 -0.0809 -0.0899
   56DOPE   H7X 7191   2.609   2.271  -1.064  1.7440 -1.6584  3.4159
   56DOPE   H7Y 7192   2.737   2.383  -1.091  1.0759  1.1747  1.7707
   56DOPE   C38 7193   2.663   2.358  -0.884 -0.2547 -0.3467  0.1910
   56DOPE   H8X 7194   2.560   2.365  -0.844 -0.6150  3.4437 -1.0507
   56DOPE   H8Y 7195   2.716   2.449  -0.849  1.2381 -1.0940 -0.0521
   56DOPE   C39 7196   2.740   2.236  -0.837 -0.3071 -0.1681 -0.8331
   56DOPE   H9X 7197   2.827   2.207  -0.898  0.7374  0.7549  0.1530
   56DOPE  C310 7198   2.737   2.185  -0.712  0.2207  0.7306 -0.0437
   56DOPE  H10X 7199   2.785   2.087  -0.694 -1.7922 -0.5432 -1.2815
   56DOPE  C311 7200   2.637   2.223  -0.612  0.0012  0.5666 -0.4270
   56DOPE  H11X 7201   2.653   2.330  -0.588  1.2390  0.1535  0.6468
   56DOPE  H11Y 7202   2.540   2.206  -0.664 -0.6431  0.7148  0.6871
   56DOPE  C312 7203   2.638   2.136  -0.484 -0.1541 -0.3650  0.4413
   56DOPE  H12X 7204   2.740   2.134  -0.440 -0.1332  0.3083  0.4442
   56DOPE  H12Y 7205   2.604   2.032  -0.504 -1.4311 -0.1247  1.2371
   56DOPE  C313 7206   2.531   2.185  -0.390  0.2588 -0.1662  0.6416
   56DOPE  H13X 7207   2.432   2.193  -0.439  0.9755 -1.9402 -1.2605
   56DOPE  H13Y 7208   2.516   2.110  -0.310  0.1990  0.1374  0.9176
   56DOPE  C314 7209   2.553   2.321  -0.323 -0.1962  0.0817  0.2238
   56DOPE  H14X 7210   2.583   2.400  -0.395  1.1827 -0.7562 -0.1629
   56DOPE  H14Y 7211   2.639   2.327  -0.253  1.5367  3.3144 -1.9405
   56DOPE  C315 7212   2.432   2.368  -0.249 -0.1098  0.1349 -0.2579
   56DOPE  H15X 7213   2.412   2.291  -0.172 -1.5157 -1.5776 -2.2041
   56DOPE  H15Y 7214   2.336   2.365  -0.305 -2.1189  1.6765  2.8114
   56DOPE  C316 7215   2.449   2.505  -0.188 -0.0286 -0.2889 -0.0629
   56DOPE  H16X 7216   2.466   2.582  -0.266 -1.0806 -2.0467 -2.1299
   56DOPE  H16Y 7217   2.536   2.491  -0.121 -1.5185 -2.2699  1.5823
   56DOPE  C317 7218   2.341   2.555  -0.089 -0.2530 -0.0955 -0.1004
   56DOPE  H17X 7219   2.247   2.555  -0.149 -0.0159 -1.3752 -0.5122
   56DOPE  H17Y 7220   2.320   2.475  -0.014 -0.1832  0.8930  1.0023
   56DOPE  C318 7221   2.375   2.685  -0.023 -1.3137 -0.0695 -0.2263
   56DOPE  H18X 7222   2.300   2.723   0.049 -0.6667  1.4943 -0.3534
   56DOPE  H18Y 7223   2.477   2.685   0.021 -0.7859 -1.4093 -1.3580
   56DOPE  H18Z 7224   2.374   2.765  -0.100 -1.9298  3.1398  2.8567
   57DOPE     N 7225   2.809  -1.031  -2.264 -0.3616 -0.4229 -0.2803
   57DOPE   HN1 7226   2.775  -1.129  -2.251  0.1229 -0.6026 -0.3520
   57DOPE   HN2 7227   2.806  -0.985  -2.170 -4.7974  0.0428 -0.4135
   57DOPE   HN3 7228   2.734  -0.974  -2.307 -0.8501 -0.4877  0.4454
   57DOPE   C12 7229   2.943  -1.019  -2.341  0.5890 -0.5989  0.6862
   57DOPE  H12A 7230   2.915  -1.049  -2.444 -1.9100 -0.6308  1.2983
   57DOPE  H12B 7231   3.017  -1.087  -2.294  1.7909  0.1968 -0.0167
   57DOPE   C11 7232   3.006  -0.883  -2.334 -0.0561  0.1463 -0.1863
   57DOPE  H11A 7233   2.940  -0.805  -2.376  0.7593  0.2166 -1.4157
   57DOPE  H11B 7234   3.098  -0.886  -2.397 -0.4073 -3.5323 -0.7522
   57DOPE     P 7235   3.198  -0.834  -2.162  0.0946  0.2131  0.2184
   57DOPE   O13 7236   3.211  -0.773  -2.026 -0.2343  0.1273 -0.0517
   57DOPE   O14 7237   3.283  -0.779  -2.274  0.2510 -0.1088  0.6038
   57DOPE   O11 7238   3.225  -0.992  -2.162 -0.1501  0.4630  0.4154
   57DOPE   O12 7239   3.040  -0.839  -2.200  0.7249 -0.2657 -0.5345
   57DOPE    C1 7240   3.216  -1.059  -2.036 -0.0649  0.0985  0.1250
   57DOPE    HA 7241   3.253  -0.994  -1.954  2.3529  0.9959 -1.5673
   57DOPE    HB 7242   3.287  -1.144  -2.033 -0.9635 -0.9211 -3.2590
   57DOPE    C2 7243   3.077  -1.111  -1.989 -0.1763 -1.0085  0.0351
   57DOPE    HS 7244   3.023  -1.129  -2.084  2.5097  0.7879 -2.0029
   57DOPE   O21 7245   3.021  -1.002  -1.909  0.7102 -0.0207 -0.1464
   57DOPE   C21 7246   2.890  -1.008  -1.905  0.0221  0.3786  0.0158
   57DOPE   O22 7247   2.818  -1.075  -1.978  0.2816  0.0887  0.3593
   57DOPE   C22 7248   2.829  -0.917  -1.793 -0.1431  0.0379 -0.6925
   57DOPE   H2R 7249   2.820  -0.814  -1.834  0.0714  0.2583 -0.1896
   57DOPE   H2S 7250   2.896  -0.930  -1.705 -2.2526 -0.4025  0.9048
   57DOPE    C3 7251   3.083  -1.236  -1.896  0.1761  0.3686  0.5802
   57DOPE    HX 7252   3.110  -1.317  -1.967 -0.0526  0.3010  0.5710
   57DOPE    HY 7253   2.983  -1.261  -1.855  0.3061  0.2497  0.8296
   57DOPE   O31 7254   3.179  -1.230  -1.788  0.0732  0.4808  0.2040
   57DOPE   C31 7255   3.141  -1.185  -1.676  0.3785  0.0269  0.0191
   57DOPE   O32 7256   3.025  -1.164  -1.638  0.2566 -0.1909 -0.1504
   57DOPE   C32 7257   3.273  -1.160  -1.599  0.3305 -0.0798  0.1283
   57DOPE   H2X 7258   3.304  -1.257  -1.556  0.4810 -0.1910 -0.2254
   57DOPE   H2Y 7259   3.346  -1.125  -1.676  0.2385 -0.6902 -0.2364
   57DOPE   C23 7260   2.687  -0.975  -1.754  0.3172 -0.7421  0.2151
   57DOPE   H3R 7261   2.705  -1.080  -1.724 -2.1085 -0.5539  2.7610
   57DOPE   H3S 7262   2.611  -0.965  -1.835  0.8084  0.0676 -0.1599
   57DOPE   C24 7263   2.637  -0.892  -1.631  0.2502  0.1905  0.3130
   57DOPE   H4R 7264   2.530  -0.914  -1.611  0.3989 -0.8866 -0.0125
   57DOPE   H4S 7265   2.642  -0.791  -1.678  1.6729 -0.6612 -1.4991
   57DOPE   C25 7266   2.726  -0.918  -1.510  0.1682 -0.6374 -0.4035
   57DOPE   H5R 7267   2.833  -0.891  -1.527  1.3517 -3.3808  1.8343
   57DOPE   H5S 7268   2.716  -1.026  -1.486 -2.6717 -0.1061  1.1709
   57DOPE   C26 7269   2.679  -0.839  -1.387 -0.1077 -0.1141 -0.6472
   57DOPE   H6R 7270   2.570  -0.848  -1.366 -0.0793  1.7853  0.5376
   57DOPE   H6S 7271   2.709  -0.734  -1.409 -2.0885  0.9244  1.1390
   57DOPE   C27 7272   2.762  -0.888  -1.267 -0.3613  0.0426 -0.6523
   57DOPE   H7R 7273   2.872  -0.890  -1.283 -0.4268  1.3349 -1.4392
   57DOPE   H7S 7274   2.724  -0.991  -1.250 -1.4138  0.3876 -0.8271
   57DOPE   C28 7275   2.737  -0.803  -1.137 -0.1808 -0.0088  0.0173
   57DOPE   H8R 7276   2.627  -0.789  -1.132 -0.1487  2.1775 -2.9273
   57DOPE   H8S 7277   2.775  -0.699  -1.146 -2.6185  0.8736 -1.0028
   57DOPE   C29 7278   2.795  -0.873  -1.017  0.2752 -0.2719 -0.5003
   57DOPE   H9R 7279   2.869  -0.949  -1.047  0.6496  0.0555 -0.4252
   57DOPE  C210 7280   2.774  -0.850  -0.885 -0.4346  0.2475  0.4742
   57DOPE  H10R 7281   2.836  -0.910  -0.815  0.0121  0.2877  0.1189
   57DOPE  C211 7282   2.674  -0.750  -0.833 -0.0584 -0.1758 -0.1366
   57DOPE  H11R 7283   2.587  -0.748  -0.903 -0.0701 -3.9264 -0.4600
   57DOPE  H11S 7284   2.724  -0.651  -0.831 -0.4466  0.0155  0.1401
   57DOPE  C212 7285   2.607  -0.802  -0.704  0.6649  0.0676  0.1966
   57DOPE  H12R 7286   2.545  -0.890  -0.732 -0.6641  1.2597 -0.7688
   57DOPE  H12S 7287   2.538  -0.721  -0.672  0.1692 -0.3434  0.1832
   57DOPE  C213 7288   2.708  -0.819  -0.583 -0.1441 -0.3938  0.0632
   57DOPE  H13R 7289   2.735  -0.713  -0.562 -2.2190 -0.1290  1.7066
   57DOPE  H13S 7290   2.800  -0.875  -0.611 -1.1457 -1.5848 -0.9973
   57DOPE  C214 7291   2.641  -0.874  -0.461  0.5776 -0.0151  0.5047
   57DOPE  H14R 7292   2.648  -0.984  -0.457 -0.6570 -0.2084 -1.3231
   57DOPE  H14S 7293   2.532  -0.852  -0.472  0.6704  0.1474 -0.1244
   57DOPE  C215 7294   2.676  -0.802  -0.335 -0.1911  0.1702  0.5953
   57DOPE  H15R 7295   2.674  -0.692  -0.349 -1.4637 -0.0127 -0.9691
   57DOPE  H15S 7296   2.782  -0.824  -0.308 -0.4821 -1.1585  0.7051
   57DOPE  C216 7297   2.594  -0.840  -0.216 -0.2175 -0.8092  0.1214
   57DOPE  H16R 7298   2.606  -0.950  -0.202  1.6818 -1.0289 -2.4127
   57DOPE  H16S 7299   2.491  -0.812  -0.249 -0.0752 -1.3465 -0.8212
   57DOPE  C217 7300   2.640  -0.749  -0.098  0.0254  0.0317 -0.7984
   57DOPE  H17R 7301   2.644  -0.644  -0.136  0.6446  0.0560 -0.6730
   57DOPE  H17S 7302   2.744  -0.770  -0.064 -0.7098  0.8315  2.2491
   57DOPE  C218 7303   2.559  -0.751   0.032  0.4464  0.0413  0.7473
   57DOPE  H18R 7304   2.608  -0.673   0.094  1.8163 -0.2538  0.0812
   57DOPE  H18S 7305   2.577  -0.849   0.081  0.0019 -1.0024 -1.0979
   57DOPE  H18T 7306   2.453  -0.728   0.008  0.2632 -0.4056  1.1334
   57DOPE   C33 7307   3.267  -1.050  -1.492 -0.1087 -0.1559 -0.1792
   57DOPE   H3X 7308   3.226  -0.963  -1.548  0.9233 -0.6797 -1.8192
   57DOPE   H3Y 7309   3.372  -1.027  -1.464 -0.3604  1.2949 -0.3144
   57DOPE   C34 7310   3.187  -1.083  -1.366 -0.0311  0.1901  0.1480
   57DOPE   H4X 7311   3.167  -0.989  -1.309 -1.5639  1.7489 -2.6935
   57DOPE   H4Y 7312   3.096  -1.128  -1.412 -1.1837  0.1867  2.3044
   57DOPE   C35 7313   3.263  -1.177  -1.269  0.3137  0.4281 -0.2454
   57DOPE   H5X 7314   3.367  -1.136  -1.273  0.1691  0.6904 -1.4352
   57DOPE   H5Y 7315   3.268  -1.282  -1.303 -0.0787  0.7266 -1.2579
   57DOPE   C36 7316   3.204  -1.167  -1.122 -0.3609  0.3678 -0.6417
   57DOPE   H6X 7317   3.099  -1.202  -1.118  0.3945 -2.0082  0.2423
   57DOPE   H6Y 7318   3.213  -1.059  -1.097 -0.9069  0.8313 -2.3452
   57DOPE   C37 7319   3.282  -1.248  -1.015 -0.0937 -0.2291 -0.6342
   57DOPE   H7X 7320   3.388  -1.214  -1.024 -0.1989  0.1536 -0.4093
   57DOPE   H7Y 7321   3.245  -1.223  -0.914  2.7101 -2.4398  1.0929
   57DOPE   C38 7322   3.291  -1.411  -1.020 -0.0701  0.1567  0.9307
   57DOPE   H8X 7323   3.301  -1.436  -1.128  0.2921  0.7179  0.8300
   57DOPE   H8Y 7324   3.190  -1.452  -0.997 -1.1293 -0.9587 -4.3799
   57DOPE   C39 7325   3.417  -1.460  -0.946 -0.0284  0.3853 -0.3685
   57DOPE   H9X 7326   3.511  -1.439  -1.000  0.7598 -0.1817  0.7376
   57DOPE  C310 7327   3.426  -1.532  -0.834  0.0646 -0.4674 -0.1282
   57DOPE  H10X 7328   3.520  -1.566  -0.788 -0.6983 -2.2423  0.1959
   57DOPE  C311 7329   3.306  -1.581  -0.759  0.6066 -1.2795 -0.2078
   57DOPE  H11X 7330   3.224  -1.515  -0.793 -0.0347 -0.9838  1.7379
   57DOPE  H11Y 7331   3.283  -1.686  -0.789 -1.7552 -1.2965  1.4031
   57DOPE  C312 7332   3.331  -1.574  -0.610  0.0985  0.0443 -0.0336
   57DOPE  H12X 7333   3.357  -1.467  -0.594 -1.4298  0.7178 -1.7674
   57DOPE  H12Y 7334   3.414  -1.634  -0.566 -0.6781 -0.6243  0.5600
   57DOPE  C313 7335   3.209  -1.596  -0.515 -0.5154  0.1134 -0.4090
   57DOPE  H13X 7336   3.130  -1.525  -0.549  0.5804  0.8760 -1.4392
   57DOPE  H13Y 7337   3.178  -1.701  -0.532  0.7638 -0.4676  0.7335
   57DOPE  C314 7338   3.254  -1.576  -0.371  1.0523  0.2959 -0.1322
   57DOPE  H14X 7339   3.297  -1.476  -0.352  0.4577  0.3772  0.8637
   57DOPE  H14Y 7340   3.333  -1.649  -0.344 -0.4375 -0.9732  1.0165
   57DOPE  C315 7341   3.142  -1.595  -0.272 -0.2623  0.0752 -0.4972
   57DOPE  H15X 7342   3.088  -1.692  -0.278  0.4812 -0.2308 -3.9960
   57DOPE  H15Y 7343   3.069  -1.512  -0.287  0.2639  1.7507  4.3347
   57DOPE  C316 7344   3.192  -1.590  -0.120  0.2773  0.4546 -0.4448
   57DOPE  H16X 7345   3.256  -1.501  -0.104 -1.8771  1.8985  0.6125
   57DOPE  H16Y 7346   3.256  -1.677  -0.096 -0.6409 -0.0265  0.3641
   57DOPE  C317 7347   3.072  -1.592  -0.022  0.7147 -0.5629 -0.1423
   57DOPE  H17X 7348   2.994  -1.521  -0.059  0.3046  0.0679  1.8358
   57DOPE  H17Y 7349   3.019  -1.689  -0.031 -1.0252  0.3730 -0.5378
   57DOPE  C318 7350   3.100  -1.560   0.125  0.4885 -0.1240  0.0453
   57DOPE  H18X 7351   3.016  -1.588   0.193 -0.2030  1.4125 -0.1431
   57DOPE  H18Y 7352   3.192  -1.619   0.148 -0.0000 -1.3843 -1.1078
   57DOPE  H18Z 7353   3.112  -1.450   0.138  0.1322 -0.2520  1.7050
   58DOPE     N 7354  -3.269   0.929  -2.665 -0.2260  0.3575  0.2492
   58DOPE   HN1 7355  -3.258   1.024  -2.706  0.1203  0.4809  0.6267
   58DOPE   HN2 7356  -3.181   0.889  -2.625 -0.9461 -0.9657  0.5800
   58DOPE   HN3 7357  -3.292   0.863  -2.743  4.1007 -0.6537 -0.4357
   58DOPE   C12 7358  -3.377   0.933  -2.558 -0.1100 -0.0094 -0.3073
   58DOPE  H12A 7359  -3.462   0.981  -2.610  1.9934  3.3273 -0.9331
   58DOPE  H12B 7360  -3.345   0.993  -2.470 -1.8953  0.4218  0.0769
   58DOPE   C11 7361  -3.423   0.793  -2.508  0.0791  0.0263  0.0130
   58DOPE  H11A 7362  -3.504   0.798  -2.432 -0.7108 -3.7763 -0.3851
   58DOPE  H11B 7363  -3.338   0.747  -2.455  0.4541  1.2709  0.5073
   58DOPE     P 7364  -3.414   0.571  -2.642  0.6030  0.4345  0.3313
   58DOPE   O13 7365  -3.274   0.583  -2.683 -0.5183  0.8032  0.1180
   58DOPE   O14 7366  -3.515   0.496  -2.732  0.6639 -0.4003 -0.7454
   58DOPE   O11 7367  -3.423   0.510  -2.499  0.2170  0.0737 -0.4079
   58DOPE   O12 7368  -3.470   0.715  -2.620  0.6216  0.3972 -0.3895
   58DOPE    C1 7369  -3.554   0.469  -2.448  0.0008 -0.5600  0.4396
   58DOPE    HA 7370  -3.593   0.380  -2.502  0.4701  0.3982 -1.5696
   58DOPE    HB 7371  -3.629   0.549  -2.465  2.1951  0.9972 -2.8525
   58DOPE    C2 7372  -3.543   0.448  -2.298  0.6115 -0.0729 -0.2228
   58DOPE    HS 7373  -3.648   0.432  -2.265  1.1317 -3.1432  0.1938
   58DOPE   O21 7374  -3.485   0.560  -2.229 -0.3277 -0.3035  0.1393
   58DOPE   C21 7375  -3.573   0.652  -2.179  0.7769  0.4407 -0.3739
   58DOPE   O22 7376  -3.692   0.649  -2.193  0.6429 -0.1784 -0.0543
   58DOPE   C22 7377  -3.499   0.757  -2.104 -0.5855  0.1803 -0.5351
   58DOPE   H2R 7378  -3.554   0.852  -2.119 -0.4295  0.8802  2.7096
   58DOPE   H2S 7379  -3.393   0.769  -2.136 -0.8422  1.9078 -0.8415
   58DOPE    C3 7380  -3.460   0.318  -2.273 -0.5872  0.4868 -0.0448
   58DOPE    HX 7381  -3.356   0.331  -2.311 -0.5391 -0.4750 -0.2812
   58DOPE    HY 7382  -3.513   0.245  -2.337 -1.5653  0.3901  0.8383
   58DOPE   O31 7383  -3.461   0.274  -2.138 -0.3369 -0.2403  1.1004
   58DOPE   C31 7384  -3.372   0.323  -2.050  0.0500  0.3733  0.6211
   58DOPE   O32 7385  -3.290   0.412  -2.081 -0.3747  0.2980 -0.0367
   58DOPE   C32 7386  -3.370   0.235  -1.924  0.2684 -0.3355  0.3298
   58DOPE   H2X 7387  -3.432   0.144  -1.938  1.2310 -0.9462 -0.0647
   58DOPE   H2Y 7388  -3.267   0.202  -1.900  0.0450 -0.8422  0.6150
   58DOPE   C23 7389  -3.512   0.735  -1.954  0.2524  0.0453 -0.2049
   58DOPE   H3R 7390  -3.448   0.650  -1.923  0.6299 -0.2620 -1.7294
   58DOPE   H3S 7391  -3.612   0.692  -1.934  0.0709 -0.6604 -2.3998
   58DOPE   C24 7392  -3.483   0.861  -1.866 -0.3877  0.3222 -0.5830
   58DOPE   H4R 7393  -3.536   0.950  -1.906  3.5613  2.1832 -2.2433
   58DOPE   H4S 7394  -3.375   0.887  -1.869 -0.1493 -0.6481 -0.5714
   58DOPE   C25 7395  -3.519   0.831  -1.719  0.7723 -0.3340 -0.0461
   58DOPE   H5R 7396  -3.448   0.751  -1.690 -0.0261 -1.4722 -1.1192
   58DOPE   H5S 7397  -3.621   0.788  -1.717  0.1933  0.8847 -1.4218
   58DOPE   C26 7398  -3.533   0.955  -1.633 -0.0810  0.3349 -0.3415
   58DOPE   H6R 7399  -3.605   1.022  -1.685 -1.7746  0.7397  2.3618
   58DOPE   H6S 7400  -3.435   1.007  -1.639  0.3903 -0.3398  1.0876
   58DOPE   C27 7401  -3.574   0.924  -1.488 -0.0130 -0.6193 -0.0149
   58DOPE   H7R 7402  -3.499   0.858  -1.441  0.9366 -0.2030 -0.8840
   58DOPE   H7S 7403  -3.672   0.873  -1.489  1.1152 -2.8983 -1.3218
   58DOPE   C28 7404  -3.583   1.048  -1.404  0.1472  0.3489  0.0671
   58DOPE   H8R 7405  -3.653   1.038  -1.318 -1.8489  1.0166 -1.3966
   58DOPE   H8S 7406  -3.635   1.120  -1.471 -2.2735 -2.0997 -0.8196
   58DOPE   C29 7407  -3.452   1.113  -1.362 -0.0107  0.3208  0.6649
   58DOPE   H9R 7408  -3.410   1.195  -1.422  1.0583 -0.3003  0.5497
   58DOPE  C210 7409  -3.381   1.082  -1.245 -0.2430 -0.0487 -0.2726
   58DOPE  H10R 7410  -3.289   1.137  -1.219 -1.3389  1.9995 -0.5000
   58DOPE  C211 7411  -3.425   0.984  -1.144 -0.3065  0.8602  0.0115
   58DOPE  H11R 7412  -3.400   0.882  -1.180  0.2498  1.0555 -0.1665
   58DOPE  H11S 7413  -3.535   0.992  -1.130 -0.0736  2.4556  1.3189
   58DOPE  C212 7414  -3.356   1.012  -1.010  0.6423 -0.4412  0.2378
   58DOPE  H12R 7415  -3.391   1.113  -0.981 -0.3951 -0.8174  0.3289
   58DOPE  H12S 7416  -3.245   1.012  -1.022  0.8195  1.1923  1.6004
   58DOPE  C213 7417  -3.399   0.909  -0.900  0.2014  0.3214 -0.1206
   58DOPE  H13R 7418  -3.364   0.808  -0.930 -1.1395 -0.6157  1.2660
   58DOPE  H13S 7419  -3.509   0.901  -0.894  0.2749 -0.4155  0.4055
   58DOPE  C214 7420  -3.336   0.947  -0.767 -0.2226 -0.2535  0.1622
   58DOPE  H14R 7421  -3.373   1.050  -0.750 -0.5519 -0.5427  1.2718
   58DOPE  H14S 7422  -3.226   0.957  -0.784 -0.3173 -1.0849 -1.0849
   58DOPE  C215 7423  -3.373   0.856  -0.650 -0.0387 -0.3596  0.4367
   58DOPE  H15R 7424  -3.306   0.768  -0.649  0.2536 -0.1336  0.9932
   58DOPE  H15S 7425  -3.475   0.812  -0.659 -0.6914  1.1372  0.2673
   58DOPE  C216 7426  -3.369   0.910  -0.510 -0.2753  0.4611 -0.9446
   58DOPE  H16R 7427  -3.376   0.829  -0.435  0.6299  1.5638  0.3986
   58DOPE  H16S 7428  -3.450   0.979  -0.478  1.3293  2.2618 -0.5317
   58DOPE  C217 7429  -3.235   0.990  -0.472 -0.3620  0.2559 -0.0986
   58DOPE  H17R 7430  -3.245   1.023  -0.367 -0.6724 -0.9342  0.2493
   58DOPE  H17S 7431  -3.225   1.068  -0.551 -0.7937 -1.1769 -1.6298
   58DOPE  C218 7432  -3.111   0.903  -0.477 -0.1919 -0.5974  0.1832
   58DOPE  H18R 7433  -3.098   0.865  -0.580  1.1180 -0.5124  0.2970
   58DOPE  H18S 7434  -3.118   0.806  -0.423 -0.7319 -1.9448 -2.1644
   58DOPE  H18T 7435  -3.026   0.965  -0.442  0.8585 -1.4416 -0.7907
   58DOPE   C33 7436  -3.407   0.314  -1.799  0.3352  0.6309  0.7262
   58DOPE   H3X 7437  -3.472   0.262  -1.725 -2.4125  0.2427 -1.7706
   58DOPE   H3Y 7438  -3.463   0.404  -1.832 -0.0032 -0.1041 -0.8003
   58DOPE   C34 7439  -3.272   0.349  -1.724  0.5333 -0.1012  0.0351
   58DOPE   H4X 7440  -3.213   0.260  -1.693 -0.3793 -0.8856 -0.4069
   58DOPE   H4Y 7441  -3.209   0.406  -1.795 -0.2880  0.9807  0.1470
   58DOPE   C35 7442  -3.285   0.448  -1.608  0.0701 -0.0490 -0.3727
   58DOPE   H5X 7443  -3.280   0.551  -1.651 -0.4032  0.1312 -0.0018
   58DOPE   H5Y 7444  -3.199   0.437  -1.538  1.9748 -0.8059 -2.6825
   58DOPE   C36 7445  -3.412   0.435  -1.535 -0.0844  0.3477 -0.1166
   58DOPE   H6X 7446  -3.432   0.329  -1.506 -1.5049  0.8974  1.0462
   58DOPE   H6Y 7447  -3.492   0.471  -1.603  0.9706  3.0842 -0.0147
   58DOPE   C37 7448  -3.417   0.519  -1.407 -0.0515  0.0867  0.6542
   58DOPE   H7X 7449  -3.336   0.490  -1.336  0.4578 -1.5867 -0.5665
   58DOPE   H7Y 7450  -3.414   0.626  -1.436 -0.3099 -0.2342 -0.6088
   58DOPE   C38 7451  -3.549   0.505  -1.329  0.2408 -0.3778  0.2088
   58DOPE   H8X 7452  -3.568   0.399  -1.300 -1.2747  0.0000  0.6893
   58DOPE   H8Y 7453  -3.629   0.526  -1.403  2.0701 -2.0701 -2.4446
   58DOPE   C39 7454  -3.557   0.604  -1.217  0.8432 -0.0624 -0.3835
   58DOPE   H9X 7455  -3.572   0.709  -1.248 -0.9090 -0.3712 -0.7098
   58DOPE  C310 7456  -3.516   0.583  -1.091 -0.8556 -0.2955  0.1018
   58DOPE  H10X 7457  -3.526   0.667  -1.021 -0.4974 -0.7341  0.6864
   58DOPE  C311 7458  -3.451   0.457  -1.029  0.3309 -0.7398 -0.0568
   58DOPE  H11X 7459  -3.443   0.383  -1.112  0.0899  0.2287 -0.9574
   58DOPE  H11Y 7460  -3.346   0.469  -0.996  0.0969 -0.5262  0.6211
   58DOPE  C312 7461  -3.542   0.423  -0.905 -0.0108  0.6717 -0.1686
   58DOPE  H12X 7462  -3.543   0.316  -0.877  0.4585  0.6334 -0.2902
   58DOPE  H12Y 7463  -3.647   0.460  -0.912  0.2851  2.0822  1.8442
   58DOPE  C313 7464  -3.484   0.499  -0.786  0.3695 -0.3950 -0.2096
   58DOPE  H13X 7465  -3.391   0.440  -0.768 -0.6000 -2.5025 -1.7265
   58DOPE  H13Y 7466  -3.473   0.608  -0.804  0.2049  0.2722  2.9999
   58DOPE  C314 7467  -3.560   0.505  -0.649  0.0272 -0.7077  0.2003
   58DOPE  H14X 7468  -3.669   0.519  -0.667 -0.2237 -2.2585  0.3452
   58DOPE  H14Y 7469  -3.516   0.585  -0.586 -0.0026  0.9336 -1.7555
   58DOPE  C315 7470  -3.561   0.369  -0.577  0.3901 -0.0119 -1.0644
   58DOPE  H15X 7471  -3.461   0.322  -0.569  0.4808  0.3259 -0.1082
   58DOPE  H15Y 7472  -3.619   0.290  -0.628 -0.0746 -1.2973  1.3171
   58DOPE  C316 7473  -3.637   0.380  -0.439 -0.1017  0.0151  0.5465
   58DOPE  H16X 7474  -3.741   0.418  -0.448 -0.7189 -1.9738 -2.1479
   58DOPE  H16Y 7475  -3.579   0.452  -0.377  1.9685 -0.7589 -0.4199
   58DOPE  C317 7476  -3.633   0.259  -0.351  0.3921  0.1104  0.0387
   58DOPE  H17X 7477  -3.527   0.226  -0.354  0.3074 -0.0856 -1.9266
   58DOPE  H17Y 7478  -3.665   0.285  -0.248 -0.2186  2.2441 -0.6548
   58DOPE  C318 7479  -3.704   0.131  -0.406 -1.4437 -0.0755  0.0476
   58DOPE  H18X 7480  -3.650   0.084  -0.491  2.1037 -0.7036  2.4318
   58DOPE  H18Y 7481  -3.708   0.053  -0.326 -2.3261  0.7610  0.8469
   58DOPE  H18Z 7482  -3.810   0.155  -0.429 -2.4709 -1.5376  2.7725
   59DOPE     N 7483   2.818  -2.600  -2.112  0.0038 -0.0258 -0.4657
   59DOPE   HN1 7484   2.762  -2.681  -2.145  1.8082 -0.9256 -1.5117
   59DOPE   HN2 7485   2.904  -2.597  -2.171  0.3867  0.0063  0.0827
   59DOPE   HN3 7486   2.847  -2.630  -2.017  0.3729 -0.4198 -0.6944
   59DOPE   C12 7487   2.753  -2.462  -2.111  0.0058  0.3591 -0.5338
   59DOPE  H12A 7488   2.820  -2.392  -2.056  0.7103 -0.0136 -0.9005
   59DOPE  H12B 7489   2.651  -2.461  -2.066 -0.7256  1.8841 -2.1197
   59DOPE   C11 7490   2.724  -2.414  -2.255  0.1252  0.9216  0.0382
   59DOPE  H11A 7491   2.683  -2.311  -2.251  0.2067  0.9628 -0.1454
   59DOPE  H11B 7492   2.639  -2.477  -2.287  1.9079 -1.0775 -1.0260
   59DOPE     P 7493   2.909  -2.298  -2.388 -0.0631 -0.3247  0.5059
   59DOPE   O13 7494   2.816  -2.215  -2.471  0.3172 -0.4488 -0.4701
   59DOPE   O14 7495   3.032  -2.330  -2.459  0.1310  0.2941  0.2116
   59DOPE   O11 7496   2.926  -2.240  -2.246  0.1570  0.6637 -0.0848
   59DOPE   O12 7497   2.832  -2.428  -2.345 -0.0771  1.0083 -0.9719
   59DOPE    C1 7498   3.057  -2.225  -2.189 -0.1218  0.1111  0.5861
   59DOPE    HA 7499   3.143  -2.192  -2.251  0.5713  1.3735  2.1438
   59DOPE    HB 7500   3.078  -2.324  -2.143 -0.9470 -0.9736 -1.2364
   59DOPE    C2 7501   3.054  -2.113  -2.078  0.1458 -0.5351  0.1178
   59DOPE    HS 7502   3.046  -2.015  -2.129  1.7378 -0.5530 -0.2280
   59DOPE   O21 7503   3.182  -2.115  -2.012 -0.2517 -0.3534  0.0683
   59DOPE   C21 7504   3.241  -1.993  -1.992  0.3313 -0.1854  0.0433
   59DOPE   O22 7505   3.210  -1.892  -2.049 -0.1509  0.0989 -0.4743
   59DOPE   C22 7506   3.344  -2.003  -1.886 -0.4713  0.5486 -0.1773
   59DOPE   H2R 7507   3.412  -2.083  -1.922 -1.4916 -0.0411 -0.8417
   59DOPE   H2S 7508   3.303  -2.048  -1.793  0.5923 -0.8053 -0.3253
   59DOPE    C3 7509   2.933  -2.135  -1.986 -0.1472 -0.4484 -0.1211
   59DOPE    HX 7510   2.943  -2.227  -1.925 -2.5913  0.6829  2.2211
   59DOPE    HY 7511   2.842  -2.134  -2.050  0.3287 -0.2874 -0.8114
   59DOPE   O31 7512   2.917  -2.038  -1.888  0.4145  0.2242 -0.6887
   59DOPE   C31 7513   2.822  -2.059  -1.805  0.2993 -0.5640  0.9310
   59DOPE   O32 7514   2.752  -2.159  -1.804 -0.0740 -0.5681  0.0258
   59DOPE   C32 7515   2.826  -1.946  -1.705  0.2671  0.4644 -0.2429
   59DOPE   H2X 7516   2.918  -1.953  -1.642 -0.0753  1.8576  0.4455
   59DOPE   H2Y 7517   2.825  -1.845  -1.750 -1.6264  0.0967 -1.1333
   59DOPE   C23 7518   3.440  -1.880  -1.861 -0.1561 -0.0378  0.2160
   59DOPE   H3R 7519   3.395  -1.780  -1.842 -1.0359 -0.4597  0.4252
   59DOPE   H3S 7520   3.504  -1.868  -1.951 -0.0342 -2.6375 -0.1259
   59DOPE   C24 7521   3.541  -1.911  -1.746  0.2120 -0.3054  0.1823
   59DOPE   H4R 7522   3.610  -1.825  -1.746  0.4991 -0.5328  0.6130
   59DOPE   H4S 7523   3.597  -2.006  -1.760 -1.1303 -0.9909 -0.7637
   59DOPE   C25 7524   3.476  -1.909  -1.611  0.0244 -0.8293  0.8677
   59DOPE   H5R 7525   3.407  -1.995  -1.595 -2.0696 -0.1966 -3.3293
   59DOPE   H5S 7526   3.417  -1.815  -1.610  0.1127 -0.7703  0.6195
   59DOPE   C26 7527   3.582  -1.909  -1.499 -0.5413 -0.5462 -0.1081
   59DOPE   H6R 7528   3.661  -1.836  -1.527  0.7380 -1.2691  1.3914
   59DOPE   H6S 7529   3.641  -2.003  -1.486 -0.0608 -0.1136  0.9175
   59DOPE   C27 7530   3.518  -1.863  -1.370 -0.0683 -0.6225  0.3915
   59DOPE   H7R 7531   3.425  -1.920  -1.351 -0.2905 -0.5652 -0.4575
   59DOPE   H7S 7532   3.486  -1.757  -1.383  0.8727 -0.5532 -1.7733
   59DOPE   C28 7533   3.604  -1.879  -1.250 -0.1421  0.5245 -0.1188
   59DOPE   H8R 7534   3.549  -1.828  -1.168  1.2686  1.9179 -0.0105
   59DOPE   H8S 7535   3.694  -1.817  -1.266 -1.3255  2.4580  0.3958
   59DOPE   C29 7536   3.655  -2.021  -1.212 -1.2778 -0.2400 -0.1239
   59DOPE   H9R 7537   3.702  -2.080  -1.292 -1.3170 -1.1164  0.4927
   59DOPE  C210 7538   3.678  -2.060  -1.087  0.3543  0.5563  1.0905
   59DOPE  H10R 7539   3.713  -2.163  -1.073  0.4964 -0.0437 -2.6931
   59DOPE  C211 7540   3.650  -1.989  -0.956  0.1135  0.0379  0.4840
   59DOPE  H11R 7541   3.558  -2.039  -0.918  0.2218  0.0288  0.7380
   59DOPE  H11S 7542   3.623  -1.882  -0.959 -0.6402 -0.0285  2.8370
   59DOPE  C212 7543   3.759  -2.007  -0.852  0.1043  0.2528 -0.3385
   59DOPE  H12R 7544   3.852  -1.953  -0.879  0.9004 -0.4443  0.8994
   59DOPE  H12S 7545   3.791  -2.111  -0.828  0.6144 -0.0145 -2.0135
   59DOPE  C213 7546   3.695  -1.946  -0.719 -0.4437  0.7718 -0.1346
   59DOPE  H13R 7547   3.607  -2.001  -0.680  1.9236 -0.9820  3.1612
   59DOPE  H13S 7548   3.665  -1.842  -0.746  1.8785  0.9802 -2.3027
   59DOPE  C214 7549   3.798  -1.930  -0.598 -0.3453  0.0481 -0.0728
   59DOPE  H14R 7550   3.893  -1.888  -0.637 -1.1025  1.6244 -0.2818
   59DOPE  H14S 7551   3.820  -2.032  -0.559 -0.0189  0.5623  1.1277
   59DOPE  C215 7552   3.736  -1.864  -0.480 -0.0757 -0.5290  0.4660
   59DOPE  H15R 7553   3.641  -1.920  -0.462 -1.2637  0.5720 -1.9107
   59DOPE  H15S 7554   3.702  -1.765  -0.517 -3.6383 -2.3778 -1.7407
   59DOPE  C216 7555   3.825  -1.850  -0.363 -1.1158  0.3575 -0.4009
   59DOPE  H16R 7556   3.890  -1.763  -0.383 -2.3509  0.9499 -2.0974
   59DOPE  H16S 7557   3.891  -1.940  -0.360  0.7262  1.6043 -1.9153
   59DOPE  C217 7558   3.745  -1.835  -0.237  0.0214  0.2536  0.4370
   59DOPE  H17R 7559   3.690  -1.931  -0.225  0.5829 -0.1047  0.1882
   59DOPE  H17S 7560   3.668  -1.755  -0.243  1.1857  1.6681  2.8330
   59DOPE  C218 7561   3.831  -1.810  -0.113  0.4350 -0.6231 -0.3688
   59DOPE  H18R 7562   3.789  -1.860  -0.023 -0.1468 -0.1748 -0.3826
   59DOPE  H18S 7563   3.841  -1.700  -0.101 -2.0061 -0.4610  0.8676
   59DOPE  H18T 7564   3.932  -1.853  -0.124  0.6483 -0.9671  2.2552
   59DOPE   C33 7565   2.709  -1.956  -1.602 -0.2810  0.4463  0.4952
   59DOPE   H3X 7566   2.711  -2.057  -1.555  0.9275  0.4283  0.4395
   59DOPE   H3Y 7567   2.614  -1.949  -1.658 -0.3298 -3.5987 -0.2304
   59DOPE   C34 7568   2.721  -1.866  -1.481 -0.6489 -0.1652  0.2720
   59DOPE   H4X 7569   2.773  -1.771  -1.504  0.9471 -0.6708  1.5769
   59DOPE   H4Y 7570   2.620  -1.830  -1.456  0.5127  3.9009 -0.2370
   59DOPE   C35 7571   2.790  -1.926  -1.360 -1.2493  0.0929 -0.1694
   59DOPE   H5X 7572   2.897  -1.939  -1.388 -1.7823  1.0518 -2.9862
   59DOPE   H5Y 7573   2.760  -2.031  -1.337 -0.6409  0.0812  0.6096
   59DOPE   C36 7574   2.773  -1.838  -1.238  0.2415  0.0517 -0.2718
   59DOPE   H6X 7575   2.664  -1.817  -1.228  0.1184 -0.4094 -0.6080
   59DOPE   H6Y 7576   2.838  -1.748  -1.247 -0.5077  0.8591  1.7796
   59DOPE   C37 7577   2.813  -1.921  -1.112  0.4186  0.1425 -0.4253
   59DOPE   H7X 7578   2.779  -2.026  -1.124  0.7306  0.3008 -3.4269
   59DOPE   H7Y 7579   2.922  -1.921  -1.089  0.4052 -2.9503  0.0379
   59DOPE   C38 7580   2.747  -1.854  -0.996 -0.1130  0.7587 -0.3535
   59DOPE   H8X 7581   2.753  -1.925  -0.911  3.5333 -1.1758 -1.9902
   59DOPE   H8Y 7582   2.640  -1.839  -1.024 -0.4611  1.8235  1.4203
   59DOPE   C39 7583   2.811  -1.718  -0.950  0.4044 -0.6531 -0.1884
   59DOPE   H9X 7584   2.824  -1.646  -1.032 -2.1550  2.0994  1.6083
   59DOPE  C310 7585   2.850  -1.680  -0.825 -0.3248 -0.1701  0.3803
   59DOPE  H10X 7586   2.896  -1.580  -0.817  2.2749 -1.1556 -0.9227
   59DOPE  C311 7587   2.838  -1.764  -0.702  0.2935  0.1051 -0.3724
   59DOPE  H11X 7588   2.769  -1.850  -0.710  2.3327 -1.8623  1.5971
   59DOPE  H11Y 7589   2.935  -1.815  -0.684 -0.2083 -1.3433 -1.6011
   59DOPE  C312 7590   2.795  -1.685  -0.581  0.5784  0.0246  0.1417
   59DOPE  H12X 7591   2.694  -1.641  -0.598  1.1894  1.5296  0.2777
   59DOPE  H12Y 7592   2.860  -1.598  -0.558 -2.5126  3.0195 -1.3722
   59DOPE  C313 7593   2.779  -1.776  -0.458  0.2924 -0.4922  0.1236
   59DOPE  H13X 7594   2.691  -1.841  -0.480  1.2257 -1.2368 -1.6633
   59DOPE  H13Y 7595   2.872  -1.837  -0.448 -0.9128 -2.2077  1.3599
   59DOPE  C314 7596   2.749  -1.719  -0.319  0.2837 -0.3094  0.0071
   59DOPE  H14X 7597   2.659  -1.655  -0.327 -0.2443 -0.6950  2.2900
   59DOPE  H14Y 7598   2.826  -1.648  -0.284 -0.4543  1.7562 -2.2635
   59DOPE  C315 7599   2.718  -1.819  -0.208 -0.5008  0.4391 -0.5957
   59DOPE  H15X 7600   2.799  -1.895  -0.209 -0.1054  0.8252  0.5523
   59DOPE  H15Y 7601   2.628  -1.876  -0.239 -2.2630  3.2947 -1.0861
   59DOPE  C316 7602   2.689  -1.744  -0.073  0.9756  0.3459 -0.3699
   59DOPE  H16X 7603   2.603  -1.677  -0.094 -0.6572 -1.6346 -0.4390
   59DOPE  H16Y 7604   2.777  -1.681  -0.050  1.4360 -0.7534  1.0612
   59DOPE  C317 7605   2.655  -1.828   0.047 -0.6229  0.3335 -0.3093
   59DOPE  H17X 7606   2.661  -1.762   0.136  1.2511 -0.9282  0.5835
   59DOPE  H17Y 7607   2.551  -1.865   0.034 -1.5386  2.1285  1.3368
   59DOPE  C318 7608   2.743  -1.949   0.086 -0.0629  0.0792  0.9624
   59DOPE  H18X 7609   2.703  -2.013   0.168 -3.2156 -1.3334 -1.4177
   59DOPE  H18Y 7610   2.744  -2.019  -0.001  0.3789 -0.1817  1.1720
   59DOPE  H18Z 7611   2.851  -1.929   0.097  0.5925 -2.3096 -0.2610
   60DOPE     N 7612   2.496  -3.158  -2.113  0.5681 -0.0222 -0.0673
   60DOPE   HN1 7613   2.396  -3.178  -2.133  1.0205 -0.6145 -1.8919
   60DOPE   HN2 7614   2.530  -3.088  -2.181 -0.3442  0.2414 -0.2568
   60DOPE   HN3 7615   2.554  -3.244  -2.121  0.9668  0.3594 -1.4061
   60DOPE   C12 7616   2.526  -3.106  -1.979 -0.3552 -0.1330 -0.5673
   60DOPE  H12A 7617   2.483  -3.175  -1.904 -0.2959 -0.9350 -1.2523
   60DOPE  H12B 7618   2.483  -3.003  -1.968 -2.5584 -1.1976  1.9576
   60DOPE   C11 7619   2.675  -3.102  -1.943  0.1934 -0.7641  0.0632
   60DOPE  H11A 7620   2.669  -3.077  -1.835  1.6805 -2.9579  0.7188
   60DOPE  H11B 7621   2.714  -3.018  -2.005 -1.0498  0.1451  0.4576
   60DOPE     P 7622   2.876  -3.253  -2.040  0.3299  0.3820  0.5115
   60DOPE   O13 7623   2.840  -3.269  -2.179  0.0402  0.6478  0.1776
   60DOPE   O14 7624   2.942  -3.363  -1.969 -0.8089 -0.3028 -0.0945
   60DOPE   O11 7625   2.964  -3.122  -2.028  0.1342  0.3070 -0.2228
   60DOPE   O12 7626   2.738  -3.227  -1.967 -0.1780  0.0860  0.0870
   60DOPE    C1 7627   3.073  -3.107  -1.938 -0.4525 -0.4099 -0.3811
   60DOPE    HA 7628   3.143  -3.040  -1.992 -1.9761 -0.4703 -2.5724
   60DOPE    HB 7629   3.123  -3.203  -1.915 -1.1342 -0.9737 -1.1814
   60DOPE    C2 7630   3.036  -3.034  -1.810  0.2872 -0.9359  0.1550
   60DOPE    HS 7631   3.126  -3.018  -1.745 -0.4293  0.6931  0.8078
   60DOPE   O21 7632   2.941  -3.107  -1.741  0.4184 -0.1118  0.3535
   60DOPE   C21 7633   2.991  -3.220  -1.682 -0.3400  0.3507  0.4617
   60DOPE   O22 7634   3.109  -3.241  -1.668 -0.6052 -0.9300  0.2719
   60DOPE   C22 7635   2.884  -3.317  -1.638  0.6233 -0.5923  0.6060
   60DOPE   H2R 7636   2.935  -3.393  -1.575  1.2417 -0.2478  0.5312
   60DOPE   H2S 7637   2.848  -3.367  -1.731  2.1248  2.4233 -1.7835
   60DOPE    C3 7638   2.981  -2.897  -1.846  0.1921 -1.0990  0.1919
   60DOPE    HX 7639   2.892  -2.906  -1.911  0.0578 -1.0347  0.3659
   60DOPE    HY 7640   3.055  -2.852  -1.915 -1.3902 -0.1119 -0.9272
   60DOPE   O31 7641   2.958  -2.816  -1.731 -0.2592 -0.0124  0.3005
   60DOPE   C31 7642   2.945  -2.689  -1.756 -0.4156 -0.4118 -0.0993
   60DOPE   O32 7643   2.934  -2.640  -1.871 -0.3585 -0.0140  0.1354
   60DOPE   C32 7644   2.934  -2.607  -1.630  0.2561 -0.5979 -0.4739
   60DOPE   H2X 7645   2.851  -2.652  -1.572 -1.5983  2.6922 -0.3355
   60DOPE   H2Y 7646   3.029  -2.607  -1.573 -0.2904 -1.3432  0.4772
   60DOPE   C23 7647   2.770  -3.245  -1.561  0.1844  0.0472  0.3792
   60DOPE   H3R 7648   2.705  -3.183  -1.626  0.9040  1.4484  0.9359
   60DOPE   H3S 7649   2.825  -3.176  -1.493 -1.1706  0.1483  1.4015
   60DOPE   C24 7650   2.682  -3.345  -1.494 -1.1356  0.2288 -0.0473
   60DOPE   H4R 7651   2.738  -3.389  -1.408 -0.0551  0.7395 -0.4690
   60DOPE   H4S 7652   2.649  -3.426  -1.562  0.5807 -0.6588  0.1190
   60DOPE   C25 7653   2.560  -3.283  -1.422 -0.1186  0.7860 -0.3090
   60DOPE   H5R 7654   2.525  -3.191  -1.475 -1.8357 -0.4908 -1.5042
   60DOPE   H5S 7655   2.600  -3.243  -1.326  2.0483 -2.5211  0.3231
   60DOPE   C26 7656   2.455  -3.382  -1.381  0.3410 -0.5558 -0.4344
   60DOPE   H6R 7657   2.496  -3.468  -1.324 -1.5161 -1.7022 -0.7250
   60DOPE   H6S 7658   2.411  -3.433  -1.470  0.0796  1.5662 -1.6085
   60DOPE   C27 7659   2.345  -3.326  -1.295  0.7596 -0.3958 -0.0321
   60DOPE   H7R 7660   2.262  -3.274  -1.348 -0.9852 -0.4345  2.4600
   60DOPE   H7S 7661   2.384  -3.240  -1.236 -0.0531  0.4396 -0.6676
   60DOPE   C28 7662   2.283  -3.425  -1.192 -0.3232  0.0097 -0.0253
   60DOPE   H8R 7663   2.360  -3.466  -1.124 -1.1600  0.1286  1.0336
   60DOPE   H8S 7664   2.243  -3.515  -1.245 -0.2224  0.2591 -0.5247
   60DOPE   C29 7665   2.174  -3.365  -1.112  0.5526 -0.9746  0.3440
   60DOPE   H9R 7666   2.106  -3.304  -1.173  1.8918 -0.2774 -0.5054
   60DOPE  C210 7667   2.148  -3.359  -0.983 -0.0415 -0.1903 -0.2916
   60DOPE  H10R 7668   2.061  -3.306  -0.942 -0.8324 -0.6009 -1.3876
   60DOPE  C211 7669   2.208  -3.438  -0.868  0.2704 -0.4434  0.1161
   60DOPE  H11R 7670   2.315  -3.462  -0.884  0.3104  1.2293 -2.9527
   60DOPE  H11S 7671   2.167  -3.539  -0.849 -0.5688 -0.3639 -1.1684
   60DOPE  C212 7672   2.194  -3.357  -0.740 -0.0566 -0.3907 -0.0134
   60DOPE  H12R 7673   2.091  -3.362  -0.700 -0.4544  1.9682 -0.6188
   60DOPE  H12S 7674   2.217  -3.250  -0.757 -0.5119 -0.4246 -0.8896
   60DOPE  C213 7675   2.291  -3.408  -0.632  0.1002 -0.8943 -0.0517
   60DOPE  H13R 7676   2.396  -3.406  -0.666 -0.7033 -0.0375 -2.6627
   60DOPE  H13S 7677   2.254  -3.511  -0.609 -0.4382 -0.7190 -0.1164
   60DOPE  C214 7678   2.276  -3.324  -0.499  0.0117 -0.4076 -0.1787
   60DOPE  H14R 7679   2.314  -3.225  -0.531 -0.2662 -0.7736 -1.6983
   60DOPE  H14S 7680   2.338  -3.364  -0.416 -0.5304 -1.4866 -0.2831
   60DOPE  C215 7681   2.135  -3.297  -0.445 -0.2468  0.5501 -0.4794
   60DOPE  H15R 7682   2.087  -3.397  -0.438  1.0383 -0.2996 -2.8207
   60DOPE  H15S 7683   2.069  -3.233  -0.506 -1.0922 -2.3584 -2.8600
   60DOPE  C216 7684   2.139  -3.271  -0.298  1.0350  0.3312 -0.1136
   60DOPE  H16R 7685   2.187  -3.174  -0.271 -1.4192  1.5121  0.2690
   60DOPE  H16S 7686   2.196  -3.346  -0.239 -0.2593 -1.2127 -0.7374
   60DOPE  C217 7687   2.001  -3.269  -0.240  0.4828  0.5292 -1.3041
   60DOPE  H17R 7688   1.955  -3.369  -0.255 -2.0218  1.2566  0.7842
   60DOPE  H17S 7689   1.944  -3.185  -0.284  0.4049 -0.3338 -2.9201
   60DOPE  C218 7690   1.997  -3.252  -0.081  0.2156  0.3015 -0.2053
   60DOPE  H18R 7691   2.080  -3.185  -0.049  0.9379 -0.4334 -0.4940
   60DOPE  H18S 7692   2.005  -3.346  -0.023  0.2053  0.3637 -0.1017
   60DOPE  H18T 7693   1.899  -3.211  -0.049 -0.4562 -1.0570 -0.4490
   60DOPE   C33 7694   2.886  -2.463  -1.653 -0.2981  0.1864 -0.7616
   60DOPE   H3X 7695   2.782  -2.460  -1.691  0.0762 -0.4470 -1.8727
   60DOPE   H3Y 7696   2.948  -2.412  -1.730 -1.0625  1.0886 -0.7876
   60DOPE   C34 7697   2.893  -2.384  -1.516  0.0256  0.1090  0.1074
   60DOPE   H4X 7698   2.816  -2.304  -1.511  0.6554  1.0883 -3.2269
   60DOPE   H4Y 7699   2.872  -2.454  -1.432  0.7779  2.2150  2.1712
   60DOPE   C35 7700   3.023  -2.315  -1.478 -0.1815  0.0607  0.0614
   60DOPE   H5X 7701   3.043  -2.240  -1.557 -1.8779 -0.6595 -1.1003
   60DOPE   H5Y 7702   3.115  -2.378  -1.474 -1.1138 -1.3402  0.0305
   60DOPE   C36 7703   3.019  -2.236  -1.353  0.3390  0.5415 -0.2723
   60DOPE   H6X 7704   2.957  -2.144  -1.359 -0.2058  0.1699 -0.3490
   60DOPE   H6Y 7705   3.123  -2.204  -1.328  0.5302 -0.4390  0.2433
   60DOPE   C37 7706   2.966  -2.316  -1.231  0.2348  0.5090  0.0583
   60DOPE   H7X 7707   2.864  -2.356  -1.250  0.9258 -2.3289  1.7577
   60DOPE   H7Y 7708   3.028  -2.407  -1.219 -0.8054  0.0455  2.4149
   60DOPE   C38 7709   2.983  -2.235  -1.100 -0.6016 -0.1946 -0.0804
   60DOPE   H8X 7710   2.988  -2.126  -1.116  2.6046 -0.1965  0.2308
   60DOPE   H8Y 7711   3.082  -2.255  -1.053 -0.7974  0.1842  0.5147
   60DOPE   C39 7712   2.881  -2.284  -1.002  0.6189 -0.3777  0.6074
   60DOPE   H9X 7713   2.780  -2.246  -1.025  0.6001 -1.1952 -0.7774
   60DOPE  C310 7714   2.893  -2.353  -0.888  0.7784  0.5341 -0.0156
   60DOPE  H10X 7715   2.805  -2.383  -0.830  0.4520 -2.0172 -1.6864
   60DOPE  C311 7716   3.026  -2.407  -0.839 -0.0162 -0.4041 -0.1125
   60DOPE  H11X 7717   3.085  -2.314  -0.826  1.3959 -1.5140  2.0651
   60DOPE  H11Y 7718   3.026  -2.433  -0.731  0.3050  0.8435  0.2102
   60DOPE  C312 7719   3.102  -2.509  -0.923 -0.5927 -0.1980 -0.7060
   60DOPE  H12X 7720   3.205  -2.520  -0.883 -1.0034 -0.9544  0.1631
   60DOPE  H12Y 7721   3.123  -2.475  -1.027  1.5912  1.1420  0.1204
   60DOPE  C313 7722   3.036  -2.646  -0.915 -0.1061  0.4145  0.0082
   60DOPE  H13X 7723   3.051  -2.680  -0.811  1.6353  0.1215 -0.2934
   60DOPE  H13Y 7724   2.928  -2.632  -0.933 -0.0792  0.7134  0.0802
   60DOPE  C314 7725   3.102  -2.757  -1.005  0.0685  0.8203 -0.2723
   60DOPE  H14X 7726   3.063  -2.859  -0.985  2.6991 -0.5594 -1.6629
   60DOPE  H14Y 7727   3.211  -2.763  -0.984 -0.2716 -0.8280  1.2466
   60DOPE  C315 7728   3.080  -2.724  -1.153  0.6812  0.4914  0.8221
   60DOPE  H15X 7729   3.109  -2.618  -1.166  1.5353  0.3818  1.6837
   60DOPE  H15Y 7730   2.971  -2.737  -1.165  0.7844  1.1708 -1.2328
   60DOPE  C316 7731   3.151  -2.818  -1.252  0.0598 -0.5401 -0.2237
   60DOPE  H16X 7732   3.126  -2.926  -1.244 -0.1517 -0.5540 -0.9642
   60DOPE  H16Y 7733   3.259  -2.818  -1.225  0.7362 -0.1584 -2.7055
   60DOPE  C317 7734   3.130  -2.780  -1.400  0.0095 -1.1583 -0.7350
   60DOPE  H17X 7735   3.024  -2.800  -1.425 -0.2616 -0.3427 -0.2702
   60DOPE  H17Y 7736   3.148  -2.671  -1.405 -0.3185 -1.1506 -2.2655
   60DOPE  C318 7737   3.222  -2.846  -1.504  0.4696 -0.6113 -0.1006
   60DOPE  H18X 7738   3.213  -2.957  -1.496 -0.5178 -0.4642  1.1719
   60DOPE  H18Y 7739   3.199  -2.802  -1.603  1.2828  2.1884  0.8476
   60DOPE  H18Z 7740   3.328  -2.816  -1.490  0.2885 -0.2778  0.6329
   6123SM     N 7741  -0.710   2.115   2.821  0.0587  0.7523 -0.5754
   6123SM   C15 7742  -0.565   2.077   2.801 -0.0204  0.0679 -0.6547
   6123SM  H15A 7743  -0.509   2.090   2.893  0.1473  1.4378 -0.9314
   6123SM  H15B 7744  -0.511   2.141   2.734 -0.0209 -0.6293 -1.3399
   6123SM  H15C 7745  -0.547   1.974   2.774  0.9204 -0.4531  1.7099
   6123SM   C14 7746  -0.779   2.007   2.905  0.3682 -0.4028 -0.3392
   6123SM  H14A 7747  -0.882   2.030   2.927  0.4508  0.1871 -0.5502
   6123SM  H14B 7748  -0.724   1.980   2.994  0.2553  0.3077 -0.0478
   6123SM  H14C 7749  -0.797   1.915   2.850 -1.5941 -0.5412  0.4687
   6123SM   C13 7750  -0.701   2.241   2.907  0.5248 -0.2027 -0.6188
   6123SM  H13A 7751  -0.676   2.329   2.849 -2.7104  0.1353 -1.6770
   6123SM  H13B 7752  -0.623   2.218   2.978 -0.5948  0.0075  0.7022
   6123SM  H13C 7753  -0.788   2.259   2.967 -0.3359 -0.1753 -1.8341
   6123SM   C12 7754  -0.773   2.133   2.687 -0.2300 -0.0224 -0.7277
   6123SM  H12A 7755  -0.728   2.219   2.639 -1.0065  1.1489  0.5788
   6123SM  H12B 7756  -0.877   2.156   2.700  0.1395  0.4201  1.8983
   6123SM   C11 7757  -0.779   2.024   2.580  0.4282  1.4407 -0.0715
   6123SM  H11A 7758  -0.678   1.996   2.543  0.0528 -0.5913  0.2794
   6123SM  H11B 7759  -0.829   2.056   2.487  0.2660  1.0375 -0.1272
   6123SM     P 7760  -1.003   1.898   2.645  0.4393 -0.1714 -0.1229
   6123SM   O13 7761  -1.059   1.782   2.719  0.3664 -0.3334  0.4661
   6123SM   O14 7762  -1.045   2.037   2.688 -0.6987 -0.3569 -0.2919
   6123SM   O11 7763  -1.039   1.880   2.494 -0.1231 -0.1220  0.3131
   6123SM   O12 7764  -0.846   1.906   2.632 -0.3944  0.3718 -0.3763
   6123SM   C1S 7765  -1.172   1.892   2.447  0.7381 -0.5295  0.0691
   6123SM   H1S 7766  -1.233   1.963   2.507  0.2514 -1.3872  0.6207
   6123SM   H1T 7767  -1.225   1.796   2.468 -0.0950 -0.4236 -1.3959
   6123SM    NF 7768  -1.302   1.996   2.255 -0.3498  0.4544 -0.1468
   6123SM   HNF 7769  -1.379   1.947   2.214 -2.4433  2.3162  1.3355
   6123SM   C2S 7770  -1.179   1.930   2.299 -0.5547  0.3349  0.8998
   6123SM   H2S 7771  -1.096   2.003   2.291  0.0962 -0.4070  0.7776
   6123SM   C3S 7772  -1.142   1.808   2.206 -0.6716  0.0675 -0.9496
   6123SM   H3S 7773  -1.216   1.728   2.229 -0.2882  0.5348  2.4504
   6123SM    O3 7774  -1.022   1.746   2.257 -0.2918 -0.0428 -0.2707
   6123SM   HO3 7775  -1.012   1.776   2.347 -0.3357  0.0600 -0.3009
   6123SM   C4S 7776  -1.121   1.839   2.059 -0.1344 -0.8181  0.3955
   6123SM   H4S 7777  -1.024   1.879   2.027 -0.0235 -2.7019 -1.8963
   6123SM   C5S 7778  -1.207   1.813   1.960  1.3860  0.4953 -0.2370
   6123SM   H5S 7779  -1.302   1.767   1.991  1.9592 -0.0607  0.7566
   6123SM   C6S 7780  -1.199   1.834   1.812  0.6533  0.3367 -1.1216
   6123SM   H6S 7781  -1.135   1.922   1.792  1.3217 -0.1861 -1.3070
   6123SM   H6T 7782  -1.299   1.871   1.780 -0.5258 -1.7181  0.0011
   6123SM   C7S 7783  -1.163   1.715   1.728  0.2998  0.0136 -0.2847
   6123SM   H7S 7784  -1.233   1.635   1.758  0.9728 -0.1314  0.9429
   6123SM   H7T 7785  -1.059   1.693   1.760  1.0994  1.9434 -1.3694
   6123SM   C8S 7786  -1.168   1.756   1.582  0.0105 -0.3763  0.3407
   6123SM   H8S 7787  -1.117   1.852   1.560 -1.9444 -0.0861 -3.7294
   6123SM   H8T 7788  -1.275   1.764   1.555  0.0199  1.0660  0.6588
   6123SM   C9S 7789  -1.098   1.654   1.481  0.1863 -0.5236 -0.6248
   6123SM   H9S 7790  -1.135   1.550   1.487  0.2284 -0.4655  1.4105
   6123SM   H9T 7791  -0.988   1.665   1.492  0.2159 -1.2182 -0.2009
   6123SM  C10S 7792  -1.127   1.686   1.333  0.1005 -0.0995  0.2384
   6123SM  H10S 7793  -1.098   1.792   1.313 -2.4672  0.9447  1.5608
   6123SM  H10T 7794  -1.238   1.685   1.346 -0.1417 -3.1445 -1.3887
   6123SM  C11S 7795  -1.078   1.591   1.231 -0.8675 -0.1565  0.7315
   6123SM  H11S 7796  -1.097   1.488   1.269  1.6335 -0.4608  1.3775
   6123SM  H11T 7797  -0.967   1.600   1.237 -0.6810  0.6604 -2.3896
   6123SM  C12S 7798  -1.127   1.617   1.087  0.1070 -0.3449  0.9047
   6123SM  H12S 7799  -1.122   1.725   1.061  1.7162 -0.4039  0.9290
   6123SM  H12T 7800  -1.236   1.591   1.086  0.2508 -0.9600  0.7607
   6123SM  C13S 7801  -1.034   1.530   0.998  0.7183  0.2417 -0.0966
   6123SM  H13S 7802  -1.044   1.426   1.036  4.4204  0.2321  1.2959
   6123SM  H13T 7803  -0.928   1.554   1.018  0.7423 -0.7949  1.1542
   6123SM  C14S 7804  -1.052   1.539   0.846  0.0883 -0.2174 -0.1011
   6123SM  H14S 7805  -1.014   1.635   0.803 -1.2016 -0.9351 -3.1351
   6123SM  H14T 7806  -1.162   1.534   0.832  0.1993 -1.3287 -0.7201
   6123SM  C15S 7807  -0.988   1.414   0.774  0.3375 -0.0275 -0.2718
   6123SM  H15S 7808  -0.968   1.347   0.860  1.6758 -1.5160 -1.6668
   6123SM  H15T 7809  -0.891   1.441   0.725 -0.3665 -0.8004 -2.2022
   6123SM  C16S 7810  -1.087   1.346   0.672  0.1583  0.6908 -0.1873
   6123SM  H16S 7811  -1.116   1.425   0.600 -3.2540 -0.1189  0.1414
   6123SM  H16T 7812  -1.177   1.311   0.727  0.8004 -0.4092  0.1897
   6123SM  C17S 7813  -1.026   1.241   0.584  0.0345  0.2688  0.3659
   6123SM  H17S 7814  -0.968   1.171   0.649 -0.1846  0.0669  0.3431
   6123SM  H17T 7815  -0.948   1.283   0.518 -0.6609 -0.1926 -0.7795
   6123SM  C18S 7816  -1.132   1.167   0.503 -0.0004  0.0738  0.2879
   6123SM  H18S 7817  -1.087   1.099   0.428 -0.7858  0.3116 -0.4158
   6123SM  H18T 7818  -1.199   1.240   0.453 -1.5412 -1.7035 -0.3811
   6123SM  H18U 7819  -1.202   1.099   0.557 -0.4438 -0.0540 -0.4340
   6123SM   C1F 7820  -1.326   2.119   2.289 -0.0059  0.1039 -0.0718
   6123SM    OF 7821  -1.262   2.178   2.381  0.7184  0.3407  0.4479
   6123SM   C2F 7822  -1.440   2.189   2.220 -0.6580 -0.2540 -0.4791
   6123SM   H2F 7823  -1.421   2.298   2.228  0.0846 -0.1935 -2.4415
   6123SM   H2G 7824  -1.533   2.153   2.267  1.2711 -4.1623  0.7947
   6123SM   C3F 7825  -1.448   2.140   2.071 -0.3329  0.1307  0.3455
   6123SM   H3F 7826  -1.475   2.033   2.063 -0.7274  0.2983 -0.6839
   6123SM   H3G 7827  -1.354   2.170   2.020 -1.3494 -0.2377 -1.8549
   6123SM   C4F 7828  -1.542   2.226   1.975 -0.5103 -0.7626 -0.2419
   6123SM   H4F 7829  -1.527   2.336   1.978  2.8643 -1.0987 -0.8027
   6123SM   H4G 7830  -1.646   2.206   2.006 -0.3476 -0.1943  0.7183
   6123SM   C5F 7831  -1.515   2.181   1.825 -0.2929  0.2465 -0.5108
   6123SM   H5F 7832  -1.615   2.193   1.778 -0.8065 -0.6614  0.3059
   6123SM   H5G 7833  -1.497   2.071   1.820 -2.8562 -0.2315 -1.2362
   6123SM   C6F 7834  -1.415   2.270   1.750 -0.8288 -0.5605 -0.0944
   6123SM   H6F 7835  -1.319   2.239   1.799  0.3341 -0.5552 -2.2690
   6123SM   H6G 7836  -1.430   2.378   1.771 -0.7552 -0.4535 -0.6017
   6123SM   C7F 7837  -1.399   2.252   1.599 -0.7011  0.7093 -0.3431
   6123SM   H7F 7838  -1.316   2.316   1.562  0.5498 -0.1526  0.8864
   6123SM   H7G 7839  -1.491   2.287   1.548 -1.1880 -0.0204  0.0281
   6123SM   C8F 7840  -1.348   2.113   1.558  0.2638  0.7369  0.2309
   6123SM   H8F 7841  -1.420   2.030   1.571  0.5151  0.5376  0.3554
   6123SM   H8G 7842  -1.259   2.101   1.624 -0.2305  3.1497  1.4644
   6123SM   C9F 7843  -1.322   2.095   1.410 -0.3817  0.5985  0.0357
   6123SM   H9F 7844  -1.403   2.141   1.350 -0.4863 -0.5696 -0.7593
   6123SM   H9G 7845  -1.313   1.986   1.388  0.0453  0.8683 -1.1764
   6123SM  C10F 7846  -1.191   2.165   1.368 -0.3785 -0.4866 -0.4224
   6123SM  H10F 7847  -1.110   2.143   1.441 -0.9460  2.4686  1.2441
   6123SM  H10G 7848  -1.198   2.275   1.360  1.6006 -0.4402 -2.3997
   6123SM  C11F 7849  -1.148   2.125   1.230 -0.4612 -0.1070  0.8106
   6123SM  H11F 7850  -1.227   2.112   1.153  0.4294 -3.5511  0.3042
   6123SM  H11G 7851  -1.110   2.021   1.240 -0.7841 -0.3253 -0.1388
   6123SM  C12F 7852  -1.036   2.220   1.169 -0.2773 -0.0797  0.3910
   6123SM  H12F 7853  -0.977   2.238   1.261 -2.1541 -1.1726  1.8785
   6123SM  H12G 7854  -1.082   2.318   1.145 -0.1742  0.0112  0.5672
   6123SM  C13F 7855  -0.956   2.155   1.051 -0.0449  0.5936 -0.2135
   6123SM  H13F 7856  -0.924   2.056   1.090 -1.0394  1.3993  2.8448
   6123SM  H13G 7857  -0.867   2.218   1.029  0.5790  0.1591  1.0048
   6123SM  C14F 7858  -1.031   2.145   0.919  0.1294 -0.5560 -0.3707
   6123SM  H14F 7859  -1.034   2.248   0.877  0.5412 -0.1246  0.6130
   6123SM  H14G 7860  -1.136   2.110   0.929 -0.5704  0.7520 -2.5328
   6123SM  C15F 7861  -0.970   2.056   0.818  0.5328 -0.1991 -0.6295
   6123SM  H15F 7862  -0.961   1.947   0.837  1.5180  0.0011  0.2091
   6123SM  H15G 7863  -0.861   2.078   0.806  0.8201 -0.9511  0.4132
   6123SM  C16F 7864  -1.037   2.080   0.677 -1.1419  0.4634 -0.2498
   6123SM  H16F 7865  -1.014   2.186   0.655 -2.4565  0.8057 -0.0355
   6123SM  H16G 7866  -1.147   2.071   0.684 -1.0969  0.1637  0.1498
   6123SM  C17F 7867  -0.973   1.995   0.562  0.3976 -0.3678 -0.2586
   6123SM  H17F 7868  -1.017   1.893   0.562 -0.6295 -0.0124 -2.8658
   6123SM  H17G 7869  -0.866   1.986   0.588  0.1903 -0.4245  0.5951
   6123SM  C18F 7870  -1.000   2.055   0.428 -0.2280 -0.2476  0.1643
   6123SM  H18F 7871  -0.959   2.158   0.420  0.6051 -0.3257  2.7261
   6123SM  H18G 7872  -1.110   2.064   0.413  0.0357  0.4818 -1.5907
   6123SM  C19F 7873  -0.948   1.967   0.323  0.8342 -0.4551  0.1441
   6123SM  H19F 7874  -0.989   1.864   0.309  0.9691 -0.5787  0.6151
   6123SM  H19G 7875  -0.843   1.938   0.345  1.1270 -2.3553 -3.1416
   6123SM  C20F 7876  -0.955   2.044   0.187 -0.0370 -0.1884  0.0364
   6123SM  H20F 7877  -0.898   2.139   0.196 -0.2991  0.3091 -2.7815
   6123SM  H20G 7878  -1.056   2.068   0.146  0.6663  1.2657 -0.9350
   6123SM  C21F 7879  -0.875   1.946   0.091  0.9649  0.1891 -0.5532
   6123SM  H21F 7880  -0.922   1.847   0.107  0.4920  0.4733 -0.1384
   6123SM  H21G 7881  -0.765   1.953   0.101  1.2405  1.6123 -3.6083
   6123SM  C22F 7882  -0.905   1.990  -0.055  0.1125 -0.0002 -0.4183
   6123SM  H22F 7883  -1.011   2.020  -0.064 -0.7315 -2.6221 -0.1146
   6123SM  H22G 7884  -0.878   1.899  -0.114  0.7584 -0.4136  0.4855
   6123SM  C23F 7885  -0.811   2.094  -0.116  0.6261  0.1034 -0.5414
   6123SM  H23F 7886  -0.844   2.129  -0.216  0.0703 -0.0144 -0.4056
   6123SM  H23G 7887  -0.708   2.053  -0.114  0.2896 -0.7590  0.9410
   6123SM  H23H 7888  -0.799   2.183  -0.050  0.1353  0.7795 -1.3387
   6223SM     N 7889  -1.675   1.853   2.642  0.1098 -0.1636  0.2029
   6223SM   C15 7890  -1.739   1.713   2.675 -0.0959  0.0786  0.2949
   6223SM  H15A 7891  -1.665   1.636   2.670  0.2458  0.4905 -2.0432
   6223SM  H15B 7892  -1.823   1.686   2.613 -0.7205  0.8790  0.7629
   6223SM  H15C 7893  -1.763   1.714   2.781  3.6352  1.9166  1.3025
   6223SM   C14 7894  -1.780   1.951   2.602  0.3416  0.1100  0.3685
   6223SM  H14A 7895  -1.831   1.980   2.693  0.5154  1.3458  0.0844
   6223SM  H14B 7896  -1.846   1.925   2.521 -0.4899 -1.3710  1.4661
   6223SM  H14C 7897  -1.731   2.046   2.590 -2.0323  1.6649  1.9407
   6223SM   C13 7898  -1.613   1.895   2.771 -0.2418 -0.4585  0.2372
   6223SM  H13A 7899  -1.692   1.890   2.845 -1.0440  0.4746 -0.5199
   6223SM  H13B 7900  -1.577   1.996   2.774 -0.4246 -0.2925 -1.5970
   6223SM  H13C 7901  -1.534   1.831   2.806 -1.3931 -1.4109  1.1754
   6223SM   C12 7902  -1.577   1.835   2.523 -0.5353  0.4875  0.1954
   6223SM  H12A 7903  -1.530   1.929   2.497 -0.0303 -0.3908 -2.3876
   6223SM  H12B 7904  -1.633   1.813   2.434  0.0854  1.5404 -0.4752
   6223SM   C11 7905  -1.471   1.722   2.516 -0.2642 -0.5324  0.7561
   6223SM  H11A 7906  -1.386   1.746   2.583 -0.0845 -0.5537  0.5359
   6223SM  H11B 7907  -1.436   1.708   2.411 -0.6970  1.0610  0.3706
   6223SM     P 7908  -1.452   1.472   2.569 -0.1191  0.2947 -0.1177
   6223SM   O13 7909  -1.369   1.498   2.684 -0.2246  0.1955 -0.3761
   6223SM   O14 7910  -1.539   1.356   2.583  0.2745 -0.3048  0.9234
   6223SM   O11 7911  -1.361   1.460   2.442 -0.4811  0.4339 -0.0361
   6223SM   O12 7912  -1.534   1.601   2.535  0.2730 -0.4430 -0.2600
   6223SM   C1S 7913  -1.420   1.423   2.315  0.1041 -0.5942  0.4879
   6223SM   H1S 7914  -1.492   1.504   2.291 -1.1211 -1.0961  2.2891
   6223SM   H1T 7915  -1.484   1.333   2.313 -0.7922  0.0412 -0.8053
   6223SM    NF 7916  -1.375   1.396   2.059 -0.3316 -0.0062  0.1419
   6223SM   HNF 7917  -1.349   1.315   2.008 -0.4176 -0.3160  0.5822
   6223SM   C2S 7918  -1.317   1.416   2.194  0.5185 -0.2305  0.1554
   6223SM   H2S 7919  -1.274   1.518   2.195 -3.7638  1.8943  3.7992
   6223SM   C3S 7920  -1.199   1.316   2.218  0.2015  0.0995  0.1747
   6223SM   H3S 7921  -1.236   1.211   2.215  0.3617  0.0241  0.6259
   6223SM    O3 7922  -1.149   1.335   2.347  0.4624 -0.1670  0.3434
   6223SM   HO3 7923  -1.218   1.388   2.388 -0.3904  0.2875 -1.5303
   6223SM   C4S 7924  -1.088   1.332   2.115 -0.0177 -0.0084 -0.8394
   6223SM   H4S 7925  -1.069   1.241   2.055  0.6362  0.1826 -0.9325
   6223SM   C5S 7926  -0.993   1.427   2.114  0.4440 -0.2848 -0.0983
   6223SM   H5S 7927  -0.987   1.499   2.197  0.6459  0.3459 -0.6533
   6223SM   C6S 7928  -0.873   1.419   2.022 -0.5631  0.5337  0.0167
   6223SM   H6S 7929  -0.839   1.313   2.018 -0.2516  0.6794 -1.8684
   6223SM   H6T 7930  -0.793   1.469   2.082  0.6568 -1.6800  0.3637
   6223SM   C7S 7931  -0.894   1.475   1.885 -1.2725  0.1324  0.4263
   6223SM   H7S 7932  -0.926   1.581   1.878 -0.9315  0.2376  0.4065
   6223SM   H7T 7933  -0.982   1.418   1.848 -1.7873  0.1616  1.5894
   6223SM   C8S 7934  -0.777   1.437   1.785  0.5351  0.5146 -0.9902
   6223SM   H8S 7935  -0.779   1.325   1.784 -1.5685  0.5121 -1.8129
   6223SM   H8T 7936  -0.680   1.466   1.830 -0.7170  1.5121  1.2059
   6223SM   C9S 7937  -0.799   1.488   1.642 -0.2969  0.5748 -0.5899
   6223SM   H9S 7938  -0.850   1.587   1.644 -0.0090  0.7225 -0.3492
   6223SM   H9T 7939  -0.874   1.426   1.590 -1.7182  1.6331  0.1225
   6223SM  C10S 7940  -0.667   1.487   1.563 -0.2600  0.4724 -0.2596
   6223SM  H10S 7941  -0.626   1.383   1.567 -0.2695  0.4810  0.0543
   6223SM  H10T 7942  -0.592   1.551   1.615 -2.9738  1.2058  3.1269
   6223SM  C11S 7943  -0.694   1.537   1.416  0.1857 -0.2272 -0.1696
   6223SM  H11S 7944  -0.598   1.525   1.362  0.6452 -0.6016  0.7061
   6223SM  H11T 7945  -0.729   1.642   1.411  0.0367 -0.2749 -0.1177
   6223SM  C12S 7946  -0.782   1.443   1.334 -0.5403 -0.2813  0.5441
   6223SM  H12S 7947  -0.819   1.491   1.241 -2.4447 -2.6087 -0.0055
   6223SM  H12T 7948  -0.873   1.412   1.391 -0.8573 -2.5215 -1.0582
   6223SM  C13S 7949  -0.714   1.308   1.293  0.2487 -0.5810  0.4541
   6223SM  H13S 7950  -0.794   1.231   1.283 -2.4471  1.8829  1.4537
   6223SM  H13T 7951  -0.645   1.278   1.375  3.3744  0.1340 -1.7349
   6223SM  C14S 7952  -0.638   1.319   1.164  0.4319  0.1707  0.5351
   6223SM  H14S 7953  -0.567   1.236   1.144 -1.7118 -1.6964  0.3496
   6223SM  H14T 7954  -0.582   1.415   1.152  1.2247 -0.5326 -2.1527
   6223SM  C15S 7955  -0.733   1.312   1.038 -0.1016 -0.2409 -0.4259
   6223SM  H15S 7956  -0.829   1.367   1.052 -0.5734 -0.9705 -0.7053
   6223SM  H15T 7957  -0.761   1.206   1.020 -1.5638  0.1115 -0.3769
   6223SM  C16S 7958  -0.652   1.362   0.917 -0.1141 -0.0050 -0.3890
   6223SM  H16S 7959  -0.553   1.402   0.948 -1.1283  2.9723 -0.6346
   6223SM  H16T 7960  -0.712   1.448   0.880 -0.7020 -0.7280 -1.1699
   6223SM  C17S 7961  -0.656   1.257   0.808 -0.5355 -0.2831  0.0805
   6223SM  H17S 7962  -0.758   1.219   0.786 -0.2010 -1.8080  1.0102
   6223SM  H17T 7963  -0.597   1.172   0.848 -0.1491 -0.1469 -0.2015
   6223SM  C18S 7964  -0.599   1.299   0.671  0.3041 -0.0065  0.4205
   6223SM  H18S 7965  -0.664   1.379   0.630 -1.0437  0.1514  2.7177
   6223SM  H18T 7966  -0.599   1.215   0.599 -2.2054 -0.2599  0.6284
   6223SM  H18U 7967  -0.495   1.333   0.691  0.5025 -0.0916 -0.4245
   6223SM   C1F 7968  -1.460   1.483   2.006 -0.9378 -0.5308  0.2265
   6223SM    OF 7969  -1.509   1.573   2.068  0.0853 -0.2904 -0.6132
   6223SM   C2F 7970  -1.480   1.465   1.853  0.0276  0.3120  0.5540
   6223SM   H2F 7971  -1.476   1.355   1.841  0.2638  0.2257  1.3891
   6223SM   H2G 7972  -1.388   1.511   1.812 -0.2202  0.1257 -0.2329
   6223SM   C3F 7973  -1.597   1.522   1.784 -0.2376  0.2180  0.2708
   6223SM   H3F 7974  -1.575   1.628   1.761  0.6607  0.3730  1.7325
   6223SM   H3G 7975  -1.691   1.516   1.843 -1.4821 -1.1420 -1.7131
   6223SM   C4F 7976  -1.611   1.448   1.649 -0.3862  0.5485  0.1242
   6223SM   H4F 7977  -1.706   1.476   1.599 -0.5261 -0.5957 -0.2794
   6223SM   H4G 7978  -1.631   1.342   1.677 -1.5693  0.3973 -1.2034
   6223SM   C5F 7979  -1.491   1.443   1.548 -0.3981  0.5587 -0.0960
   6223SM   H5F 7980  -1.399   1.396   1.588 -0.6836  0.9004  1.0008
   6223SM   H5G 7981  -1.460   1.549   1.532  3.1603 -0.1196  1.5207
   6223SM   C6F 7982  -1.521   1.373   1.420  0.0122  0.2718 -0.3364
   6223SM   H6F 7983  -1.615   1.403   1.369 -0.9259 -2.0637 -0.1242
   6223SM   H6G 7984  -1.551   1.270   1.448 -0.6846  0.7380  0.6886
   6223SM   C7F 7985  -1.412   1.389   1.312  0.2484 -0.2896 -0.1477
   6223SM   H7F 7986  -1.322   1.344   1.358 -1.5716 -2.9019  1.0997
   6223SM   H7G 7987  -1.399   1.500   1.313  1.6827 -0.4162  1.6876
   6223SM   C8F 7988  -1.432   1.319   1.183 -0.3504  0.3940  0.0158
   6223SM   H8F 7989  -1.463   1.213   1.198 -0.0179  0.1037 -1.2118
   6223SM   H8G 7990  -1.330   1.310   1.140 -0.0604 -1.9725  1.0050
   6223SM   C9F 7991  -1.524   1.400   1.089 -0.1245 -0.3874  0.5007
   6223SM   H9F 7992  -1.478   1.498   1.064  0.0693 -1.1828 -2.5775
   6223SM   H9G 7993  -1.618   1.407   1.148 -1.1162 -1.5571 -0.8672
   6223SM  C10F 7994  -1.545   1.329   0.952  0.9432  0.7503  0.0924
   6223SM  H10F 7995  -1.629   1.377   0.896  0.0210 -0.8402  0.0623
   6223SM  H10G 7996  -1.599   1.233   0.965  1.3731  0.5905  0.7222
   6223SM  C11F 7997  -1.423   1.312   0.858  0.7686 -1.1385  0.1275
   6223SM  H11F 7998  -1.351   1.251   0.917  0.1197  0.3316  2.6256
   6223SM  H11G 7999  -1.378   1.412   0.841 -2.2434  0.7027  1.9345
   6223SM  C12F 8000  -1.464   1.260   0.723 -0.5448  0.1320 -0.5495
   6223SM  H12F 8001  -1.380   1.282   0.653  1.1304 -0.7975  1.0640
   6223SM  H12G 8002  -1.547   1.318   0.677 -0.6626  1.1158  0.8391
   6223SM  C13F 8003  -1.488   1.110   0.704  0.5784  0.1422  0.6044
   6223SM  H13F 8004  -1.562   1.085   0.783 -0.6129  1.9674  0.1427
   6223SM  H13G 8005  -1.392   1.059   0.727  0.9432  0.8486  0.6863
   6223SM  C14F 8006  -1.540   1.075   0.565 -0.3135 -0.1044 -0.2903
   6223SM  H14F 8007  -1.466   1.102   0.486 -0.0765 -1.0554 -0.4110
   6223SM  H14G 8008  -1.635   1.126   0.538 -0.4693 -0.5999 -0.7124
   6223SM  C15F 8009  -1.572   0.925   0.558 -0.0069  0.3243  0.3187
   6223SM  H15F 8010  -1.657   0.887   0.619 -0.2743  1.0447  0.3999
   6223SM  H15G 8011  -1.493   0.854   0.592 -1.2560  0.1847  3.2769
   6223SM  C16F 8012  -1.604   0.885   0.416  0.0933  0.0873 -0.4096
   6223SM  H16F 8013  -1.682   0.955   0.380  1.0103  1.6864  0.5424
   6223SM  H16G 8014  -1.649   0.784   0.419 -0.8207  0.4966  1.4586
   6223SM  C17F 8015  -1.486   0.879   0.318  0.1845 -0.2396 -0.1141
   6223SM  H17F 8016  -1.410   0.816   0.370  0.0558 -0.6440 -0.4108
   6223SM  H17G 8017  -1.451   0.980   0.288  0.9168 -0.9106 -1.5774
   6223SM  C18F 8018  -1.527   0.806   0.194 -0.6747 -0.4616  0.5514
   6223SM  H18F 8019  -1.553   0.701   0.219  0.0242 -0.9426 -0.6367
   6223SM  H18G 8020  -1.434   0.794   0.135 -0.3856 -0.6914  1.0485
   6223SM  C19F 8021  -1.631   0.873   0.106  0.4486 -0.2888 -0.4087
   6223SM  H19F 8022  -1.596   0.966   0.055 -0.3758 -0.3767 -1.1484
   6223SM  H19G 8023  -1.713   0.909   0.172  1.7195  2.8083 -0.3214
   6223SM  C20F 8024  -1.693   0.785  -0.004 -0.4270  0.0443  0.4044
   6223SM  H20F 8025  -1.727   0.693   0.048  2.1799 -0.2362  1.7761
   6223SM  H20G 8026  -1.618   0.772  -0.085 -0.1010  1.5324  0.4512
   6223SM  C21F 8027  -1.814   0.863  -0.059  0.5521  0.0951  1.0052
   6223SM  H21F 8028  -1.787   0.959  -0.108 -0.7928  0.2558  0.5628
   6223SM  H21G 8029  -1.879   0.893   0.026 -1.9015 -0.9949 -0.3893
   6223SM  C22F 8030  -1.904   0.787  -0.159 -0.7972  0.3541  0.0820
   6223SM  H22F 8031  -1.916   0.684  -0.122 -0.1167  1.3760  3.4962
   6223SM  H22G 8032  -1.856   0.789  -0.259 -0.4401  0.0850  0.2464
   6223SM  C23F 8033  -2.052   0.829  -0.164 -0.5154  0.0406  0.0849
   6223SM  H23F 8034  -2.101   0.770  -0.244 -0.9973  0.1962  0.2612
   6223SM  H23G 8035  -2.058   0.939  -0.180  3.9474  0.4743  0.1788
   6223SM  H23H 8036  -2.110   0.811  -0.071  0.5858 -1.0659  0.5767
   6323SM     N 8037   0.980   3.053   2.275 -0.3580 -0.0968 -0.2204
   6323SM   C15 8038   1.126   3.068   2.302 -0.3887 -0.8941  0.0898
   6323SM  H15A 8039   1.184   2.992   2.251 -0.0592 -0.2296 -0.5386
   6323SM  H15B 8040   1.149   3.068   2.407 -0.5951  0.2827  0.1508
   6323SM  H15C 8041   1.164   3.165   2.272 -0.9637 -0.7539 -0.2021
   6323SM   C14 8042   0.900   3.167   2.337  0.6229 -0.0619 -0.6907
   6323SM  H14A 8043   0.903   3.268   2.299 -2.2553 -0.1903 -1.5115
   6323SM  H14B 8044   0.915   3.170   2.444 -3.0385 -1.7192  0.0399
   6323SM  H14C 8045   0.797   3.134   2.329  0.3884  0.8781 -1.8745
   6323SM   C13 8046   0.965   3.064   2.131 -0.5186 -0.2940 -0.1145
   6323SM  H13A 8047   1.002   3.156   2.088  1.7914 -0.8397  0.5620
   6323SM  H13B 8048   0.859   3.064   2.107 -0.3860  0.6982 -0.7775
   6323SM  H13C 8049   1.013   2.981   2.080 -1.2778 -1.1299  0.4904
   6323SM   C12 8050   0.922   2.926   2.332 -0.5762  0.0911  0.4302
   6323SM  H12A 8051   0.916   2.933   2.440  2.5420  1.6752  0.6062
   6323SM  H12B 8052   0.968   2.833   2.305 -0.3714  0.4787 -0.5862
   6323SM   C11 8053   0.774   2.901   2.280 -0.1350  0.3009  0.6020
   6323SM  H11A 8054   0.762   2.793   2.302  0.2376  0.3372  1.0040
   6323SM  H11B 8055   0.776   2.914   2.170 -0.5619 -1.8548  0.3099
   6323SM     P 8056   0.572   2.915   2.443 -0.4640 -0.2553 -0.0014
   6323SM   O13 8057   0.652   2.857   2.555 -0.5364  0.0299  0.7991
   6323SM   O14 8058   0.459   3.007   2.477 -0.3825  0.8942  0.5899
   6323SM   O11 8059   0.519   2.791   2.358  0.1460 -0.3299 -0.5639
   6323SM   O12 8060   0.673   2.988   2.340  0.2003  0.2637  0.4504
   6323SM   C1S 8061   0.440   2.822   2.244  0.0031  0.1720  0.3530
   6323SM   H1S 8062   0.497   2.872   2.162 -0.5629 -1.4868 -1.1244
   6323SM   H1T 8063   0.356   2.889   2.273  0.6991  1.0167  0.4748
   6323SM    NF 8064   0.304   2.730   2.054 -0.0112  0.0915 -0.2584
   6323SM   HNF 8065   0.205   2.741   2.052  0.1010  1.6542  0.8004
   6323SM   C2S 8066   0.369   2.694   2.179  0.4050 -0.5700 -0.0280
   6323SM   H2S 8067   0.454   2.625   2.161 -1.0737 -1.9167 -2.3068
   6323SM   C3S 8068   0.275   2.636   2.288 -0.1642 -0.4630 -0.0098
   6323SM   H3S 8069   0.214   2.720   2.326 -0.1981 -0.3574 -0.2987
   6323SM    O3 8070   0.338   2.600   2.410  0.4210 -0.0717  0.6646
   6323SM   HO3 8071   0.427   2.635   2.403  0.6222 -0.7242 -0.3911
   6323SM   C4S 8072   0.202   2.519   2.231  0.5771  0.2559 -0.5160
   6323SM   H4S 8073   0.269   2.444   2.185  0.5962 -1.3184  1.9337
   6323SM   C5S 8074   0.066   2.502   2.229 -0.0941 -0.3205 -0.3534
   6323SM   H5S 8075   0.003   2.588   2.258 -1.5543 -1.2124 -0.7948
   6323SM   C6S 8076  -0.011   2.387   2.160  0.1106 -0.0157 -0.5089
   6323SM   H6S 8077  -0.118   2.385   2.192  0.5425  0.0991  1.0288
   6323SM   H6T 8078   0.035   2.290   2.189  1.0238  0.2764 -0.9512
   6323SM   C7S 8079   0.005   2.396   2.006  0.3831 -0.0515 -0.0397
   6323SM   H7S 8080   0.112   2.382   1.983  0.2363  0.2692 -0.9389
   6323SM   H7T 8081  -0.026   2.498   1.976  1.9765  0.8394  1.1829
   6323SM   C8S 8082  -0.073   2.282   1.933  0.5311  0.2411 -0.1832
   6323SM   H8S 8083  -0.182   2.287   1.956  0.6959 -0.5794  0.8080
   6323SM   H8T 8084  -0.052   2.182   1.977 -2.7393 -0.3124  0.3800
   6323SM   C9S 8085  -0.046   2.277   1.786  0.4895 -0.5414  0.4755
   6323SM   H9S 8086   0.063   2.285   1.767  0.7556  5.2232  2.5531
   6323SM   H9T 8087  -0.083   2.376   1.752 -0.1873 -0.6705  0.8160
   6323SM  C10S 8088  -0.117   2.162   1.713  0.4283  0.3425  0.1195
   6323SM  H10S 8089  -0.226   2.149   1.733  0.5692 -1.9841 -0.3647
   6323SM  H10T 8090  -0.069   2.069   1.751  1.2215  0.3058 -0.9573
   6323SM  C11S 8091  -0.097   2.170   1.565 -0.1562  0.0162  0.0313
   6323SM  H11S 8092   0.012   2.170   1.546 -0.1862 -1.0824 -0.2039
   6323SM  H11T 8093  -0.134   2.270   1.534 -0.9540 -0.7998 -1.7872
   6323SM  C12S 8094  -0.161   2.054   1.477  0.1728  0.0540 -0.2341
   6323SM  H12S 8095  -0.271   2.051   1.491  0.1813 -0.9818 -0.2909
   6323SM  H12T 8096  -0.120   1.951   1.487  0.0514 -0.4388 -3.7221
   6323SM  C13S 8097  -0.138   2.090   1.327 -0.5810  0.0303  0.2342
   6323SM  H13S 8098  -0.028   2.085   1.310 -0.5184 -1.8467  1.0260
   6323SM  H13T 8099  -0.169   2.197   1.323 -0.4950  0.0536  0.1977
   6323SM  C14S 8100  -0.213   1.999   1.227 -0.2926  0.1235  0.7662
   6323SM  H14S 8101  -0.319   2.000   1.260 -0.6905  2.9512 -0.3866
   6323SM  H14T 8102  -0.176   1.894   1.234  2.7180  0.8674 -1.9721
   6323SM  C15S 8103  -0.195   2.051   1.083  0.4200 -0.0607 -0.0902
   6323SM  H15S 8104  -0.097   2.102   1.089 -0.0171  0.6146  3.8956
   6323SM  H15T 8105  -0.283   2.115   1.061  0.4813 -0.1860 -0.7357
   6323SM  C16S 8106  -0.165   1.946   0.977  0.5472  0.1973  1.0646
   6323SM  H16S 8107  -0.243   1.867   0.984  1.2999 -0.5856  0.8402
   6323SM  H16T 8108  -0.072   1.888   0.997  0.2303 -0.5992  0.3031
   6323SM  C17S 8109  -0.159   1.998   0.832 -0.1182 -0.0871  0.2936
   6323SM  H17S 8110  -0.088   1.933   0.778  2.1021  2.6559 -0.3398
   6323SM  H17T 8111  -0.124   2.103   0.820  0.5717 -0.4476 -0.9916
   6323SM  C18S 8112  -0.296   1.986   0.761 -0.0705 -0.0784 -0.8186
   6323SM  H18S 8113  -0.289   2.006   0.652 -0.0719  0.0285 -0.7988
   6323SM  H18T 8114  -0.369   2.051   0.813 -0.0603 -0.7265  0.0361
   6323SM  H18U 8115  -0.339   1.883   0.765 -0.3077  0.0621  1.5082
   6323SM   C1F 8116   0.374   2.750   1.940 -1.0268  0.3435  0.1082
   6323SM    OF 8117   0.498   2.737   1.937 -0.3444 -0.6040  0.4545
   6323SM   C2F 8118   0.293   2.788   1.820 -0.1987 -0.2203 -0.3376
   6323SM   H2F 8119   0.352   2.864   1.766  0.8342 -0.4517  0.4332
   6323SM   H2G 8120   0.197   2.825   1.861  1.3981  0.7897  2.7759
   6323SM   C3F 8121   0.272   2.668   1.720  0.0257  0.5557 -0.1785
   6323SM   H3F 8122   0.210   2.595   1.778  2.4776 -0.2032  1.6711
   6323SM   H3G 8123   0.370   2.623   1.693 -0.4283 -0.0850 -0.7941
   6323SM   C4F 8124   0.196   2.709   1.591  0.3982  0.7852  0.1661
   6323SM   H4F 8125   0.264   2.773   1.533  2.2454 -0.2391  1.1153
   6323SM   H4G 8126   0.101   2.763   1.611 -1.7596 -1.2241 -3.4484
   6323SM   C5F 8127   0.154   2.597   1.493  0.8522  0.2511  0.4961
   6323SM   H5F 8128   0.085   2.534   1.553 -1.2119 -0.9058 -2.8229
   6323SM   H5G 8129   0.238   2.529   1.466  0.4871 -0.3003  0.7453
   6323SM   C6F 8130   0.070   2.641   1.372  0.2427 -0.2867 -0.3155
   6323SM   H6F 8131   0.132   2.697   1.299  1.4532 -0.3866  0.6144
   6323SM   H6G 8132  -0.007   2.712   1.411  1.0581 -0.8158  2.4546
   6323SM   C7F 8133   0.024   2.527   1.293  0.2974 -0.6556  0.8288
   6323SM   H7F 8134  -0.035   2.462   1.362 -0.4783 -0.8096  0.0381
   6323SM   H7G 8135   0.106   2.458   1.263  0.6192 -0.9181  2.2207
   6323SM   C8F 8136  -0.068   2.558   1.171  0.0130 -0.1590  0.1034
   6323SM   H8F 8137  -0.015   2.639   1.116 -1.6116  1.2653  0.5506
   6323SM   H8G 8138  -0.162   2.600   1.213  0.9962 -1.5840  4.1631
   6323SM   C9F 8139  -0.086   2.435   1.089 -0.4583  0.1582 -0.2593
   6323SM   H9F 8140  -0.150   2.363   1.145 -0.1017  0.3652  0.4081
   6323SM   H9G 8141   0.010   2.385   1.065 -1.3121 -1.4897 -0.4040
   6323SM  C10F 8142  -0.154   2.474   0.953  0.1183  0.4989 -0.3152
   6323SM  H10F 8143  -0.234   2.550   0.964 -0.8371 -0.4540 -0.5620
   6323SM  H10G 8144  -0.199   2.385   0.904  1.3904 -0.6899  0.5871
   6323SM  C11F 8145  -0.054   2.527   0.850  0.1990 -0.0208  0.0550
   6323SM  H11F 8146   0.036   2.461   0.847 -0.3735 -0.7925 -0.6178
   6323SM  H11G 8147  -0.028   2.630   0.881 -1.2073 -0.7296  4.1683
   6323SM  C12F 8148  -0.120   2.515   0.709  0.3329 -0.4780 -0.3103
   6323SM  H12F 8149  -0.216   2.571   0.707 -0.5703 -1.9722 -2.2499
   6323SM  H12G 8150  -0.139   2.407   0.692  1.5806 -0.7942  0.1888
   6323SM  C13F 8151  -0.046   2.586   0.590 -0.2238  0.9938 -0.0488
   6323SM  H13F 8152  -0.088   2.552   0.494 -0.2161 -0.8737  0.5650
   6323SM  H13G 8153   0.061   2.556   0.588 -0.2261  0.9504  0.3729
   6323SM  C14F 8154  -0.059   2.738   0.597  0.0403  0.0109  0.8011
   6323SM  H14F 8155  -0.001   2.788   0.677 -0.2835  2.0964 -0.1905
   6323SM  H14G 8156  -0.163   2.764   0.626 -0.2315 -1.5191  1.2799
   6323SM  C15F 8157  -0.023   2.810   0.461  0.2859 -0.0346 -0.7205
   6323SM  H15F 8158  -0.027   2.918   0.487 -0.0733 -0.5081  1.3664
   6323SM  H15G 8159  -0.098   2.799   0.380 -0.8774  4.9014 -0.6257
   6323SM  C16F 8160   0.120   2.785   0.418 -0.4631  0.0005  0.0196
   6323SM  H16F 8161   0.124   2.682   0.377  0.3269  0.0110  0.0667
   6323SM  H16G 8162   0.194   2.785   0.500  2.1667 -1.4446 -2.1723
   6323SM  C17F 8163   0.167   2.884   0.310  0.4701 -0.3350  0.2949
   6323SM  H17F 8164   0.277   2.875   0.297  0.5679 -0.4310  1.1147
   6323SM  H17G 8165   0.140   2.988   0.338 -2.3092 -1.5110  2.5256
   6323SM  C18F 8166   0.117   2.838   0.170 -0.2848 -0.0914  0.5701
   6323SM  H18F 8167   0.007   2.848   0.164 -0.3189 -0.9564 -0.9882
   6323SM  H18G 8168   0.140   2.729   0.161 -1.3530 -0.1785 -1.8718
   6323SM  C19F 8169   0.177   2.927   0.051 -0.2745  0.3464 -0.0956
   6323SM  H19F 8170   0.167   3.035   0.077  2.3683  0.3321  1.3268
   6323SM  H19G 8171   0.110   2.917  -0.037 -2.1891  0.6797  1.2433
   6323SM  C20F 8172   0.327   2.903   0.015  0.6541  0.8622 -1.0899
   6323SM  H20F 8173   0.335   2.814  -0.051 -0.8611  0.1255 -0.3438
   6323SM  H20G 8174   0.387   2.887   0.107 -1.2923 -0.9075 -0.0251
   6323SM  C21F 8175   0.378   3.023  -0.067  0.9882 -0.5106  0.3274
   6323SM  H21F 8176   0.374   3.112  -0.002 -1.9020  0.6293 -1.2439
   6323SM  H21G 8177   0.320   3.035  -0.161  2.9546 -0.3774 -0.9325
   6323SM  C22F 8178   0.518   3.009  -0.109  1.0555 -0.5955  0.5028
   6323SM  H22F 8179   0.525   2.915  -0.167 -1.0866 -0.3669 -0.2265
   6323SM  H22G 8180   0.573   2.982  -0.017  2.2113 -0.9432 -0.2646
   6323SM  C23F 8181   0.580   3.123  -0.194 -0.2847  0.6266  0.4026
   6323SM  H23F 8182   0.560   3.112  -0.302  0.4190 -1.9548  0.4732
   6323SM  H23G 8183   0.689   3.137  -0.179 -0.0221 -0.0034 -0.8523
   6323SM  H23H 8184   0.532   3.220  -0.170 -1.0161 -0.3016  3.0127
   6423SM     N 8185   1.271   1.134   2.630  0.0510  0.3395  0.0553
   6423SM   C15 8186   1.347   1.060   2.736 -0.1276 -0.3824  0.1798
   6423SM  H15A 8187   1.353   0.953   2.730 -1.7838 -0.7551  3.1225
   6423SM  H15B 8188   1.305   1.065   2.835  0.0857 -0.5275  0.2786
   6423SM  H15C 8189   1.447   1.100   2.726  0.5774 -2.5115 -2.1882
   6423SM   C14 8190   1.256   1.271   2.687  0.0403 -0.3298 -0.7423
   6423SM  H14A 8191   1.327   1.344   2.651 -2.9837  1.9263 -2.7000
   6423SM  H14B 8192   1.266   1.270   2.794  2.5225  1.4685 -0.8768
   6423SM  H14C 8193   1.159   1.305   2.653  0.4095 -0.9077 -2.4819
   6423SM   C13 8194   1.367   1.137   2.516  0.4606  0.0354 -0.0604
   6423SM  H13A 8195   1.318   1.180   2.430  2.5490  2.9712  0.0718
   6423SM  H13B 8196   1.410   1.040   2.501 -0.0208 -0.1209 -0.4453
   6423SM  H13C 8197   1.440   1.216   2.525 -1.5650  2.2020 -1.5975
   6423SM   C12 8198   1.139   1.055   2.620  0.5465  0.3539  0.4290
   6423SM  H12A 8199   1.096   1.034   2.717  0.9722  0.2371  0.5998
   6423SM  H12B 8200   1.162   0.957   2.581 -0.1035 -0.4768  2.0425
   6423SM   C11 8201   1.020   1.112   2.540 -0.0129  0.5407  0.6447
   6423SM  H11A 8202   0.941   1.034   2.530 -1.5802  2.3558 -2.9111
   6423SM  H11B 8203   1.049   1.143   2.437 -0.3242  1.6292  0.8776
   6423SM     P 8204   0.827   1.290   2.579 -0.4057  0.1627  0.1668
   6423SM   O13 8205   0.732   1.214   2.660  0.1165  0.4178  0.1240
   6423SM   O14 8206   0.834   1.436   2.589  0.4047 -0.0372  0.2272
   6423SM   O11 8207   0.790   1.244   2.428 -0.5212  0.3850 -0.1034
   6423SM   O12 8208   0.974   1.232   2.605  0.0289  0.7379  0.0108
   6423SM   C1S 8209   0.811   1.331   2.314 -0.5089 -0.1518 -0.3996
   6423SM   H1S 8210   0.902   1.293   2.263 -0.4566 -0.3558 -0.1550
   6423SM   H1T 8211   0.827   1.438   2.341 -0.2679 -0.3008  0.0455
   6423SM    NF 8212   0.709   1.414   2.107 -0.2090 -0.0359  0.1175
   6423SM   HNF 8213   0.657   1.499   2.111 -1.6222 -0.5787 -3.4818
   6423SM   C2S 8214   0.687   1.330   2.214 -0.2668  0.6028 -0.4857
   6423SM   H2S 8215   0.681   1.227   2.173 -0.7218  1.5027 -2.8283
   6423SM   C3S 8216   0.554   1.348   2.296  0.6113 -0.5704 -0.2271
   6423SM   H3S 8217   0.561   1.448   2.345 -3.1120 -1.0002  1.6108
   6423SM    O3 8218   0.517   1.264   2.414  0.0131 -0.6016  0.1517
   6423SM   HO3 8219   0.598   1.214   2.428  0.1037 -0.1528  1.3046
   6423SM   C4S 8220   0.438   1.370   2.194 -0.2075  0.1658  0.5721
   6423SM   H4S 8221   0.414   1.474   2.168 -0.7191 -0.1327 -0.2109
   6423SM   C5S 8222   0.351   1.278   2.145 -0.2779  0.0996  0.3582
   6423SM   H5S 8223   0.357   1.175   2.183  0.1673 -0.2785 -0.6852
   6423SM   C6S 8224   0.240   1.308   2.049 -0.0110  0.2400 -0.0665
   6423SM   H6S 8225   0.152   1.323   2.115 -0.2861 -1.3783 -0.0408
   6423SM   H6T 8226   0.220   1.213   1.997 -0.5990  0.9691 -1.2024
   6423SM   C7S 8227   0.260   1.433   1.963  0.3936  0.1366  0.3118
   6423SM   H7S 8228   0.360   1.442   1.917 -0.4633  0.7262 -1.5155
   6423SM   H7T 8229   0.244   1.511   2.041  0.3190  0.7989 -0.3577
   6423SM   C8S 8230   0.156   1.456   1.857 -0.4629  0.0530 -0.7533
   6423SM   H8S 8231   0.186   1.552   1.808  1.4225  0.5024  1.1467
   6423SM   H8T 8232   0.055   1.467   1.902 -0.7948 -0.1722 -1.4360
   6423SM   C9S 8233   0.168   1.348   1.751  0.1852  0.0252 -0.1111
   6423SM   H9S 8234   0.142   1.243   1.779  0.4202 -0.3064 -1.0765
   6423SM   H9T 8235   0.278   1.338   1.740  0.2373 -1.9128  1.4471
   6423SM  C10S 8236   0.080   1.379   1.620 -0.2143  0.2952  0.5345
   6423SM  H10S 8237   0.112   1.483   1.601  3.5358 -0.8507 -0.1855
   6423SM  H10T 8238  -0.030   1.384   1.636 -0.6994 -1.1353 -1.8368
   6423SM  C11S 8239   0.109   1.290   1.506  0.2667 -0.0322 -0.2916
   6423SM  H11S 8240   0.086   1.187   1.543  0.2375  0.0449 -0.0933
   6423SM  H11T 8241   0.215   1.295   1.474 -0.0710  0.5027 -1.3689
   6423SM  C12S 8242   0.036   1.318   1.376  0.0582 -0.9861 -0.2135
   6423SM  H12S 8243   0.051   1.417   1.330  2.2330 -0.9058  0.5476
   6423SM  H12T 8244  -0.073   1.326   1.400  0.4170  0.6880  0.9950
   6423SM  C13S 8245   0.070   1.227   1.257 -0.0146  0.3673  0.1070
   6423SM  H13S 8246   0.032   1.125   1.278 -0.9934  0.7438  0.1842
   6423SM  H13T 8247   0.181   1.222   1.253  0.0657  0.1033  1.9502
   6423SM  C14S 8248   0.010   1.279   1.129 -0.0990 -0.0866  0.4947
   6423SM  H14S 8249   0.041   1.386   1.120 -2.5208  0.8195  2.0359
   6423SM  H14T 8250  -0.098   1.255   1.130  0.4489 -2.9115  0.9992
   6423SM  C15S 8251   0.084   1.210   1.013  0.6561 -1.6043  0.1025
   6423SM  H15S 8252   0.035   1.111   1.005 -2.7910 -0.2005  1.6252
   6423SM  H15T 8253   0.190   1.186   1.035  0.8281 -1.4849 -0.5909
   6423SM  C16S 8254   0.064   1.283   0.874  0.2425  0.1280  0.5357
   6423SM  H16S 8255   0.070   1.392   0.890 -0.8105 -0.1591  3.3955
   6423SM  H16T 8256  -0.041   1.271   0.839  0.5375  1.3338 -0.8701
   6423SM  C17S 8257   0.155   1.233   0.756  0.1954  0.4390 -0.1700
   6423SM  H17S 8258   0.117   1.128   0.753  0.1278  0.3003  2.7767
   6423SM  H17T 8259   0.261   1.239   0.790  0.8840  0.1202 -2.1150
   6423SM  C18S 8260   0.135   1.300   0.621  0.4277 -0.5833  0.3537
   6423SM  H18S 8261   0.033   1.343   0.611  1.0580  2.0964  3.7089
   6423SM  H18T 8262   0.158   1.231   0.537  0.1112  1.8136 -1.8144
   6423SM  H18U 8263   0.216   1.376   0.616 -0.7102  0.6532  0.3203
   6423SM   C1F 8264   0.806   1.388   2.019  0.7411  0.9719 -0.0662
   6423SM    OF 8265   0.858   1.273   2.023  0.5705 -0.2621  0.1035
   6423SM   C2F 8266   0.831   1.484   1.908  0.1329  0.1298 -0.2071
   6423SM   H2F 8267   0.926   1.538   1.925 -1.0704  1.7069  2.0678
   6423SM   H2G 8268   0.757   1.567   1.909 -1.1354 -0.9554 -0.0765
   6423SM   C3F 8269   0.844   1.416   1.774 -0.3559  0.4410  0.6130
   6423SM   H3F 8270   0.745   1.381   1.739 -0.3131 -0.3669  1.2625
   6423SM   H3G 8271   0.916   1.332   1.770  1.0116  1.4027  2.8277
   6423SM   C4F 8272   0.890   1.515   1.657  0.3899 -0.3375 -0.1527
   6423SM   H4F 8273   0.997   1.537   1.679  1.1061 -3.1076 -0.5218
   6423SM   H4G 8274   0.820   1.602   1.658 -0.2213 -0.8172 -0.7883
   6423SM   C5F 8275   0.866   1.439   1.523  0.0530 -0.0213 -0.0692
   6423SM   H5F 8276   0.758   1.412   1.522 -0.4481  1.8650 -1.0350
   6423SM   H5G 8277   0.928   1.347   1.524 -0.5667 -0.4557 -0.8198
   6423SM   C6F 8278   0.891   1.524   1.396  0.3715 -0.0293  0.2577
   6423SM   H6F 8279   1.002   1.526   1.389  0.4916 -0.0666  1.8764
   6423SM   H6G 8280   0.847   1.626   1.400 -3.2770 -1.3828 -1.3403
   6423SM   C7F 8281   0.829   1.454   1.272 -0.1937  0.5566 -0.7472
   6423SM   H7F 8282   0.718   1.466   1.275 -0.1667  0.8638  1.7615
   6423SM   H7G 8283   0.862   1.348   1.266 -0.8910  0.2950 -0.2332
   6423SM   C8F 8284   0.873   1.522   1.143 -0.6617  0.0812  0.9144
   6423SM   H8F 8285   0.982   1.538   1.157 -0.4490 -0.6143  0.1220
   6423SM   H8G 8286   0.826   1.621   1.130  0.8682  0.6112 -0.9669
   6423SM   C9F 8287   0.859   1.426   1.025  0.1096  0.6323 -0.0131
   6423SM   H9F 8288   0.756   1.385   1.016  1.2086 -2.4078  0.1362
   6423SM   H9G 8289   0.932   1.344   1.045  1.4138  2.1960  2.0972
   6423SM  C10F 8290   0.894   1.486   0.892  0.9531  0.7204 -0.2359
   6423SM  H10F 8291   1.004   1.487   0.877  0.9762 -2.4242 -0.8583
   6423SM  H10G 8292   0.854   1.589   0.877  0.5410  1.3215  3.8623
   6423SM  C11F 8293   0.856   1.396   0.774 -0.5398  0.9937 -0.0792
   6423SM  H11F 8294   0.748   1.373   0.789 -0.2725 -0.5825 -0.3077
   6423SM  H11G 8295   0.911   1.301   0.789  1.4920  1.9795 -1.0200
   6423SM  C12F 8296   0.866   1.460   0.630  0.0976  0.1298  0.2000
   6423SM  H12F 8297   0.962   1.514   0.611  1.0244 -1.6471 -0.4438
   6423SM  H12G 8298   0.779   1.528   0.629  0.7158  0.9794  1.3061
   6423SM  C13F 8299   0.860   1.356   0.517  0.6634  0.7349 -0.1029
   6423SM  H13F 8300   0.762   1.305   0.527  0.2443  0.9135 -2.5925
   6423SM  H13G 8301   0.938   1.278   0.533 -0.1390  0.0333  0.4705
   6423SM  C14F 8302   0.873   1.428   0.383 -0.5731 -0.0518  0.1080
   6423SM  H14F 8303   0.983   1.432   0.369 -0.4911 -0.9907  0.4041
   6423SM  H14G 8304   0.830   1.531   0.382 -0.3210  0.0591  0.4326
   6423SM  C15F 8305   0.827   1.348   0.263 -0.1669 -0.1749 -0.3034
   6423SM  H15F 8306   0.877   1.395   0.176  0.6695  0.0263  0.2704
   6423SM  H15G 8307   0.719   1.339   0.238  0.3601 -2.4177 -2.1190
   6423SM  C16F 8308   0.884   1.204   0.265 -0.7745  0.0917  0.2779
   6423SM  H16F 8309   0.833   1.144   0.343  0.7991 -0.8881  0.5947
   6423SM  H16G 8310   0.992   1.211   0.292 -0.6848  1.0642 -0.2735
   6423SM  C17F 8311   0.862   1.142   0.122 -0.5965 -0.0072 -0.7245
   6423SM  H17F 8312   0.920   1.208   0.054 -0.0803  0.7910  0.4522
   6423SM  H17G 8313   0.754   1.130   0.098 -0.5078  0.6683 -1.4774
   6423SM  C18F 8314   0.926   1.004   0.108 -0.9709 -0.7939  0.3014
   6423SM  H18F 8315   0.885   0.919   0.166 -1.6509 -1.6475 -1.3419
   6423SM  H18G 8316   1.018   1.003   0.171  0.3819 -0.9594 -1.5843
   6423SM  C19F 8317   0.978   0.971  -0.031 -0.0605  0.2748  0.3117
   6423SM  H19F 8318   1.044   1.052  -0.069 -1.1378 -0.2452 -2.9974
   6423SM  H19G 8319   0.887   0.966  -0.093  0.6080  1.7870 -0.8646
   6423SM  C20F 8320   1.038   0.831  -0.026  0.2790  0.5955 -0.0306
   6423SM  H20F 8321   0.956   0.756  -0.031  1.2750 -0.4695 -1.8772
   6423SM  H20G 8322   1.097   0.805   0.064  1.3104  1.1644 -0.5239
   6423SM  C21F 8323   1.127   0.813  -0.154 -0.2210  0.4203 -0.4985
   6423SM  H21F 8324   1.088   0.868  -0.242 -0.2150  0.4902 -0.4590
   6423SM  H21G 8325   1.112   0.708  -0.186  0.1636  0.0650  0.4355
   6423SM  C22F 8326   1.277   0.840  -0.119 -0.7112  0.0788 -0.3429
   6423SM  H22F 8327   1.335   0.809  -0.208 -1.6799 -0.7106 -0.7261
   6423SM  H22G 8328   1.303   0.776  -0.032 -0.7906 -0.8453 -0.9754
   6423SM  C23F 8329   1.314   0.990  -0.087 -0.0477 -0.2784 -0.0513
   6423SM  H23F 8330   1.295   1.060  -0.171 -0.7816  0.0406  0.3726
   6423SM  H23G 8331   1.417   1.003  -0.047 -0.8153  2.2282  1.3633
   6423SM  H23H 8332   1.245   1.027  -0.008 -2.2796  0.5687 -2.2623
   6523SM     N 8333   0.477  -3.329   2.781  0.1168  0.0053  0.1231
   6523SM   C15 8334   0.543  -3.328   2.916  0.2284  0.1069 -0.1693
   6523SM  H15A 8335   0.514  -3.241   2.973  0.8027  1.1569 -1.4339
   6523SM  H15B 8336   0.650  -3.338   2.922  0.2328  0.1527 -0.1710
   6523SM  H15C 8337   0.499  -3.402   2.982 -0.0728 -0.0365 -0.5258
   6523SM   C14 8338   0.535  -3.455   2.711 -0.4284 -0.4968 -0.2418
   6523SM  H14A 8339   0.545  -3.445   2.604  3.5852 -1.2201 -0.0845
   6523SM  H14B 8340   0.471  -3.539   2.737  0.4249 -0.4036  2.5040
   6523SM  H14C 8341   0.631  -3.490   2.746  0.5251 -1.7199 -3.6643
   6523SM   C13 8342   0.331  -3.339   2.795  0.2811 -0.6179  0.6022
   6523SM  H13A 8343   0.291  -3.360   2.697 -0.6911  3.3275 -0.0062
   6523SM  H13B 8344   0.293  -3.242   2.824 -0.6524 -1.1911  1.3310
   6523SM  H13C 8345   0.300  -3.409   2.871  0.5780  0.5591  1.8482
   6523SM   C12 8346   0.519  -3.207   2.709  0.1589 -0.2853  0.0850
   6523SM  H12A 8347   0.625  -3.200   2.727  0.0664 -0.9533  0.9101
   6523SM  H12B 8348   0.469  -3.124   2.756 -1.0717 -1.5122  1.0048
   6523SM   C11 8349   0.504  -3.195   2.553  0.2863 -0.0889 -0.0103
   6523SM  H11A 8350   0.561  -3.275   2.502  0.4390 -0.2374  0.3955
   6523SM  H11B 8351   0.544  -3.097   2.517 -0.7764  0.0796 -0.7970
   6523SM     P 8352   0.269  -3.092   2.542  0.3972 -0.0069 -0.3166
   6523SM   O13 8353   0.128  -3.140   2.556 -0.2630 -0.0225 -0.0315
   6523SM   O14 8354   0.311  -3.008   2.654 -0.5004 -0.4032  0.4187
   6523SM   O11 8355   0.274  -2.999   2.414 -0.1272 -0.6293  0.2895
   6523SM   O12 8356   0.368  -3.207   2.511 -0.2639  0.1717 -0.8125
   6523SM   C1S 8357   0.242  -3.067   2.288 -0.3330 -0.2376 -0.7448
   6523SM   H1S 8358   0.154  -3.135   2.296 -1.1315  0.6524 -1.7169
   6523SM   H1T 8359   0.332  -3.129   2.266  1.1990  2.4469 -2.5712
   6523SM    NF 8360   0.136  -3.027   2.056 -0.0404  0.1329 -0.2052
   6523SM   HNF 8361   0.168  -3.059   1.967 -1.2989 -1.0776 -0.2553
   6523SM   C2S 8362   0.224  -2.967   2.164  0.4433  0.0244  0.1452
   6523SM   H2S 8363   0.170  -2.881   2.208 -0.3308  0.1233 -0.9643
   6523SM   C3S 8364   0.362  -2.927   2.114 -0.2278 -0.5326  0.3786
   6523SM   H3S 8365   0.416  -3.020   2.089 -0.7068 -0.8048  0.3505
   6523SM    O3 8366   0.446  -2.872   2.218  0.3190  0.2436 -0.1727
   6523SM   HO3 8367   0.395  -2.896   2.296  2.6316 -0.9018  1.0639
   6523SM   C4S 8368   0.337  -2.833   1.999 -0.5203  0.2069  0.3041
   6523SM   H4S 8369   0.324  -2.894   1.909  0.1560 -1.8350  1.5096
   6523SM   C5S 8370   0.328  -2.695   1.997  0.0456 -0.0946  0.5050
   6523SM   H5S 8371   0.340  -2.646   2.095 -1.7826 -0.8558  1.1499
   6523SM   C6S 8372   0.311  -2.606   1.875 -0.2616  0.1261 -0.6860
   6523SM   H6S 8373   0.390  -2.529   1.870 -0.7136  0.5618 -1.2085
   6523SM   H6T 8374   0.211  -2.557   1.878 -0.1776  0.3006 -0.7377
   6523SM   C7S 8375   0.310  -2.695   1.744 -0.8368  0.5887  0.2649
   6523SM   H7S 8376   0.223  -2.765   1.744 -1.8399  1.7240 -1.6963
   6523SM   H7T 8377   0.402  -2.756   1.745 -1.5669 -0.5725  1.9911
   6523SM   C8S 8378   0.289  -2.625   1.612 -0.5403 -0.1571 -0.2443
   6523SM   H8S 8379   0.385  -2.578   1.581 -0.7460 -0.6899 -1.7358
   6523SM   H8T 8380   0.226  -2.535   1.629  1.0763  1.2481 -1.3228
   6523SM   C9S 8381   0.252  -2.733   1.508 -0.4982  0.2341  0.2268
   6523SM   H9S 8382   0.150  -2.774   1.525 -0.3525  0.3020  1.3088
   6523SM   H9T 8383   0.316  -2.821   1.533 -3.2981 -1.5465  1.7233
   6523SM  C10S 8384   0.269  -2.683   1.359  0.4043 -0.0898  0.6729
   6523SM  H10S 8385   0.368  -2.634   1.343  1.4831 -2.1679  0.6908
   6523SM  H10T 8386   0.184  -2.613   1.342  0.4762 -0.3363 -0.9382
   6523SM  C11S 8387   0.256  -2.793   1.258 -0.1010  0.4789  0.5763
   6523SM  H11S 8388   0.148  -2.816   1.258 -0.3112  1.4330  0.4219
   6523SM  H11T 8389   0.298  -2.889   1.295  0.6812  0.1280 -1.0819
   6523SM  C12S 8390   0.293  -2.754   1.109  1.0044 -0.4608  0.3241
   6523SM  H12S 8391   0.396  -2.716   1.125  0.9923  1.0459 -2.6074
   6523SM  H12T 8392   0.226  -2.674   1.071 -1.3300 -2.9640 -1.1792
   6523SM  C13S 8393   0.281  -2.878   1.019  0.2642  0.1152 -0.3672
   6523SM  H13S 8394   0.187  -2.934   1.034  0.2219 -0.3405 -2.1125
   6523SM  H13T 8395   0.358  -2.955   1.043 -0.3979 -0.1852  0.8921
   6523SM  C14S 8396   0.307  -2.841   0.875  0.0663  0.0594 -0.4179
   6523SM  H14S 8397   0.404  -2.790   0.863  1.6552 -2.5979  0.1666
   6523SM  H14T 8398   0.225  -2.772   0.845 -1.1804 -1.5592 -0.9197
   6523SM  C15S 8399   0.293  -2.961   0.778  0.2021 -0.5393 -0.4891
   6523SM  H15S 8400   0.200  -3.019   0.792 -0.8519  1.1253 -0.3542
   6523SM  H15T 8401   0.382  -3.026   0.791 -1.0747 -2.3023 -0.2485
   6523SM  C16S 8402   0.291  -2.932   0.631 -0.3944 -0.2279 -0.5173
   6523SM  H16S 8403   0.381  -2.869   0.612 -1.2472  1.8614  1.8219
   6523SM  H16T 8404   0.196  -2.879   0.612 -0.5127  0.5218  1.7676
   6523SM  C17S 8405   0.291  -3.064   0.544 -0.8101  0.0679 -0.4289
   6523SM  H17S 8406   0.307  -3.030   0.440  0.3229  1.1065  0.0538
   6523SM  H17T 8407   0.193  -3.115   0.549 -1.2922  0.8944 -1.2829
   6523SM  C18S 8408   0.404  -3.171   0.568 -0.1408 -0.7912 -0.1122
   6523SM  H18S 8409   0.504  -3.124   0.578 -0.2798 -0.6871  0.8571
   6523SM  H18T 8410   0.399  -3.258   0.500 -0.3294  0.1798 -1.4008
   6523SM  H18U 8411   0.392  -3.227   0.662  2.1886  0.1521  0.8201
   6523SM   C1F 8412   0.011  -3.049   2.088 -0.0633 -0.3182  0.8678
   6523SM    OF 8413  -0.046  -2.981   2.172 -0.2353  0.0972 -0.0697
   6523SM   C2F 8414  -0.068  -3.141   2.002  0.4685 -0.4739 -0.2704
   6523SM   H2F 8415  -0.142  -3.184   2.073 -0.1574  0.9574 -0.0155
   6523SM   H2G 8416   0.000  -3.225   1.979  0.3232 -1.1061  1.4418
   6523SM   C3F 8417  -0.129  -3.070   1.884 -0.5515 -0.3861  0.5610
   6523SM   H3F 8418  -0.052  -3.016   1.824 -1.2185  1.3930  1.2295
   6523SM   H3G 8419  -0.195  -2.992   1.928 -1.2238 -1.5211  1.6099
   6523SM   C4F 8420  -0.216  -3.159   1.803 -0.1885 -0.1192  0.6947
   6523SM   H4F 8421  -0.318  -3.115   1.805 -0.8774 -1.6739  2.2977
   6523SM   H4G 8422  -0.225  -3.264   1.839  1.2357 -0.0837  1.1909
   6523SM   C5F 8423  -0.155  -3.166   1.660 -0.3494  0.1721 -0.3153
   6523SM   H5F 8424  -0.055  -3.213   1.662  0.9352  2.6583 -0.9795
   6523SM   H5G 8425  -0.135  -3.061   1.629  1.6860 -0.3192 -0.8061
   6523SM   C6F 8426  -0.259  -3.222   1.561 -0.2395  0.1564  0.3896
   6523SM   H6F 8427  -0.352  -3.161   1.561  0.0309  0.6621 -1.7419
   6523SM   H6G 8428  -0.291  -3.326   1.588 -0.3397 -0.1983 -1.0223
   6523SM   C7F 8429  -0.209  -3.250   1.420 -0.1821  0.3623  0.1150
   6523SM   H7F 8430  -0.279  -3.304   1.353 -0.0950  1.9139 -1.2874
   6523SM   H7G 8431  -0.117  -3.312   1.429  1.0749  2.0420 -0.7057
   6523SM   C8F 8432  -0.161  -3.123   1.344  0.1254  0.3093  0.8167
   6523SM   H8F 8433  -0.109  -3.057   1.417 -1.2863  1.8318  0.5189
   6523SM   H8G 8434  -0.239  -3.061   1.295  2.4301  2.1205 -0.8015
   6523SM   C9F 8435  -0.058  -3.156   1.230  0.0303 -0.4443  0.1434
   6523SM   H9F 8436   0.015  -3.229   1.271 -2.5240 -2.9416  0.5545
   6523SM   H9G 8437  -0.002  -3.064   1.201  0.3889 -0.6126  0.2917
   6523SM  C10F 8438  -0.119  -3.201   1.100 -0.2107  0.3567  0.1900
   6523SM  H10F 8439  -0.201  -3.130   1.074 -0.6712  0.2185  1.2292
   6523SM  H10G 8440  -0.164  -3.301   1.117 -1.1296  0.7392  0.0964
   6523SM  C11F 8441  -0.023  -3.225   0.986 -0.1919 -0.3536  0.3906
   6523SM  H11F 8442   0.060  -3.284   1.029 -0.0304  1.9397  3.5698
   6523SM  H11G 8443   0.019  -3.123   0.968 -1.8812  0.6163  1.6017
   6523SM  C12F 8444  -0.080  -3.268   0.855 -0.3152 -0.1660  0.3560
   6523SM  H12F 8445  -0.164  -3.198   0.838 -0.4229 -0.2752  0.4346
   6523SM  H12G 8446  -0.122  -3.370   0.874 -1.3135  0.5509  2.3609
   6523SM  C13F 8447   0.009  -3.260   0.739 -0.0191 -0.3272  0.4185
   6523SM  H13F 8448   0.107  -3.309   0.758 -0.6907 -2.3925 -1.0333
   6523SM  H13G 8449   0.036  -3.155   0.714  1.1367 -0.5547  0.6281
   6523SM  C14F 8450  -0.064  -3.317   0.619 -0.4299  0.4502  0.7492
   6523SM  H14F 8451  -0.142  -3.242   0.593  0.1748 -0.1985 -3.7957
   6523SM  H14G 8452  -0.104  -3.416   0.651 -2.1254  1.2364  1.2019
   6523SM  C15F 8453   0.032  -3.340   0.494 -0.0862  0.3571 -0.9727
   6523SM  H15F 8454   0.128  -3.393   0.512 -0.5632 -0.4473 -0.7110
   6523SM  H15G 8455   0.062  -3.241   0.454  2.8082  0.1181  0.3843
   6523SM  C16F 8456  -0.048  -3.401   0.379 -0.0468 -0.4429 -0.3100
   6523SM  H16F 8457  -0.139  -3.337   0.376 -0.3885 -0.9452 -0.9816
   6523SM  H16G 8458  -0.078  -3.506   0.398  0.2236 -0.5692 -0.5897
   6523SM  C17F 8459   0.014  -3.386   0.236 -0.0686 -0.0538  0.0606
   6523SM  H17F 8460  -0.035  -3.465   0.175  1.8314 -0.9609 -0.3592
   6523SM  H17G 8461   0.120  -3.417   0.238  0.3013  1.2047  0.9549
   6523SM  C18F 8462  -0.003  -3.240   0.187  1.1629  0.3455  0.6355
   6523SM  H18F 8463   0.049  -3.170   0.256  1.0317 -0.4901  1.6141
   6523SM  H18G 8464  -0.110  -3.212   0.184  1.0160 -0.2817 -0.3523
   6523SM  C19F 8465   0.064  -3.210   0.050  0.0926 -0.5150 -0.1642
   6523SM  H19F 8466  -0.001  -3.129   0.011  1.0700  0.4878  0.2151
   6523SM  H19G 8467   0.050  -3.285  -0.030  0.1938 -0.0341 -0.6412
   6523SM  C20F 8468   0.208  -3.154   0.042 -0.2885 -0.0362  0.2162
   6523SM  H20F 8469   0.230  -3.067   0.107 -1.9050  0.5791 -0.0284
   6523SM  H20G 8470   0.214  -3.105  -0.057  2.0896  0.3374  0.4751
   6523SM  C21F 8471   0.326  -3.258   0.062  0.1405 -0.0728 -0.0530
   6523SM  H21F 8472   0.316  -3.346  -0.005  0.1320  1.0970 -1.6284
   6523SM  H21G 8473   0.314  -3.301   0.164  2.0353 -0.8574 -0.1068
   6523SM  C22F 8474   0.462  -3.183   0.061 -0.2242 -0.3512 -0.0770
   6523SM  H22F 8475   0.464  -3.120  -0.031  0.7267 -2.2793 -1.4297
   6523SM  H22G 8476   0.544  -3.257   0.057  1.6082  1.4664  1.2322
   6523SM  C23F 8477   0.502  -3.097   0.178  0.7563  0.1461 -0.2611
   6523SM  H23F 8478   0.609  -3.066   0.181  0.2352  2.2028 -1.1977
   6523SM  H23G 8479   0.489  -3.156   0.271 -0.4972 -0.5646 -0.8632
   6523SM  H23H 8480   0.447  -3.001   0.188 -0.7483 -0.6905 -0.3036
   6623SM     N 8481  -0.673  -0.446   2.604 -0.3119 -0.8650 -0.5112
   6623SM   C15 8482  -0.558  -0.539   2.643 -0.1925  0.2088 -0.3902
   6623SM  H15A 8483  -0.571  -0.577   2.743  1.2374 -0.6192 -0.4880
   6623SM  H15B 8484  -0.464  -0.486   2.652 -0.0020 -0.1504 -0.2644
   6623SM  H15C 8485  -0.556  -0.623   2.575 -1.3001  2.0595 -2.8491
   6623SM   C14 8486  -0.790  -0.534   2.579 -0.2837 -0.2970  0.6364
   6623SM  H14A 8487  -0.884  -0.484   2.562  0.6933  1.8984  1.2263
   6623SM  H14B 8488  -0.797  -0.608   2.658 -0.2933 -1.8942 -0.8122
   6623SM  H14C 8489  -0.779  -0.591   2.488 -1.8571 -0.0987  0.2925
   6623SM   C13 8490  -0.706  -0.356   2.717  0.0235  0.6233  0.1858
   6623SM  H13A 8491  -0.730  -0.412   2.806  0.5317  1.7280  1.0395
   6623SM  H13B 8492  -0.788  -0.289   2.703 -0.8766 -0.1123  1.6544
   6623SM  H13C 8493  -0.619  -0.302   2.751  1.1471 -1.6904  1.2535
   6623SM   C12 8494  -0.637  -0.360   2.484  0.0546 -0.1539 -0.2229
   6623SM  H12A 8495  -0.556  -0.293   2.507  1.7401 -1.2868 -2.5033
   6623SM  H12B 8496  -0.728  -0.306   2.462  0.1951  0.5211  0.8113
   6623SM   C11 8497  -0.604  -0.438   2.353 -0.2389 -0.0828 -0.3041
   6623SM  H11A 8498  -0.588  -0.357   2.278  2.2333 -1.5592 -1.5141
   6623SM  H11B 8499  -0.693  -0.498   2.324 -0.2621  0.3093 -1.0753
   6623SM     P 8500  -0.349  -0.491   2.295  0.1235  0.2098  0.4466
   6623SM   O13 8501  -0.281  -0.375   2.359 -0.0132 -0.4381  0.3466
   6623SM   O14 8502  -0.281  -0.622   2.304  0.0123 -0.1961  0.2929
   6623SM   O11 8503  -0.380  -0.468   2.144 -0.0237 -0.4459 -0.1527
   6623SM   O12 8504  -0.484  -0.519   2.353  0.1704  0.0497 -0.4862
   6623SM   C1S 8505  -0.344  -0.565   2.038  0.1425 -0.0854 -0.1508
   6623SM   H1S 8506  -0.376  -0.667   2.071 -1.1983  0.3053 -0.1924
   6623SM   H1T 8507  -0.235  -0.560   2.018  0.1164 -0.9140 -0.5540
   6623SM    NF 8508  -0.372  -0.625   1.793  0.4046  1.0151  0.5640
   6623SM   HNF 8509  -0.323  -0.578   1.720 -0.2925  1.7650  0.5615
   6623SM   C2S 8510  -0.419  -0.541   1.905  0.2290 -0.3488  0.4266
   6623SM   H2S 8511  -0.527  -0.560   1.924  0.3660 -1.3460  0.2341
   6623SM   C3S 8512  -0.421  -0.386   1.866 -0.4817 -0.0584 -0.0612
   6623SM   H3S 8513  -0.314  -0.373   1.842 -0.9599  0.4986 -2.0959
   6623SM    O3 8514  -0.446  -0.298   1.969 -0.0755  0.1784  0.7413
   6623SM   HO3 8515  -0.421  -0.359   2.039  2.4620 -0.5154 -0.6784
   6623SM   C4S 8516  -0.501  -0.358   1.746  1.0216 -0.7361  0.5093
   6623SM   H4S 8517  -0.605  -0.391   1.759  0.0549  1.1910 -1.6268
   6623SM   C5S 8518  -0.474  -0.297   1.632 -0.2664  0.8809  0.6820
   6623SM   H5S 8519  -0.378  -0.249   1.608  0.3718 -0.6471  0.1074
   6623SM   C6S 8520  -0.574  -0.268   1.522 -0.0371 -0.2186  0.6127
   6623SM   H6S 8521  -0.584  -0.159   1.506 -1.0294 -0.1138  1.7868
   6623SM   H6T 8522  -0.673  -0.310   1.551  0.5986 -2.5364 -0.3457
   6623SM   C7S 8523  -0.522  -0.342   1.392 -0.5304  0.3787 -0.0057
   6623SM   H7S 8524  -0.553  -0.449   1.397  2.3866 -0.4908  1.7982
   6623SM   H7T 8525  -0.411  -0.342   1.391 -0.4536  2.2949  1.8506
   6623SM   C8S 8526  -0.574  -0.268   1.267 -0.2778 -0.3901 -0.7335
   6623SM   H8S 8527  -0.541  -0.164   1.286 -0.7245 -0.3829  0.0508
   6623SM   H8T 8528  -0.685  -0.276   1.269 -0.2108 -1.2796  0.3478
   6623SM   C9S 8529  -0.522  -0.326   1.137 -0.3294  1.3526  0.0800
   6623SM   H9S 8530  -0.573  -0.421   1.109  0.8674 -0.0580  2.4027
   6623SM   H9T 8531  -0.412  -0.340   1.144 -0.3193  2.2440  2.6340
   6623SM  C10S 8532  -0.554  -0.241   1.020 -0.4503  0.0946  0.0988
   6623SM  H10S 8533  -0.476  -0.162   1.011  3.5677 -3.4724 -0.1356
   6623SM  H10T 8534  -0.652  -0.189   1.024 -1.4154 -1.1004 -3.5389
   6623SM  C11S 8535  -0.544  -0.317   0.894  0.2782  0.1032  0.1335
   6623SM  H11S 8536  -0.610  -0.406   0.904  0.5594 -0.2754 -1.2959
   6623SM  H11T 8537  -0.436  -0.335   0.875  0.6259 -0.0947  2.0789
   6623SM  C12S 8538  -0.601  -0.225   0.779  0.3054  0.6786 -0.7509
   6623SM  H12S 8539  -0.556  -0.123   0.777 -0.0011  0.8331 -0.0818
   6623SM  H12T 8540  -0.709  -0.205   0.795  0.6654  0.8686  1.9718
   6623SM  C13S 8541  -0.590  -0.299   0.644 -0.0745  0.2864 -0.4156
   6623SM  H13S 8542  -0.641  -0.397   0.657  2.5834 -1.4679 -2.2851
   6623SM  H13T 8543  -0.481  -0.316   0.634 -0.0203  0.1246  0.3411
   6623SM  C14S 8544  -0.660  -0.206   0.543 -0.4971 -0.2002 -0.2675
   6623SM  H14S 8545  -0.597  -0.117   0.522 -0.5892 -0.2273 -0.6615
   6623SM  H14T 8546  -0.757  -0.176   0.589  0.2645 -0.1864  1.4032
   6623SM  C15S 8547  -0.687  -0.282   0.412  0.4320 -0.1493 -0.3298
   6623SM  H15S 8548  -0.737  -0.379   0.434 -3.5682  1.6296 -0.7058
   6623SM  H15T 8549  -0.585  -0.304   0.373  1.0181  0.6940  0.6775
   6623SM  C16S 8550  -0.777  -0.210   0.309 -0.2523  0.2349  0.0988
   6623SM  H16S 8551  -0.722  -0.122   0.271 -2.4862  1.3542 -0.7326
   6623SM  H16T 8552  -0.869  -0.174   0.360  0.3188  3.1131 -0.7384
   6623SM  C17S 8553  -0.820  -0.297   0.192 -0.3390  0.2523  0.4447
   6623SM  H17S 8554  -0.864  -0.387   0.240  0.6032 -0.2499  0.3909
   6623SM  H17T 8555  -0.724  -0.326   0.144 -0.9236 -0.5438 -0.2875
   6623SM  C18S 8556  -0.902  -0.249   0.075  0.2070 -0.3587  0.2563
   6623SM  H18S 8557  -1.001  -0.227   0.122  0.3689 -1.5343  1.2012
   6623SM  H18T 8558  -0.921  -0.323  -0.006 -1.6299  1.6729 -1.2952
   6623SM  H18U 8559  -0.861  -0.155   0.033  0.1747  0.2647  1.5569
   6623SM   C1F 8560  -0.405  -0.754   1.775 -0.7315 -0.0572 -0.1441
   6623SM    OF 8561  -0.486  -0.808   1.847 -0.1706 -0.0898 -0.4949
   6623SM   C2F 8562  -0.324  -0.824   1.665  0.0106 -0.7091 -0.1564
   6623SM   H2F 8563  -0.228  -0.859   1.709  1.3671  1.0715 -1.5732
   6623SM   H2G 8564  -0.297  -0.750   1.587 -0.1840 -1.1192 -0.6141
   6623SM   C3F 8565  -0.391  -0.947   1.604 -0.3036  0.2677  0.0574
   6623SM   H3F 8566  -0.423  -1.021   1.680  0.7189  1.1075  1.3607
   6623SM   H3G 8567  -0.319  -0.987   1.529  1.0740  2.1584  0.2880
   6623SM   C4F 8568  -0.514  -0.901   1.516 -0.1816 -0.3438  0.2239
   6623SM   H4F 8569  -0.597  -0.872   1.585 -1.2018 -1.4477 -0.4968
   6623SM   H4G 8570  -0.547  -0.993   1.463  1.3559  1.0722 -3.4713
   6623SM   C5F 8571  -0.484  -0.791   1.414  0.5458  0.2823 -0.2066
   6623SM   H5F 8572  -0.429  -0.702   1.452 -1.3192  1.7430 -0.7912
   6623SM   H5G 8573  -0.584  -0.754   1.386 -0.0109 -1.9528 -1.3944
   6623SM   C6F 8574  -0.424  -0.835   1.286  0.4588 -0.0156  0.1645
   6623SM   H6F 8575  -0.482  -0.925   1.258 -2.7529  1.8592  0.2696
   6623SM   H6G 8576  -0.318  -0.864   1.297 -0.0136 -1.2566  1.8846
   6623SM   C7F 8577  -0.432  -0.744   1.169  0.5285 -0.3012 -0.1203
   6623SM   H7F 8578  -0.389  -0.643   1.184 -1.2538  0.1056  3.0527
   6623SM   H7G 8579  -0.542  -0.728   1.158  0.1030 -2.9716 -0.4618
   6623SM   C8F 8580  -0.375  -0.793   1.041 -0.1607  0.2097  0.4732
   6623SM   H8F 8581  -0.405  -0.897   1.016 -1.3417  0.2948  1.4224
   6623SM   H8G 8582  -0.265  -0.803   1.055 -0.3132 -0.6284  1.2097
   6623SM   C9F 8583  -0.400  -0.696   0.927  0.1695 -0.8195  0.2484
   6623SM   H9F 8584  -0.335  -0.608   0.943 -2.0978  0.8496  0.7496
   6623SM   H9G 8585  -0.506  -0.665   0.939 -0.0340  0.0733 -2.9525
   6623SM  C10F 8586  -0.369  -0.741   0.786  0.0109 -0.6770 -0.6684
   6623SM  H10F 8587  -0.415  -0.837   0.756 -3.2231 -0.0004  1.6179
   6623SM  H10G 8588  -0.258  -0.748   0.775  0.0355  0.6294 -1.4804
   6623SM  C11F 8589  -0.409  -0.628   0.685 -0.4333  0.5834 -0.3678
   6623SM  H11F 8590  -0.341  -0.545   0.711  1.7761 -0.8617 -1.2851
   6623SM  H11G 8591  -0.518  -0.604   0.683 -0.7077 -0.5435  0.2996
   6623SM  C12F 8592  -0.374  -0.671   0.541  0.7493  0.2445  0.3745
   6623SM  H12F 8593  -0.436  -0.760   0.519  0.4141  0.9691 -1.9454
   6623SM  H12G 8594  -0.266  -0.699   0.533  0.9945  1.3056 -0.1808
   6623SM  C13F 8595  -0.408  -0.563   0.433 -0.2698  0.1483 -0.2619
   6623SM  H13F 8596  -0.354  -0.470   0.460 -0.3007  0.0422  0.1684
   6623SM  H13G 8597  -0.517  -0.544   0.431  0.0935  2.7080 -2.8976
   6623SM  C14F 8598  -0.364  -0.602   0.292  0.5583  0.4816  0.2977
   6623SM  H14F 8599  -0.400  -0.702   0.263 -0.3842  0.4429  1.5192
   6623SM  H14G 8600  -0.256  -0.602   0.266 -0.2193  1.3521 -3.6339
   6623SM  C15F 8601  -0.421  -0.505   0.196 -0.0354  0.4241 -0.6678
   6623SM  H15F 8602  -0.391  -0.400   0.221 -1.5453  0.7111  0.0540
   6623SM  H15G 8603  -0.531  -0.506   0.209 -0.0136 -2.7779 -0.1102
   6623SM  C16F 8604  -0.377  -0.537   0.052  0.0925  0.1342  0.3211
   6623SM  H16F 8605  -0.354  -0.642   0.027 -0.2054 -0.0103  0.6434
   6623SM  H16G 8606  -0.278  -0.492   0.027 -0.1033 -0.6619 -2.0454
   6623SM  C17F 8607  -0.482  -0.483  -0.043  0.5514  0.0582  0.1466
   6623SM  H17F 8608  -0.519  -0.387   0.000 -0.2151 -0.0028 -0.3539
   6623SM  H17G 8609  -0.561  -0.560  -0.053  0.0194  0.2994  2.1017
   6623SM  C18F 8610  -0.420  -0.450  -0.180 -0.4883  0.4682 -0.6509
   6623SM  H18F 8611  -0.498  -0.460  -0.258 -1.8527 -1.6153  0.8646
   6623SM  H18G 8612  -0.348  -0.530  -0.209  0.2568  0.3769  1.3218
   6623SM  C19F 8613  -0.363  -0.305  -0.186  0.2693 -0.0703 -0.6683
   6623SM  H19F 8614  -0.269  -0.307  -0.128  0.4553 -2.5113 -0.9279
   6623SM  H19G 8615  -0.437  -0.232  -0.147 -1.2611 -1.1000 -1.5275
   6623SM  C20F 8616  -0.314  -0.276  -0.329 -0.7175 -0.8283  0.1195
   6623SM  H20F 8617  -0.318  -0.168  -0.356 -1.3959 -1.2009 -1.3536
   6623SM  H20G 8618  -0.395  -0.320  -0.391 -0.8148 -1.5890  0.7838
   6623SM  C21F 8619  -0.177  -0.337  -0.373 -0.1473  0.0098 -0.0731
   6623SM  H21F 8620  -0.164  -0.438  -0.330 -2.6362 -0.2219  0.2989
   6623SM  H21G 8621  -0.096  -0.272  -0.335 -0.7700  0.3163  0.7782
   6623SM  C22F 8622  -0.161  -0.349  -0.527  0.1664  0.2225 -0.4618
   6623SM  H22F 8623  -0.250  -0.405  -0.562  0.2646  1.4609 -2.9040
   6623SM  H22G 8624  -0.071  -0.407  -0.557  1.2577  2.2558 -1.3991
   6623SM  C23F 8625  -0.157  -0.216  -0.602 -0.0490  0.5629 -0.2027
   6623SM  H23F 8626  -0.065  -0.159  -0.578  1.4254 -1.5443 -0.5873
   6623SM  H23G 8627  -0.248  -0.153  -0.592 -0.8203 -0.1965 -1.9097
   6623SM  H23H 8628  -0.144  -0.234  -0.711  2.9174  0.4903  0.0931
   6723SM     N 8629  -2.936   3.315   2.575  0.3018 -0.3849 -0.0807
   6723SM   C15 8630  -3.064   3.328   2.660  0.0085  0.5317 -0.2220
   6723SM  H15A 8631  -3.150   3.353   2.599  0.4181 -3.0715 -2.5162
   6723SM  H15B 8632  -3.054   3.412   2.728 -1.1194 -0.6182  1.4288
   6723SM  H15C 8633  -3.087   3.239   2.715  0.8692 -0.1882 -0.9967
   6723SM   C14 8634  -2.819   3.334   2.671  0.2444 -0.0703 -0.7382
   6723SM  H14A 8635  -2.813   3.424   2.730  0.4945  0.1956 -1.1677
   6723SM  H14B 8636  -2.724   3.323   2.619  0.7680  2.2702 -0.3699
   6723SM  H14C 8637  -2.836   3.254   2.741  1.4593  0.3269  0.0442
   6723SM   C13 8638  -2.940   3.176   2.526 -0.2346  0.3974 -0.6294
   6723SM  H13A 8639  -3.020   3.164   2.453 -2.2772 -0.1687  1.5652
   6723SM  H13B 8640  -2.955   3.108   2.608  1.5448  0.0439 -0.5635
   6723SM  H13C 8641  -2.847   3.152   2.478  0.1043  0.5315 -0.0453
   6723SM   C12 8642  -2.939   3.428   2.471 -0.6351  0.6949 -0.5322
   6723SM  H12A 8643  -2.931   3.522   2.523  0.9385 -0.6191  1.7490
   6723SM  H12B 8644  -3.034   3.413   2.422 -2.4683  0.7321  2.7330
   6723SM   C11 8645  -2.810   3.437   2.375 -0.6399  0.6314 -0.1016
   6723SM  H11A 8646  -2.843   3.509   2.298 -0.7072  0.0566 -0.6210
   6723SM  H11B 8647  -2.791   3.332   2.344 -2.2401  0.3825 -0.3145
   6723SM     P 8648  -2.577   3.555   2.427 -0.4272 -0.5548  0.0020
   6723SM   O13 8649  -2.595   3.683   2.361  0.5309  0.0859 -0.0918
   6723SM   O14 8650  -2.492   3.564   2.551  0.2783 -0.2883 -0.2413
   6723SM   O11 8651  -2.507   3.447   2.335  0.9563 -0.2097 -0.3667
   6723SM   O12 8652  -2.710   3.484   2.467 -0.6255  0.2163  0.8271
   6723SM   C1S 8653  -2.551   3.425   2.197 -0.4062  0.0358  0.4065
   6723SM   H1S 8654  -2.628   3.499   2.167  0.3480  0.5171 -0.3656
   6723SM   H1T 8655  -2.590   3.322   2.182 -3.5000  1.2372 -0.6505
   6723SM    NF 8656  -2.485   3.430   1.961  0.3288 -0.6042  0.3466
   6723SM   HNF 8657  -2.462   3.346   1.912  0.5752 -0.7024  0.6308
   6723SM   C2S 8658  -2.438   3.446   2.098  0.2753 -0.2788 -0.9251
   6723SM   H2S 8659  -2.412   3.552   2.118  1.9966 -0.7868 -0.3450
   6723SM   C3S 8660  -2.309   3.371   2.139  0.6466 -0.2948 -0.0706
   6723SM   H3S 8661  -2.324   3.262   2.128 -0.0079 -0.4893  2.3200
   6723SM    O3 8662  -2.252   3.392   2.272  0.4920  0.1129 -0.1580
   6723SM   HO3 8663  -2.325   3.436   2.316 -0.6742  0.6395 -2.4239
   6723SM   C4S 8664  -2.206   3.410   2.036  0.1149  0.2768 -0.2101
   6723SM   H4S 8665  -2.190   3.517   2.012  1.9785  0.0531 -0.1346
   6723SM   C5S 8666  -2.140   3.329   1.963 -0.0395  0.6830 -0.6131
   6723SM   H5S 8667  -2.178   3.226   1.970 -2.8408  1.7286  1.5914
   6723SM   C6S 8668  -2.064   3.359   1.837 -0.8912  0.7659 -0.4987
   6723SM   H6S 8669  -2.047   3.263   1.785 -1.2135  0.0510  0.6734
   6723SM   H6T 8670  -1.969   3.416   1.851 -0.1445 -0.3783 -0.7918
   6723SM   C7S 8671  -2.145   3.440   1.741 -0.3989 -0.3362 -0.2915
   6723SM   H7S 8672  -2.176   3.535   1.789 -3.1153 -0.1370 -2.2524
   6723SM   H7T 8673  -2.244   3.395   1.720 -1.1602  0.6708  0.9826
   6723SM   C8S 8674  -2.088   3.487   1.608 -0.1859 -0.3353  0.0008
   6723SM   H8S 8675  -1.990   3.529   1.636  0.5286 -0.5571 -1.9722
   6723SM   H8T 8676  -2.136   3.583   1.580 -1.4405 -0.2319  2.2754
   6723SM   C9S 8677  -2.068   3.371   1.513 -0.5543  0.1361  0.1514
   6723SM   H9S 8678  -2.162   3.317   1.486 -2.0308  2.9844 -0.8059
   6723SM   H9T 8679  -1.993   3.304   1.560 -0.4779 -0.6841 -1.0903
   6723SM  C10S 8680  -2.006   3.420   1.377 -0.1367  0.6917  0.6516
   6723SM  H10S 8681  -1.899   3.441   1.394  0.0566  1.5099 -1.2370
   6723SM  H10T 8682  -2.055   3.520   1.370  1.3206  1.5017  1.6903
   6723SM  C11S 8683  -2.033   3.347   1.247 -0.0240  0.4320  0.2583
   6723SM  H11S 8684  -2.136   3.312   1.227 -0.7902  3.3189 -1.4442
   6723SM  H11T 8685  -1.976   3.252   1.245  0.9526  0.9595 -2.9020
   6723SM  C12S 8686  -2.015   3.450   1.133  0.1814 -0.0701 -0.2830
   6723SM  H12S 8687  -1.911   3.488   1.139  1.0580 -2.5091  2.2842
   6723SM  H12T 8688  -2.078   3.540   1.149  2.3099  1.3067  0.7536
   6723SM  C13S 8689  -2.048   3.391   0.995  0.6452 -0.2154 -0.6048
   6723SM  H13S 8690  -2.148   3.348   1.016  2.1832 -2.1411  4.2891
   6723SM  H13T 8691  -1.980   3.307   0.971 -2.1066 -2.5875 -0.5371
   6723SM  C14S 8692  -2.038   3.485   0.874  0.5393 -0.2066 -0.1120
   6723SM  H14S 8693  -2.035   3.592   0.904 -0.2325 -0.0259 -0.6545
   6723SM  H14T 8694  -2.125   3.462   0.808  0.3284 -2.4410  0.8706
   6723SM  C15S 8695  -1.914   3.446   0.788 -0.1023  0.1253  0.5753
   6723SM  H15S 8696  -1.925   3.335   0.781 -3.1998  0.3338  0.7144
   6723SM  H15T 8697  -1.830   3.465   0.858 -1.3930  0.6829  2.0379
   6723SM  C16S 8698  -1.899   3.517   0.650 -0.5005 -0.4817 -0.5441
   6723SM  H16S 8699  -1.811   3.478   0.594  1.9157  1.7617  1.4084
   6723SM  H16T 8700  -1.891   3.627   0.664  2.2947 -0.6857  0.1074
   6723SM  C17S 8701  -2.006   3.466   0.547  0.7079 -0.2871 -0.4571
   6723SM  H17S 8702  -2.109   3.488   0.584  0.7891 -1.2451  0.3834
   6723SM  H17T 8703  -1.994   3.356   0.549 -1.3500 -0.5644 -1.1560
   6723SM  C18S 8704  -1.994   3.527   0.407  0.3420  0.3786  0.0163
   6723SM  H18S 8705  -2.071   3.482   0.340 -0.9357  1.0465  0.9910
   6723SM  H18T 8706  -1.890   3.516   0.372 -0.7124  1.3804 -3.9375
   6723SM  H18U 8707  -2.022   3.634   0.409  1.5981  0.7405 -0.8357
   6723SM   C1F 8708  -2.563   3.522   1.909 -0.6460 -0.1756  0.4179
   6723SM    OF 8709  -2.576   3.631   1.965  0.3286  0.1843 -0.1113
   6723SM   C2F 8710  -2.632   3.488   1.775  0.3114 -0.3572 -0.7537
   6723SM   H2F 8711  -2.678   3.588   1.761  1.4139  0.6865  2.2959
   6723SM   H2G 8712  -2.709   3.409   1.789  0.2494 -0.1027  0.4201
   6723SM   C3F 8713  -2.534   3.463   1.667 -0.1150 -0.6327 -0.1875
   6723SM   H3F 8714  -2.503   3.356   1.668 -0.9564 -0.8970  0.7400
   6723SM   H3G 8715  -2.445   3.528   1.682  0.7260 -1.9374  0.7417
   6723SM   C4F 8716  -2.587   3.485   1.524  0.2171  0.0539  0.4932
   6723SM   H4F 8717  -2.638   3.584   1.518  0.5273  0.1800 -0.2676
   6723SM   H4G 8718  -2.659   3.404   1.499  0.3565 -0.7684  2.6139
   6723SM   C5F 8719  -2.472   3.481   1.415  0.3331  0.1823 -0.3443
   6723SM   H5F 8720  -2.434   3.377   1.412  0.5400  0.1351  1.9430
   6723SM   H5G 8721  -2.391   3.554   1.437 -1.0710  1.2493  1.6816
   6723SM   C6F 8722  -2.533   3.527   1.277  0.2348  0.2049  0.1008
   6723SM   H6F 8723  -2.542   3.638   1.275 -1.6792  0.0762  0.1703
   6723SM   H6G 8724  -2.631   3.477   1.262  0.4676  0.5578 -3.1686
   6723SM   C7F 8725  -2.432   3.503   1.163  0.5630  0.0857  0.6085
   6723SM   H7F 8726  -2.419   3.393   1.158 -0.4460 -0.0190 -0.1228
   6723SM   H7G 8727  -2.336   3.550   1.192  0.7335 -0.0084  0.1965
   6723SM   C8F 8728  -2.485   3.574   1.039  0.0752 -0.1668  0.1555
   6723SM   H8F 8729  -2.485   3.682   1.065 -1.2151 -0.0236 -0.3925
   6723SM   H8G 8730  -2.590   3.552   1.011  0.0642  0.2262 -0.1301
   6723SM   C9F 8731  -2.409   3.554   0.913  0.4814 -0.1055  0.3721
   6723SM   H9F 8732  -2.425   3.448   0.884 -3.8395  0.6198 -0.4602
   6723SM   H9G 8733  -2.301   3.567   0.939  0.6118  2.3678 -1.0596
   6723SM  C10F 8734  -2.436   3.649   0.795 -0.5244 -0.2044 -0.0570
   6723SM  H10F 8735  -2.404   3.754   0.806 -1.1293  0.0789 -0.8817
   6723SM  H10G 8736  -2.546   3.648   0.775 -0.6189  2.1738  0.1191
   6723SM  C11F 8737  -2.376   3.620   0.654  0.1475  0.4786  0.2309
   6723SM  H11F 8738  -2.381   3.510   0.639  1.0562  0.5957 -1.0759
   6723SM  H11G 8739  -2.268   3.645   0.647  0.6761 -1.7015 -0.0600
   6723SM  C12F 8740  -2.446   3.684   0.528  0.2312 -0.7434  0.7848
   6723SM  H12F 8741  -2.546   3.637   0.518  0.2594 -0.3833 -2.3210
   6723SM  H12G 8742  -2.383   3.639   0.448  1.4891 -1.3980  2.0909
   6723SM  C13F 8743  -2.447   3.835   0.526 -0.2879 -0.3812  0.1579
   6723SM  H13F 8744  -2.346   3.881   0.535 -1.2305  2.0737 -0.7613
   6723SM  H13G 8745  -2.504   3.866   0.616 -0.5449 -0.8429  0.1577
   6723SM  C14F 8746  -2.527   3.886   0.401 -0.3509  0.3550 -0.0189
   6723SM  H14F 8747  -2.569   3.986   0.426 -3.3405 -0.3191 -1.7944
   6723SM  H14G 8748  -2.615   3.821   0.382 -1.6138  1.9078  0.3209
   6723SM  C15F 8749  -2.449   3.886   0.267  0.4664 -0.4257  0.7850
   6723SM  H15F 8750  -2.416   3.782   0.244  3.9529  0.6135  0.5186
   6723SM  H15G 8751  -2.354   3.943   0.272  0.4677 -0.5313  2.6377
   6723SM  C16F 8752  -2.537   3.933   0.150 -0.2355 -0.0120 -0.4583
   6723SM  H16F 8753  -2.547   4.042   0.165  1.7523  0.4455 -1.9239
   6723SM  H16G 8754  -2.635   3.884   0.169  0.4250 -1.0220  0.4478
   6723SM  C17F 8755  -2.483   3.907   0.009 -1.0667  0.0331  0.3152
   6723SM  H17F 8756  -2.453   3.802   0.031  0.3437  0.7120  1.9559
   6723SM  H17G 8757  -2.396   3.971  -0.016  0.5426 -1.5657  1.4902
   6723SM  C18F 8758  -2.594   3.911  -0.098 -0.3384  0.0170  0.2009
   6723SM  H18F 8759  -2.667   3.838  -0.056 -0.1645  0.0669  0.5914
   6723SM  H18G 8760  -2.550   3.879  -0.196 -0.3524  0.2757  0.1097
   6723SM  C19F 8761  -2.651   4.052  -0.122 -0.0818  0.4695 -0.2633
   6723SM  H19F 8762  -2.557   4.111  -0.128  0.7598 -0.9086 -0.8106
   6723SM  H19G 8763  -2.704   4.075  -0.026 -1.3078  1.2462 -1.0982
   6723SM  C20F 8764  -2.741   4.075  -0.243  0.4890 -0.4043  0.5259
   6723SM  H20F 8765  -2.682   4.065  -0.336  0.9617 -0.6542  0.8494
   6723SM  H20G 8766  -2.775   4.181  -0.251  0.9862 -0.1664  1.4436
   6723SM  C21F 8767  -2.864   3.978  -0.253  0.2820  0.8059  0.2296
   6723SM  H21F 8768  -2.941   3.994  -0.175  1.3811  1.2998  1.2464
   6723SM  H21G 8769  -2.835   3.872  -0.240  0.7787  0.4360 -2.9431
   6723SM  C22F 8770  -2.931   3.990  -0.391 -0.6335  0.0113 -0.6405
   6723SM  H22F 8771  -2.867   3.935  -0.463  0.0151 -0.6781  0.4264
   6723SM  H22G 8772  -2.925   4.099  -0.410 -2.9618  0.6464  1.6310
   6723SM  C23F 8773  -3.076   3.936  -0.391 -0.2569  0.3025  0.4888
   6723SM  H23F 8774  -3.068   3.827  -0.370  2.0387 -0.0290 -1.5766
   6723SM  H23G 8775  -3.133   3.958  -0.483  0.9024 -1.2625 -0.6686
   6723SM  H23H 8776  -3.129   3.986  -0.307 -1.5383 -0.0917 -0.0715
   6823SM     N 8777  -0.314  -1.243   2.502 -0.3701 -0.0562 -0.5033
   6823SM   C15 8778  -0.254  -1.293   2.638 -0.2288 -0.4493  0.9094
   6823SM  H15A 8779  -0.267  -1.399   2.651 -1.0668 -0.4154  0.4479
   6823SM  H15B 8780  -0.299  -1.235   2.717  0.9768 -0.4147  1.5869
   6823SM  H15C 8781  -0.151  -1.260   2.640 -0.6052  0.9341 -0.3035
   6823SM   C14 8782  -0.246  -1.112   2.474  0.1186 -0.2564  0.6030
   6823SM  H14A 8783  -0.286  -1.069   2.383  1.3757 -0.2738  0.0188
   6823SM  H14B 8784  -0.139  -1.124   2.469 -0.1160 -2.5651 -0.3159
   6823SM  H14C 8785  -0.272  -1.038   2.548  0.7801  0.3678  0.2226
   6823SM   C13 8786  -0.283  -1.336   2.394 -0.7481 -0.4494 -0.0996
   6823SM  H13A 8787  -0.177  -1.325   2.376 -0.7057 -0.0935  0.3611
   6823SM  H13B 8788  -0.337  -1.319   2.302 -1.1763  1.3294  0.4389
   6823SM  H13C 8789  -0.293  -1.439   2.425  0.4910 -0.3985  0.5436
   6823SM   C12 8790  -0.464  -1.233   2.517 -0.4726 -0.1881 -0.1265
   6823SM  H12A 8791  -0.506  -1.185   2.430  0.8142 -0.1743 -0.7764
   6823SM  H12B 8792  -0.485  -1.173   2.604  0.6362 -0.4952  0.3813
   6823SM   C11 8793  -0.533  -1.366   2.543  0.1897  0.5253 -0.6198
   6823SM  H11A 8794  -0.622  -1.341   2.604 -0.8375 -1.2907 -1.2913
   6823SM  H11B 8795  -0.466  -1.430   2.605 -2.7221 -2.0070  0.1571
   6823SM     P 8796  -0.549  -1.595   2.413 -0.2466 -0.2883  0.3360
   6823SM   O13 8797  -0.410  -1.635   2.453  0.0800 -0.2697 -0.2752
   6823SM   O14 8798  -0.660  -1.650   2.485  0.1373  0.3088 -0.1107
   6823SM   O11 8799  -0.572  -1.624   2.266 -0.3110  0.1899  0.8086
   6823SM   O12 8800  -0.564  -1.433   2.424  0.0329 -0.0753  0.3862
   6823SM   C1S 8801  -0.552  -1.549   2.150  0.3132  0.5377 -0.8259
   6823SM   H1S 8802  -0.450  -1.506   2.139  0.3390  1.2879  1.6528
   6823SM   H1T 8803  -0.621  -1.462   2.159 -2.6839 -1.8799  2.4724
   6823SM    NF 8804  -0.538  -1.561   1.910  0.6134  0.0547 -0.2452
   6823SM   HNF 8805  -0.615  -1.518   1.863  0.0265  0.1564  0.7955
   6823SM   C2S 8806  -0.566  -1.637   2.032  0.3374  0.2929  0.8669
   6823SM   H2S 8807  -0.491  -1.717   2.046 -0.6630 -1.0469 -1.0089
   6823SM   C3S 8808  -0.700  -1.717   2.021  0.4203 -0.4903 -0.3016
   6823SM   H3S 8809  -0.778  -1.638   2.029  1.0308  0.0802  0.1015
   6823SM    O3 8810  -0.728  -1.807   2.136  0.0851  0.3756  0.4645
   6823SM   HO3 8811  -0.673  -1.765   2.203  0.3770 -0.3475  0.6827
   6823SM   C4S 8812  -0.712  -1.788   1.891 -0.1907 -0.3836 -0.9614
   6823SM   H4S 8813  -0.639  -1.864   1.858  0.8364 -0.1452  0.6719
   6823SM   C5S 8814  -0.826  -1.792   1.818 -0.0895 -0.7947  0.5157
   6823SM   H5S 8815  -0.913  -1.728   1.840 -0.1198 -0.7298  0.2112
   6823SM   C6S 8816  -0.842  -1.873   1.688 -0.3900 -0.8338 -0.6139
   6823SM   H6S 8817  -0.950  -1.898   1.683 -0.2660 -1.3883 -0.5867
   6823SM   H6T 8818  -0.779  -1.964   1.697  0.2337 -0.2495  1.4117
   6823SM   C7S 8819  -0.804  -1.805   1.554 -0.3672 -0.2943 -0.6554
   6823SM   H7S 8820  -0.865  -1.714   1.538 -1.9017 -0.6801  2.2430
   6823SM   H7T 8821  -0.840  -1.882   1.483  0.9593 -2.1267  0.5777
   6823SM   C8S 8822  -0.654  -1.794   1.550  0.3151  0.0195 -0.3830
   6823SM   H8S 8823  -0.604  -1.893   1.550  0.1482 -0.0685 -1.0670
   6823SM   H8T 8824  -0.627  -1.744   1.646 -0.5115 -1.7842  0.8316
   6823SM   C9S 8825  -0.593  -1.712   1.438  0.5030 -0.3302 -0.0320
   6823SM   H9S 8826  -0.485  -1.691   1.454  0.1893  2.0853 -0.6983
   6823SM   H9T 8827  -0.639  -1.611   1.439 -2.4504 -1.5721  0.9775
   6823SM  C10S 8828  -0.617  -1.760   1.296 -0.8247 -0.4026 -0.0947
   6823SM  H10S 8829  -0.727  -1.769   1.283 -0.8275 -0.6377  0.0947
   6823SM  H10T 8830  -0.576  -1.861   1.275 -2.6960 -0.8650 -1.7628
   6823SM  C11S 8831  -0.563  -1.672   1.182  0.3282  0.1010  0.0153
   6823SM  H11S 8832  -0.453  -1.657   1.187  0.2179  0.7906  0.5266
   6823SM  H11T 8833  -0.615  -1.574   1.178 -0.9759 -0.5111  1.1339
   6823SM  C12S 8834  -0.582  -1.744   1.049  0.6003 -0.5223  0.1423
   6823SM  H12S 8835  -0.690  -1.762   1.029 -0.0803  1.0341  1.9690
   6823SM  H12T 8836  -0.524  -1.838   1.048  0.8098 -0.3942  0.2149
   6823SM  C13S 8837  -0.535  -1.649   0.941 -0.3904 -0.2512  0.4798
   6823SM  H13S 8838  -0.434  -1.616   0.974 -0.2481 -0.6410  0.4484
   6823SM  H13T 8839  -0.609  -1.567   0.932 -1.1351 -1.0068 -0.4976
   6823SM  C14S 8840  -0.510  -1.715   0.806 -0.0861  0.3725 -0.5868
   6823SM  H14S 8841  -0.596  -1.783   0.787  0.5156 -0.2205 -1.2771
   6823SM  H14T 8842  -0.422  -1.782   0.812 -0.5950 -0.1829  1.5615
   6823SM  C15S 8843  -0.499  -1.616   0.695  0.5887 -0.0593 -0.1702
   6823SM  H15S 8844  -0.399  -1.572   0.714  0.3554  0.9988 -1.3198
   6823SM  H15T 8845  -0.576  -1.536   0.699  0.9562  0.2456  1.5932
   6823SM  C16S 8846  -0.481  -1.677   0.558 -0.4165 -0.6511 -0.2816
   6823SM  H16S 8847  -0.575  -1.697   0.503  2.5560 -0.3697 -6.2389
   6823SM  H16T 8848  -0.435  -1.777   0.575  1.5985  0.2385 -0.0881
   6823SM  C17S 8849  -0.389  -1.595   0.472 -0.1299 -0.7511 -0.5307
   6823SM  H17S 8850  -0.290  -1.594   0.522  0.1646 -1.2676 -1.0825
   6823SM  H17T 8851  -0.413  -1.488   0.458  1.8499  0.0715  1.7527
   6823SM  C18S 8852  -0.369  -1.661   0.337 -0.1523  0.1105  0.5589
   6823SM  H18S 8853  -0.297  -1.601   0.277  0.1966 -0.8790 -0.0285
   6823SM  H18T 8854  -0.461  -1.678   0.278  1.9222 -0.5938 -2.7571
   6823SM  H18U 8855  -0.330  -1.765   0.344  1.8127  0.6852 -0.8468
   6823SM   C1F 8856  -0.418  -1.517   1.884 -0.0910 -0.3601  0.0135
   6823SM    OF 8857  -0.324  -1.557   1.951 -0.1851 -0.1219  0.4979
   6823SM   C2F 8858  -0.408  -1.403   1.788  0.1453 -0.3353 -0.1203
   6823SM   H2F 8859  -0.319  -1.341   1.811 -0.0063 -0.4874  0.9048
   6823SM   H2G 8860  -0.503  -1.349   1.806  1.4985  2.2315 -0.2359
   6823SM   C3F 8861  -0.396  -1.447   1.645 -0.2107 -0.4550  0.2409
   6823SM   H3F 8862  -0.465  -1.534   1.637 -1.6247  0.6830 -0.5262
   6823SM   H3G 8863  -0.295  -1.489   1.629  1.1670  3.1885 -1.8466
   6823SM   C4F 8864  -0.416  -1.333   1.548 -0.2836  0.4044 -0.4996
   6823SM   H4F 8865  -0.324  -1.272   1.558 -0.4445  0.2880  2.3576
   6823SM   H4G 8866  -0.500  -1.268   1.578 -2.0237 -1.2286 -1.5964
   6823SM   C5F 8867  -0.441  -1.377   1.405  0.4760 -0.0178 -0.2313
   6823SM   H5F 8868  -0.533  -1.438   1.398  1.2669 -1.2287 -0.4200
   6823SM   H5G 8869  -0.364  -1.449   1.372 -0.7074 -0.7855 -1.3674
   6823SM   C6F 8870  -0.447  -1.258   1.305 -0.4711  0.0438 -0.7526
   6823SM   H6F 8871  -0.343  -1.220   1.296 -0.2295 -0.1291  1.0588
   6823SM   H6G 8872  -0.515  -1.183   1.350  0.6835 -0.2433  1.5905
   6823SM   C7F 8873  -0.488  -1.308   1.165  0.1705  1.2543  0.3435
   6823SM   H7F 8874  -0.594  -1.342   1.168  0.6005 -0.2024 -0.1753
   6823SM   H7G 8875  -0.422  -1.393   1.141 -0.4487  0.5551  1.0446
   6823SM   C8F 8876  -0.468  -1.203   1.057 -0.0913 -0.2381  0.1629
   6823SM   H8F 8877  -0.359  -1.179   1.058 -0.1085 -0.0742 -0.9847
   6823SM   H8G 8878  -0.521  -1.108   1.078 -0.7884 -0.3348 -1.0875
   6823SM   C9F 8879  -0.514  -1.249   0.915  0.1238  0.6388  0.4840
   6823SM   H9F 8880  -0.621  -1.279   0.908  0.0273  0.5216  1.9773
   6823SM   H9G 8881  -0.452  -1.338   0.889 -1.1336  0.1557 -0.9966
   6823SM  C10F 8882  -0.487  -1.148   0.803 -0.9227  0.6305  0.5325
   6823SM  H10F 8883  -0.393  -1.092   0.821  0.1033  0.0276 -2.3376
   6823SM  H10G 8884  -0.568  -1.073   0.813 -1.4813  0.4990 -2.2361
   6823SM  C11F 8885  -0.479  -1.201   0.661 -0.0726 -0.1305  0.7564
   6823SM  H11F 8886  -0.576  -1.248   0.632 -1.8587  2.9930  1.1844
   6823SM  H11G 8887  -0.395  -1.272   0.649 -0.7310 -0.7548 -0.3004
   6823SM  C12F 8888  -0.451  -1.078   0.565 -0.1349  0.0078 -0.5424
   6823SM  H12F 8889  -0.360  -1.029   0.605 -0.3577 -0.4809  0.6209
   6823SM  H12G 8890  -0.540  -1.016   0.590  0.0750  0.1564 -0.1498
   6823SM  C13F 8891  -0.460  -1.118   0.420  0.2108  0.3328 -0.9031
   6823SM  H13F 8892  -0.563  -1.155   0.400  0.0430 -1.6399  2.7897
   6823SM  H13G 8893  -0.401  -1.209   0.394 -1.0282 -1.3662  1.7994
   6823SM  C14F 8894  -0.443  -0.996   0.329 -0.8973  0.8306  1.0683
   6823SM  H14F 8895  -0.341  -0.997   0.284 -0.4577 -2.4076  1.8114
   6823SM  H14G 8896  -0.465  -0.896   0.370  1.4772  2.1225 -0.5987
   6823SM  C15F 8897  -0.530  -1.011   0.204  0.0809 -0.7546 -0.5272
   6823SM  H15F 8898  -0.514  -0.918   0.146 -0.8260  1.1934  2.1657
   6823SM  H15G 8899  -0.636  -1.005   0.237 -0.3503  0.3246 -1.9768
   6823SM  C16F 8900  -0.496  -1.138   0.117 -0.3736  0.1938 -0.2074
   6823SM  H16F 8901  -0.542  -1.232   0.156  0.9650 -0.7468 -0.8409
   6823SM  H16G 8902  -0.387  -1.160   0.113 -0.4702 -0.2944 -0.2938
   6823SM  C17F 8903  -0.553  -1.118  -0.020 -0.0542 -0.1448  0.8230
   6823SM  H17F 8904  -0.658  -1.082  -0.011  0.6720  1.7903  1.9401
   6823SM  H17G 8905  -0.559  -1.223  -0.057  1.0593 -1.6831  4.5787
   6823SM  C18F 8906  -0.478  -1.028  -0.113  0.4418  0.0364  0.6446
   6823SM  H18F 8907  -0.375  -1.068  -0.120 -0.0177 -1.1324  0.4711
   6823SM  H18G 8908  -0.470  -0.923  -0.077  3.1551  0.4101 -0.8048
   6823SM  C19F 8909  -0.541  -1.013  -0.256 -0.0566  0.2447 -0.4908
   6823SM  H19F 8910  -0.635  -0.956  -0.240  0.8788  1.3082  1.6294
   6823SM  H19G 8911  -0.569  -1.113  -0.295 -2.0986  0.6339 -0.1531
   6823SM  C20F 8912  -0.446  -0.937  -0.344  0.2259 -0.5061 -0.7671
   6823SM  H20F 8913  -0.461  -0.978  -0.447 -1.4206 -1.2158 -0.2757
   6823SM  H20G 8914  -0.339  -0.962  -0.324  0.2585 -0.4740 -0.8953
   6823SM  C21F 8915  -0.465  -0.784  -0.344 -0.0099  0.0689 -0.0795
   6823SM  H21F 8916  -0.399  -0.747  -0.263 -1.0582 -0.6826  1.1516
   6823SM  H21G 8917  -0.569  -0.766  -0.312  0.0816 -0.2232  0.4014
   6823SM  C22F 8918  -0.433  -0.727  -0.477 -0.1536 -0.2489 -0.3582
   6823SM  H22F 8919  -0.471  -0.622  -0.474 -2.2431 -0.9814  0.6462
   6823SM  H22G 8920  -0.483  -0.770  -0.566  0.6363  1.5967 -1.7705
   6823SM  C23F 8921  -0.278  -0.717  -0.505  0.1137  0.1977 -0.1967
   6823SM  H23F 8922  -0.233  -0.814  -0.472  0.1248  0.3787  0.3430
   6823SM  H23G 8923  -0.219  -0.640  -0.450  2.2467  0.3987 -2.5873
   6823SM  H23H 8924  -0.259  -0.691  -0.611  0.3308 -1.3688 -0.5741
   6923SM     N 8925   0.083  -0.189   2.937 -0.1233  0.8862 -1.8261
   6923SM   C15 8926  -0.033  -0.100   2.926 -0.2063 -0.1916 -0.1298
   6923SM  H15A 8927  -0.051  -0.080   2.821  0.1229  0.2875 -0.1021
   6923SM  H15B 8928  -0.008  -0.009   2.978 -1.0550 -0.1715  0.2495
   6923SM  H15C 8929  -0.125  -0.136   2.968 -0.6228  1.5731  0.5538
   6923SM   C14 8930   0.207  -0.108   2.911 -1.1158 -0.6606  0.2012
   6923SM  H14A 8931   0.215  -0.073   2.810  1.6889 -1.3041  0.1076
   6923SM  H14B 8932   0.296  -0.169   2.924  0.6656  1.8839  0.7877
   6923SM  H14C 8933   0.207  -0.014   2.965 -0.3312  0.6697 -2.0189
   6923SM   C13 8934   0.079  -0.237   3.087  0.0563  0.8417 -0.1529
   6923SM  H13A 8935   0.094  -0.154   3.155 -0.6021  0.7659  0.0865
   6923SM  H13B 8936   0.159  -0.308   3.104  0.1784  1.4676  2.2413
   6923SM  H13C 8937  -0.013  -0.288   3.112  0.9353 -0.6284  0.2315
   6923SM   C12 8938   0.061  -0.303   2.849 -0.2417 -0.3343  0.9320
   6923SM  H12A 8939  -0.036  -0.341   2.879  0.3820  0.3869  4.2648
   6923SM  H12B 8940   0.142  -0.372   2.864 -0.5524 -1.3217 -1.4482
   6923SM   C11 8941   0.072  -0.272   2.700  0.4060 -1.0250  0.1465
   6923SM  H11A 8942   0.001  -0.192   2.670  0.9477 -0.9521 -1.0131
   6923SM  H11B 8943   0.045  -0.353   2.629  2.9020 -1.0542 -0.8631
   6923SM     P 8944   0.321  -0.312   2.615  0.0030 -0.4152 -0.2072
   6923SM   O13 8945   0.446  -0.271   2.678  0.3829 -0.2040  0.6560
   6923SM   O14 8946   0.290  -0.453   2.621  0.6370 -0.1819  0.1043
   6923SM   O11 8947   0.332  -0.262   2.467  0.9865  0.3135 -0.3801
   6923SM   O12 8948   0.201  -0.226   2.663  0.5025 -0.3044 -0.8863
   6923SM   C1S 8949   0.224  -0.287   2.380 -0.1661 -0.6807  0.3279
   6923SM   H1S 8950   0.144  -0.210   2.379 -0.5826 -1.1017 -0.7435
   6923SM   H1T 8951   0.185  -0.389   2.400  0.5210 -0.7643  1.3293
   6923SM    NF 8952   0.160  -0.313   2.138  0.0390 -0.1872  0.1289
   6923SM   HNF 8953   0.136  -0.410   2.130  0.1500 -0.0716 -2.4657
   6923SM   C2S 8954   0.265  -0.293   2.230  0.3955  0.0940 -0.4670
   6923SM   H2S 8955   0.308  -0.194   2.203  0.9145 -0.0150 -0.0451
   6923SM   C3S 8956   0.377  -0.402   2.219  0.0328 -0.2821  0.2012
   6923SM   H3S 8957   0.351  -0.504   2.255  0.0277  0.4997  2.6115
   6923SM    O3 8958   0.487  -0.359   2.299 -0.0768 -0.5379 -0.1114
   6923SM   HO3 8959   0.437  -0.309   2.365  0.0909 -0.5706  0.0396
   6923SM   C4S 8960   0.432  -0.397   2.081  0.5948 -0.3235  0.4423
   6923SM   H4S 8961   0.473  -0.301   2.045  0.8842 -1.1560 -1.5563
   6923SM   C5S 8962   0.430  -0.487   1.982  0.6436 -0.3450  0.5281
   6923SM   H5S 8963   0.377  -0.582   1.996 -0.3089  0.3798  2.1257
   6923SM   C6S 8964   0.482  -0.469   1.843  0.1115  0.5403 -0.6571
   6923SM   H6S 8965   0.513  -0.366   1.812 -0.8405  0.3579 -2.3330
   6923SM   H6T 8966   0.404  -0.499   1.770  2.8698 -1.2484 -3.1032
   6923SM   C7S 8967   0.607  -0.565   1.823  0.2883 -0.0472  0.3319
   6923SM   H7S 8968   0.577  -0.656   1.877 -1.8267 -0.2129 -1.0022
   6923SM   H7T 8969   0.690  -0.514   1.876 -1.1176 -0.5316  3.2265
   6923SM   C8S 8970   0.640  -0.591   1.679  0.1735  0.2871  0.7123
   6923SM   H8S 8971   0.745  -0.628   1.676  0.0445 -0.0284 -0.2884
   6923SM   H8T 8972   0.634  -0.497   1.620  1.4593 -0.2112 -0.2381
   6923SM   C9S 8973   0.542  -0.690   1.606 -0.6476 -0.1410 -1.0076
   6923SM   H9S 8974   0.441  -0.650   1.630 -0.2110 -0.4515  1.6087
   6923SM   H9T 8975   0.546  -0.789   1.655  0.3211  0.4661  0.1709
   6923SM  C10S 8976   0.560  -0.690   1.457  0.8072  0.1681 -0.7896
   6923SM  H10S 8977   0.645  -0.755   1.427  2.0163  1.0846  0.4646
   6923SM  H10T 8978   0.574  -0.587   1.417 -1.0065  0.9471  0.4528
   6923SM  C11S 8979   0.429  -0.736   1.378  0.8919  0.2908  0.3779
   6923SM  H11S 8980   0.347  -0.664   1.395  0.6565  1.0231 -3.0362
   6923SM  H11T 8981   0.407  -0.841   1.405  0.7987 -1.2494 -4.6958
   6923SM  C12S 8982   0.452  -0.740   1.227 -0.0061  0.3923  0.1488
   6923SM  H12S 8983   0.540  -0.803   1.202 -1.3144 -0.9665 -1.2794
   6923SM  H12T 8984   0.480  -0.637   1.197 -0.4647  0.2256 -0.8931
   6923SM  C13S 8985   0.331  -0.787   1.147  0.2350 -0.1142  0.1781
   6923SM  H13S 8986   0.246  -0.719   1.171  2.6370  2.5461  1.8875
   6923SM  H13T 8987   0.305  -0.893   1.167 -0.0544  0.2888  2.2201
   6923SM  C14S 8988   0.342  -0.777   0.991 -0.4337  0.0171 -0.6268
   6923SM  H14S 8989   0.316  -0.678   0.949  0.4521  0.4589 -0.1765
   6923SM  H14T 8990   0.261  -0.838   0.947 -0.9365 -0.1767  0.5203
   6923SM  C15S 8991   0.471  -0.841   0.945  0.2253 -0.0774 -0.1642
   6923SM  H15S 8992   0.495  -0.929   1.008 -0.7382 -1.2265 -1.3436
   6923SM  H15T 8993   0.543  -0.757   0.958 -0.1698  0.1698  0.4699
   6923SM  C16S 8994   0.466  -0.879   0.796  0.4742 -0.0150 -0.5046
   6923SM  H16S 8995   0.379  -0.944   0.773  0.6787 -0.1635 -0.8648
   6923SM  H16T 8996   0.560  -0.924   0.758  0.3187  0.7492 -1.8801
   6923SM  C17S 8997   0.438  -0.755   0.709  0.0700 -0.0352  0.5669
   6923SM  H17S 8998   0.508  -0.671   0.732  0.5817 -0.7630  1.7482
   6923SM  H17T 8999   0.335  -0.724   0.737 -0.0370  0.1672 -0.0286
   6923SM  C18S 9000   0.449  -0.785   0.562 -0.2925 -0.1664 -0.2599
   6923SM  H18S 9001   0.389  -0.712   0.503  0.3975  1.2626  0.7392
   6923SM  H18T 9002   0.417  -0.891   0.551 -0.0765 -0.2075 -0.4958
   6923SM  H18U 9003   0.550  -0.801   0.518 -0.7647 -3.2930 -0.4197
   6923SM   C1F 9004   0.061  -0.230   2.108 -0.3216 -0.3400 -0.3471
   6923SM    OF 9005   0.071  -0.115   2.136 -0.0451 -0.2219 -0.6466
   6923SM   C2F 9006  -0.067  -0.288   2.055  0.2395  0.0116 -0.3995
   6923SM   H2F 9007  -0.144  -0.208   2.061  1.3579  1.2270 -1.4258
   6923SM   H2G 9008  -0.107  -0.382   2.098 -0.3700  0.7545  0.6788
   6923SM   C3F 9009  -0.039  -0.329   1.907  0.0293  0.3088 -0.1315
   6923SM   H3F 9010  -0.125  -0.382   1.861  0.7946  0.6446 -2.0467
   6923SM   H3G 9011   0.040  -0.408   1.910 -1.9383 -1.7605 -0.1572
   6923SM   C4F 9012   0.004  -0.209   1.822  0.2791 -0.1219  0.4993
   6923SM   H4F 9013   0.077  -0.247   1.747 -1.0703 -0.4533 -0.6829
   6923SM   H4G 9014   0.061  -0.128   1.873  0.6285  0.6774 -1.1028
   6923SM   C5F 9015  -0.111  -0.147   1.755  0.3621  0.3262 -0.3336
   6923SM   H5F 9016  -0.182  -0.105   1.829  1.1944 -0.3337  0.8667
   6923SM   H5G 9017  -0.172  -0.219   1.696  1.2924  0.7614 -1.8697
   6923SM   C6F 9018  -0.082  -0.051   1.642  0.2162  0.1954 -0.6182
   6923SM   H6F 9019  -0.001  -0.087   1.574  0.4004 -0.4250 -0.0743
   6923SM   H6G 9020  -0.039   0.041   1.687 -1.1263  0.1810  0.7674
   6923SM   C7F 9021  -0.217  -0.007   1.569  0.1942 -0.0060 -0.0481
   6923SM   H7F 9022  -0.201   0.101   1.549 -1.9184  0.3132 -0.2622
   6923SM   H7G 9023  -0.296  -0.010   1.648 -0.3453  0.8226 -0.5371
   6923SM   C8F 9024  -0.250  -0.081   1.447 -0.0939 -0.0620  0.4097
   6923SM   H8F 9025  -0.358  -0.073   1.423  0.3399  3.5276 -0.8556
   6923SM   H8G 9026  -0.234  -0.191   1.457 -2.5354 -0.8970 -3.0869
   6923SM   C9F 9027  -0.169  -0.030   1.322  0.2881  0.2996 -0.1273
   6923SM   H9F 9028  -0.069  -0.023   1.370 -1.1366  0.2277  3.0980
   6923SM   H9G 9029  -0.202   0.074   1.304 -0.0791 -0.0848 -1.8085
   6923SM  C10F 9030  -0.167  -0.125   1.201  0.6882 -0.0011 -0.2858
   6923SM  H10F 9031  -0.263  -0.177   1.183  0.4406  0.7333 -1.1804
   6923SM  H10G 9032  -0.088  -0.200   1.222 -0.1486 -0.9475 -0.4273
   6923SM  C11F 9033  -0.140  -0.056   1.069  0.3379  0.0311 -0.5103
   6923SM  H11F 9034  -0.057   0.017   1.077  1.5553 -1.4060  0.4217
   6923SM  H11G 9035  -0.232  -0.000   1.043 -0.0571  0.5908  1.8235
   6923SM  C12F 9036  -0.114  -0.158   0.954 -0.0710 -0.3102 -0.0464
   6923SM  H12F 9037  -0.195  -0.234   0.954  0.2200 -0.6242 -0.9538
   6923SM  H12G 9038  -0.018  -0.210   0.971 -0.8251 -1.3018  1.3271
   6923SM  C13F 9039  -0.100  -0.100   0.810 -0.4222 -0.9364 -0.2395
   6923SM  H13F 9040  -0.043  -0.166   0.742  2.0872  1.2697 -0.4069
   6923SM  H13G 9041  -0.038  -0.008   0.813  0.7947 -1.7659  1.0328
   6923SM  C14F 9042  -0.237  -0.067   0.754  1.4594 -0.2879  0.7408
   6923SM  H14F 9043  -0.272   0.029   0.797  0.7223 -0.1834 -0.0506
   6923SM  H14G 9044  -0.313  -0.145   0.777 -0.5087  1.9008  1.9937
   6923SM  C15F 9045  -0.225  -0.035   0.607  0.2816 -0.0394  0.1890
   6923SM  H15F 9046  -0.147   0.040   0.582  1.5666 -1.2209  0.5394
   6923SM  H15G 9047  -0.323  -0.011   0.560 -0.1113  0.1925  1.0951
   6923SM  C16F 9048  -0.181  -0.153   0.519 -0.1722 -0.8756 -0.1074
   6923SM  H16F 9049  -0.243  -0.241   0.545 -2.8201  0.5896 -1.0802
   6923SM  H16G 9050  -0.078  -0.184   0.545  0.0294  0.8139  1.3348
   6923SM  C17F 9051  -0.162  -0.121   0.367  0.2772  0.0629  0.6415
   6923SM  H17F 9052  -0.104  -0.206   0.326 -0.8446  0.5152 -2.0806
   6923SM  H17G 9053  -0.105  -0.026   0.360  1.0380 -0.5188 -1.9683
   6923SM  C18F 9054  -0.299  -0.103   0.294  0.0958  0.4383 -0.0252
   6923SM  H18F 9055  -0.347  -0.019   0.348  1.9173  1.1387  0.5734
   6923SM  H18G 9056  -0.349  -0.201   0.310  1.1357 -0.1839 -0.4572
   6923SM  C19F 9057  -0.285  -0.087   0.144 -0.1455  0.6143  0.2742
   6923SM  H19F 9058  -0.261  -0.190   0.110  0.6789  0.0877  2.3127
   6923SM  H19G 9059  -0.195  -0.031   0.113 -1.3199  1.5952 -1.4986
   6923SM  C20F 9060  -0.418  -0.049   0.079  0.3224 -0.1445 -0.0101
   6923SM  H20F 9061  -0.496  -0.094   0.145  0.5854  0.7414  0.9295
   6923SM  H20G 9062  -0.424  -0.099  -0.020 -0.0108 -0.9550  0.4077
   6923SM  C21F 9063  -0.450   0.102   0.069 -0.7901  0.2941 -0.2200
   6923SM  H21F 9064  -0.365   0.156   0.022  0.6747 -1.8521 -0.2158
   6923SM  H21G 9065  -0.478   0.145   0.167  0.0989  0.7614 -0.1648
   6923SM  C22F 9066  -0.572   0.116  -0.026 -0.0816 -0.1235 -0.3511
   6923SM  H22F 9067  -0.660   0.068   0.022  0.5245 -2.0836 -1.1050
   6923SM  H22G 9068  -0.548   0.068  -0.123  1.6622  1.4905 -0.7733
   6923SM  C23F 9069  -0.602   0.261  -0.055  0.0073 -0.7949  0.1607
   6923SM  H23F 9070  -0.616   0.325   0.034 -1.6879  0.9859 -1.3030
   6923SM  H23G 9071  -0.696   0.267  -0.114  0.2449 -0.5499 -0.1954
   6923SM  H23H 9072  -0.516   0.313  -0.102  2.6173 -3.6582  1.4372
   7023SM     N 9073   0.254  -1.724   2.357  0.0468 -0.5646 -0.4802
   7023SM   C15 9074   0.123  -1.676   2.327  0.4005 -0.3349  0.0632
   7023SM  H15A 9075   0.115  -1.651   2.223 -1.8214 -0.6746  0.1003
   7023SM  H15B 9076   0.103  -1.579   2.370 -1.5836 -0.8596  0.4406
   7023SM  H15C 9077   0.047  -1.751   2.341 -0.4284  0.4872  0.0404
   7023SM   C14 9078   0.263  -1.750   2.502  0.5696  0.1802 -0.2918
   7023SM  H14A 9079   0.352  -1.799   2.539  0.7507  0.8814  0.2132
   7023SM  H14B 9080   0.182  -1.813   2.536 -0.7582  1.4764 -0.9450
   7023SM  H14C 9081   0.252  -1.661   2.562  0.0493 -1.4494  2.1837
   7023SM   C13 9082   0.278  -1.850   2.282 -0.3983  0.4123 -0.5690
   7023SM  H13A 9083   0.207  -1.924   2.315 -0.2059  0.9911  1.2819
   7023SM  H13B 9084   0.376  -1.882   2.316 -1.0948 -0.3082  0.8474
   7023SM  H13C 9085   0.271  -1.827   2.177 -1.2788 -1.7443 -1.0308
   7023SM   C12 9086   0.359  -1.621   2.324 -0.3740 -0.0029  0.2609
   7023SM  H12A 9087   0.452  -1.641   2.375  0.9574  3.6874 -0.4269
   7023SM  H12B 9088   0.325  -1.525   2.360  1.1428  0.7399 -0.1750
   7023SM   C11 9089   0.403  -1.591   2.175  0.4941 -0.3989  0.4302
   7023SM  H11A 9090   0.449  -1.682   2.131  0.6754  0.4081 -1.1498
   7023SM  H11B 9091   0.473  -1.505   2.167  2.1049 -1.6741  0.2622
   7023SM     P 9092   0.200  -1.438   2.094 -0.3922 -0.1526  0.4752
   7023SM   O13 9093   0.061  -1.475   2.088 -0.4362  0.2430 -0.6611
   7023SM   O14 9094   0.236  -1.363   2.214 -0.0449  0.4653  0.2918
   7023SM   O11 9095   0.247  -1.359   1.968 -0.1379 -0.4258 -0.2847
   7023SM   O12 9096   0.289  -1.565   2.090 -0.1085 -0.6992  0.0871
   7023SM   C1S 9097   0.374  -1.295   1.967 -0.1922 -0.1936 -0.1049
   7023SM   H1S 9098   0.448  -1.342   2.034 -1.4718 -0.6649  1.0171
   7023SM   H1T 9099   0.367  -1.187   1.992 -0.3123 -0.3917  0.7455
   7023SM    NF 9100   0.591  -1.268   1.830 -1.0596  0.4298  0.5134
   7023SM   HNF 9101   0.624  -1.181   1.795  0.7910  0.0078  1.0797
   7023SM   C2S 9102   0.449  -1.305   1.824 -0.1475 -0.1246 -0.8908
   7023SM   H2S 9103   0.457  -1.412   1.797  0.7935 -0.6084  1.1350
   7023SM   C3S 9104   0.366  -1.228   1.727  0.5991 -0.0006  0.6959
   7023SM   H3S 9105   0.365  -1.125   1.769 -0.1848  0.2543  0.0528
   7023SM    O3 9106   0.232  -1.273   1.711 -0.2558 -0.9260 -0.1171
   7023SM   HO3 9107   0.214  -1.329   1.787  0.2038  2.6856  2.9659
   7023SM   C4S 9108   0.424  -1.243   1.595  0.1111 -0.1337  0.4749
   7023SM   H4S 9109   0.426  -1.349   1.568  0.1226  0.3639 -1.5985
   7023SM   C5S 9110   0.467  -1.142   1.512  0.1877  0.9767  0.0806
   7023SM   H5S 9111   0.454  -1.038   1.546 -1.8350  0.7619  0.0676
   7023SM   C6S 9112   0.513  -1.154   1.366  0.1925 -0.3657 -0.0782
   7023SM   H6S 9113   0.604  -1.091   1.355  0.1867 -0.6034 -1.6729
   7023SM   H6T 9114   0.442  -1.109   1.293  2.3344  2.7168 -0.4526
   7023SM   C7S 9115   0.527  -1.298   1.320  0.2685 -0.7266 -1.1245
   7023SM   H7S 9116   0.434  -1.358   1.310 -1.3340  1.1191  1.5973
   7023SM   H7T 9117   0.584  -1.361   1.391 -0.1241 -2.0761 -1.9753
   7023SM   C8S 9118   0.611  -1.317   1.196 -0.5476  0.3252 -0.1608
   7023SM   H8S 9119   0.627  -1.426   1.190  2.7599  0.6230  1.1710
   7023SM   H8T 9120   0.714  -1.274   1.203 -1.2514  2.1354 -0.3481
   7023SM   C9S 9121   0.533  -1.254   1.078 -0.2060 -0.0738  0.1024
   7023SM   H9S 9122   0.549  -1.144   1.080 -0.0868 -0.0933  1.0574
   7023SM   H9T 9123   0.424  -1.276   1.087 -0.1221 -0.9663 -0.9186
   7023SM  C10S 9124   0.584  -1.316   0.944 -0.2357 -0.4789  0.4543
   7023SM  H10S 9125   0.584  -1.426   0.933 -0.4579 -0.4241 -0.1203
   7023SM  H10T 9126   0.691  -1.291   0.928 -0.9375  1.3774 -1.7866
   7023SM  C11S 9127   0.512  -1.252   0.824  0.2122  0.7404 -0.4347
   7023SM  H11S 9128   0.518  -1.141   0.825  3.6440  0.6809 -1.8390
   7023SM  H11T 9129   0.404  -1.278   0.820  0.7414 -1.8563  0.4199
   7023SM  C12S 9130   0.569  -1.297   0.689 -0.0558  0.8129  0.0399
   7023SM  H12S 9131   0.572  -1.408   0.682  2.4282  0.7060  1.6705
   7023SM  H12T 9132   0.676  -1.268   0.690 -0.1015  0.9921  1.5971
   7023SM  C13S 9133   0.496  -1.240   0.575 -0.3775  0.0728 -0.1949
   7023SM  H13S 9134   0.505  -1.130   0.576  0.9557 -0.0149  0.1833
   7023SM  H13T 9135   0.391  -1.274   0.588 -0.1339  0.2944  3.5824
   7023SM  C14S 9136   0.561  -1.286   0.443 -0.2103 -0.6382  0.4432
   7023SM  H14S 9137   0.575  -1.396   0.443  0.8428 -0.5228 -0.4518
   7023SM  H14T 9138   0.664  -1.249   0.421 -1.6287  3.2170 -0.5851
   7023SM  C15S 9139   0.461  -1.254   0.324  0.1452 -0.8026  0.4947
   7023SM  H15S 9140   0.379  -1.326   0.348 -0.2201 -0.3763  0.5247
   7023SM  H15T 9141   0.495  -1.263   0.218 -0.3110  0.1525  0.2625
   7023SM  C16S 9142   0.403  -1.112   0.335  0.1711 -0.5429  0.8242
   7023SM  H16S 9143   0.493  -1.051   0.356  0.4784 -0.6813 -0.0337
   7023SM  H16T 9144   0.328  -1.108   0.417 -2.2622  0.8097 -1.2850
   7023SM  C17S 9145   0.348  -1.054   0.200  0.0024 -0.4137  0.1063
   7023SM  H17S 9146   0.272  -1.120   0.151 -0.0484 -0.2756  0.0002
   7023SM  H17T 9147   0.438  -1.050   0.135  0.7665  1.7967  1.2145
   7023SM  C18S 9148   0.291  -0.913   0.217  0.1858 -0.0277  0.1225
   7023SM  H18S 9149   0.246  -0.883   0.120 -0.4749  0.8141  0.6747
   7023SM  H18T 9150   0.370  -0.841   0.250 -0.3617  0.3872  0.5390
   7023SM  H18U 9151   0.213  -0.910   0.295  1.0481 -2.0261  1.1311
   7023SM   C1F 9152   0.689  -1.342   1.881  0.1653 -0.3591 -0.6191
   7023SM    OF 9153   0.673  -1.449   1.934 -0.0610 -0.1623 -0.3487
   7023SM   C2F 9154   0.822  -1.285   1.867  1.0063 -0.7472 -0.5572
   7023SM   H2F 9155   0.859  -1.302   1.971 -3.0202  1.2816  1.4174
   7023SM   H2G 9156   0.814  -1.175   1.855 -2.2056 -0.3260  3.3974
   7023SM   C3F 9157   0.908  -1.354   1.759  0.0752  0.3470  0.2355
   7023SM   H3F 9158   0.910  -1.463   1.778  2.7914  0.1494 -0.7178
   7023SM   H3G 9159   1.018  -1.339   1.766  0.6408 -2.7243 -0.5686
   7023SM   C4F 9160   0.869  -1.335   1.610  0.1157 -0.3966 -0.7542
   7023SM   H4F 9161   0.873  -1.226   1.588  0.3742 -0.0274  1.0305
   7023SM   H4G 9162   0.764  -1.371   1.595 -0.1176 -1.9260  3.3499
   7023SM   C5F 9163   0.967  -1.417   1.528  0.1067  0.3327 -0.4234
   7023SM   H5F 9164   0.962  -1.524   1.556 -2.6621  0.2788 -0.7897
   7023SM   H5G 9165   1.070  -1.379   1.544 -0.0312  0.9707 -1.0057
   7023SM   C6F 9166   0.924  -1.398   1.382  1.0733  0.0602  0.4608
   7023SM   H6F 9167   0.919  -1.290   1.356  1.6192 -0.4094 -1.8879
   7023SM   H6G 9168   0.821  -1.438   1.370  1.2444 -0.2161 -0.1261
   7023SM   C7F 9169   1.009  -1.469   1.279  1.0712  0.7927 -0.2917
   7023SM   H7F 9170   1.017  -1.579   1.295  0.7327  0.5581 -1.6041
   7023SM   H7G 9171   1.113  -1.431   1.271  1.6996 -0.6362  0.5716
   7023SM   C8F 9172   0.952  -1.455   1.135  0.4670 -0.0595 -0.3174
   7023SM   H8F 9173   0.933  -1.346   1.123 -0.5820 -0.1165  0.7412
   7023SM   H8G 9174   0.857  -1.512   1.137 -0.1611  0.9816 -0.1638
   7023SM   C9F 9175   1.042  -1.507   1.024  0.1861  0.2588  0.0449
   7023SM   H9F 9176   1.064  -1.614   1.045  0.1334  0.2522  0.0639
   7023SM   H9G 9177   1.137  -1.449   1.025 -1.1325  2.5338  1.8532
   7023SM  C10F 9178   0.975  -1.502   0.884  0.1510 -0.2286 -0.0645
   7023SM  H10F 9179   0.955  -1.394   0.870 -0.5655 -0.5711 -2.1577
   7023SM  H10G 9180   0.871  -1.540   0.897 -0.6182  2.4066  2.6223
   7023SM  C11F 9181   1.051  -1.561   0.764  0.3125  0.2106  1.0164
   7023SM  H11F 9182   1.079  -1.667   0.780  3.2485  0.9239  1.2380
   7023SM  H11G 9183   1.145  -1.503   0.747  0.6182  0.2108  2.5238
   7023SM  C12F 9184   0.971  -1.554   0.640  0.3316  0.0745  0.6157
   7023SM  H12F 9185   0.899  -1.470   0.647 -2.6831 -2.3046  0.1299
   7023SM  H12G 9186   0.896  -1.636   0.634 -1.0486  1.2055  1.8527
   7023SM  C13F 9187   1.039  -1.536   0.505 -0.7001 -0.5136  0.4338
   7023SM  H13F 9188   1.109  -1.619   0.484 -0.1942 -0.4189  1.6537
   7023SM  H13G 9189   1.101  -1.444   0.514 -1.0887 -0.1641 -0.3980
   7023SM  C14F 9190   0.949  -1.523   0.390  0.8193  0.2239 -0.3605
   7023SM  H14F 9191   0.911  -1.418   0.394  0.4086  0.1425 -1.7767
   7023SM  H14G 9192   0.865  -1.595   0.399  0.2396  0.8926 -0.3557
   7023SM  C15F 9193   1.015  -1.540   0.255  0.2730  0.1135 -0.5205
   7023SM  H15F 9194   1.067  -1.638   0.253 -0.2974 -0.2244  0.4964
   7023SM  H15G 9195   1.091  -1.460   0.248 -0.9912  1.3700 -0.3337
   7023SM  C16F 9196   0.927  -1.534   0.126  0.3816  0.3366 -0.8597
   7023SM  H16F 9197   0.853  -1.453   0.142  0.0236  0.0527 -1.0698
   7023SM  H16G 9198   0.866  -1.625   0.104 -2.5222  2.5263 -2.4996
   7023SM  C17F 9199   1.013  -1.515  -0.007 -0.0913  0.4422 -0.5725
   7023SM  H17F 9200   0.949  -1.513  -0.098 -1.9225 -0.0640  0.6413
   7023SM  H17G 9201   1.086  -1.598  -0.009  2.6412  2.4877  2.7296
   7023SM  C18F 9202   1.110  -1.392  -0.014 -0.1376  0.7767  0.3953
   7023SM  H18F 9203   1.154  -1.379  -0.116 -0.0260  1.9121  0.5824
   7023SM  H18G 9204   1.194  -1.417   0.055 -1.3330 -2.9980  0.6985
   7023SM  C19F 9205   1.036  -1.262   0.021 -0.7459  0.3518 -0.3476
   7023SM  H19F 9206   1.109  -1.179   0.031 -1.3541  1.1217 -1.9097
   7023SM  H19G 9207   0.982  -1.270   0.117 -0.9849  0.7214 -0.4502
   7023SM  C20F 9208   0.942  -1.198  -0.087  0.3604 -0.0939 -0.6913
   7023SM  H20F 9209   0.882  -1.116  -0.041  0.0076  0.6369 -2.3893
   7023SM  H20G 9210   0.872  -1.283  -0.102 -0.0500  0.2506 -0.7557
   7023SM  C21F 9211   1.008  -1.142  -0.211  0.0035 -0.0652 -0.1545
   7023SM  H21F 9212   1.033  -1.224  -0.282  1.1389  0.9970 -1.0353
   7023SM  H21G 9213   1.097  -1.088  -0.172 -0.3834 -0.2525  1.0031
   7023SM  C22F 9214   0.909  -1.057  -0.305 -0.5655  0.1659 -0.1462
   7023SM  H22F 9215   0.829  -1.130  -0.328 -2.0642  1.7654 -0.1505
   7023SM  H22G 9216   0.975  -1.043  -0.393 -0.5030 -2.8005 -0.6682
   7023SM  C23F 9217   0.860  -0.919  -0.250 -0.3118 -0.2326  0.1924
   7023SM  H23F 9218   0.783  -0.931  -0.170 -0.8894  0.6447 -0.2107
   7023SM  H23G 9219   0.812  -0.856  -0.329 -0.5450 -0.1615  0.3866
   7023SM  H23H 9220   0.940  -0.862  -0.197 -0.7624 -0.3653  1.0366
   7123SM     N 9221  -0.616  -1.912   2.733  0.1854  0.1469  0.3743
   7123SM   C15 9222  -0.524  -2.016   2.791  0.0120 -0.3342  0.5192
   7123SM  H15A 9223  -0.584  -2.097   2.831 -1.0835  0.0519 -0.2695
   7123SM  H15B 9224  -0.455  -1.973   2.861  0.2054 -1.4323  1.0274
   7123SM  H15C 9225  -0.463  -2.061   2.714  1.3175  1.2221  0.6034
   7123SM   C14 9226  -0.731  -1.906   2.822 -0.2347 -0.1669 -0.8727
   7123SM  H14A 9227  -0.704  -1.902   2.926  2.6948 -0.6590 -1.5055
   7123SM  H14B 9228  -0.790  -1.995   2.807 -0.1256 -0.2978 -0.5257
   7123SM  H14C 9229  -0.786  -1.816   2.797  0.5356  0.3959 -0.5845
   7123SM   C13 9230  -0.546  -1.785   2.736 -0.5351 -0.5477 -0.7342
   7123SM  H13A 9231  -0.585  -1.722   2.658 -0.3723 -1.3695 -1.4956
   7123SM  H13B 9232  -0.441  -1.789   2.711 -0.2882  3.0425 -0.7433
   7123SM  H13C 9233  -0.554  -1.743   2.836 -0.6828  0.5217 -1.1790
   7123SM   C12 9234  -0.678  -1.941   2.591 -0.5961  0.2235 -0.1761
   7123SM  H12A 9235  -0.751  -1.867   2.564 -1.4915 -1.4403 -2.7098
   7123SM  H12B 9236  -0.732  -2.034   2.603 -0.1414 -0.2075 -1.3158
   7123SM   C11 9237  -0.573  -1.972   2.480 -0.6375 -0.3988 -0.0441
   7123SM  H11A 9238  -0.503  -1.886   2.472 -0.5103 -0.1637  2.5954
   7123SM  H11B 9239  -0.632  -1.989   2.387 -2.6408 -0.3533  1.1462
   7123SM     P 9240  -0.514  -2.216   2.420 -0.3371  0.3045  0.3788
   7123SM   O13 9241  -0.400  -2.309   2.432  0.1966  0.3630 -0.3495
   7123SM   O14 9242  -0.647  -2.265   2.451 -0.4517  0.2233 -0.2583
   7123SM   O11 9243  -0.498  -2.157   2.277 -0.1955 -0.1692  1.0911
   7123SM   O12 9244  -0.492  -2.088   2.511 -0.9907  0.2662  0.2800
   7123SM   C1S 9245  -0.393  -2.076   2.231 -0.2122  0.2437 -0.5696
   7123SM   H1S 9246  -0.306  -2.074   2.300 -1.7222 -1.5094  1.5058
   7123SM   H1T 9247  -0.425  -1.970   2.222 -0.6096  0.2176  0.4839
   7123SM    NF 9248  -0.217  -2.048   2.052  0.5854  0.0660  0.9910
   7123SM   HNF 9249  -0.221  -1.954   2.017  0.0582 -0.5052 -0.5690
   7123SM   C2S 9250  -0.342  -2.123   2.091  0.1904 -0.0637  0.1930
   7123SM   H2S 9251  -0.323  -2.232   2.091  1.1112  0.0876  0.4878
   7123SM   C3S 9252  -0.466  -2.092   1.997  0.5029  0.3305 -0.9996
   7123SM   H3S 9253  -0.481  -1.985   2.024  1.2389 -0.1240  1.4392
   7123SM    O3 9254  -0.586  -2.150   2.034 -0.7073  0.2220 -0.0917
   7123SM   HO3 9255  -0.569  -2.181   2.124 -4.8263 -2.2424  0.1259
   7123SM   C4S 9256  -0.435  -2.110   1.850 -0.0278  0.5655  0.4022
   7123SM   H4S 9257  -0.400  -2.014   1.807 -0.0368  0.7214  0.7388
   7123SM   C5S 9258  -0.436  -2.223   1.775  0.6280  0.2109  0.2157
   7123SM   H5S 9259  -0.469  -2.319   1.818 -3.1677  1.0447 -0.4707
   7123SM   C6S 9260  -0.400  -2.238   1.625  0.8250  0.2745 -0.4070
   7123SM   H6S 9261  -0.476  -2.297   1.570  0.3838 -0.5091  0.9872
   7123SM   H6T 9262  -0.308  -2.300   1.629  0.0600 -1.1323 -2.6657
   7123SM   C7S 9263  -0.359  -2.120   1.533  0.2332  0.4754 -0.8203
   7123SM   H7S 9264  -0.252  -2.096   1.551  0.4330  0.0884 -1.4911
   7123SM   H7T 9265  -0.418  -2.031   1.564 -0.2832  0.2353 -1.1072
   7123SM   C8S 9266  -0.379  -2.151   1.384 -0.6127 -0.0992  0.5320
   7123SM   H8S 9267  -0.355  -2.059   1.326  0.7449 -1.1682 -0.6696
   7123SM   H8T 9268  -0.482  -2.171   1.347 -0.6736 -0.9192  1.1162
   7123SM   C9S 9269  -0.289  -2.260   1.337 -0.7213  0.1116 -0.0395
   7123SM   H9S 9270  -0.297  -2.349   1.402  1.0127  0.4066  0.6281
   7123SM   H9T 9271  -0.183  -2.230   1.352 -0.4192 -0.3989 -1.0391
   7123SM  C10S 9272  -0.307  -2.298   1.194 -0.8867  0.4758  0.3879
   7123SM  H10S 9273  -0.406  -2.345   1.179  0.2446 -1.6724 -0.7779
   7123SM  H10T 9274  -0.226  -2.367   1.161 -0.3691  1.3838 -0.3000
   7123SM  C11S 9275  -0.288  -2.180   1.095  0.3880  0.1339  0.6061
   7123SM  H11S 9276  -0.183  -2.145   1.107  0.3947  0.4747 -0.3726
   7123SM  H11T 9277  -0.354  -2.094   1.118  0.8079  1.0145 -1.3018
   7123SM  C12S 9278  -0.311  -2.219   0.951  0.1840 -1.0179 -0.0777
   7123SM  H12S 9279  -0.416  -2.255   0.940 -0.0819 -0.2639 -0.0648
   7123SM  H12T 9280  -0.237  -2.293   0.914 -1.2766 -2.6205  0.0604
   7123SM  C13S 9281  -0.315  -2.097   0.856 -0.3026 -0.1578  0.2855
   7123SM  H13S 9282  -0.215  -2.050   0.862 -0.6702  0.7318 -0.4395
   7123SM  H13T 9283  -0.386  -2.019   0.890 -0.6214  0.0118 -0.7394
   7123SM  C14S 9284  -0.340  -2.135   0.710 -0.2196 -0.1087  0.5274
   7123SM  H14S 9285  -0.382  -2.042   0.666  0.8333 -0.7134 -1.9163
   7123SM  H14T 9286  -0.416  -2.214   0.694 -0.3305 -0.2722  1.7423
   7123SM  C15S 9287  -0.218  -2.166   0.626 -1.0167 -0.0707  0.2882
   7123SM  H15S 9288  -0.163  -2.245   0.681 -0.7116  0.3112  0.5328
   7123SM  H15T 9289  -0.154  -2.075   0.624  0.6697 -1.2263  0.1815
   7123SM  C16S 9290  -0.251  -2.217   0.487  0.3172  0.7238 -0.2597
   7123SM  H16S 9291  -0.317  -2.148   0.430  1.0495 -1.3710 -4.0369
   7123SM  H16T 9292  -0.304  -2.313   0.504  0.5293  0.8242  1.0601
   7123SM  C17S 9293  -0.132  -2.241   0.385  0.1595  0.3336 -0.1538
   7123SM  H17S 9294  -0.183  -2.276   0.293 -0.3051 -0.2841  0.3216
   7123SM  H17T 9295  -0.071  -2.325   0.426 -1.8579 -0.0659  2.3902
   7123SM  C18S 9296  -0.047  -2.118   0.357  0.5020  0.1777 -0.1523
   7123SM  H18S 9297   0.015  -2.151   0.270  3.0242  0.5648  1.3975
   7123SM  H18T 9298   0.006  -2.098   0.452 -1.5653 -0.5447  1.2104
   7123SM  H18U 9299  -0.111  -2.028   0.340 -3.2216 -2.0469  1.0055
   7123SM   C1F 9300  -0.099  -2.098   2.079 -0.5756 -0.0784 -0.7867
   7123SM    OF 9301  -0.092  -2.193   2.158  0.2955  0.4171  0.4104
   7123SM   C2F 9302   0.018  -2.029   2.024 -0.2408  0.6087  1.0097
   7123SM   H2F 9303   0.058  -1.973   2.111 -0.8090 -1.4568  2.7124
   7123SM   H2G 9304  -0.017  -1.960   1.945  1.5313  1.2443  0.7531
   7123SM   C3F 9305   0.136  -2.119   1.975 -0.4189  0.3646 -1.0361
   7123SM   H3F 9306   0.169  -2.169   2.068 -1.6231  0.6792 -0.4219
   7123SM   H3G 9307   0.221  -2.056   1.939  0.4126  0.7567  1.4119
   7123SM   C4F 9308   0.113  -2.230   1.881  0.3113  0.0615  0.1329
   7123SM   H4F 9309   0.039  -2.297   1.930 -1.4709  0.9673 -1.1944
   7123SM   H4G 9310   0.202  -2.294   1.862  1.1916  0.9801  1.0610
   7123SM   C5F 9311   0.050  -2.175   1.754 -0.4156  0.5158  0.4183
   7123SM   H5F 9312   0.126  -2.100   1.726  0.6295 -0.0594  1.6427
   7123SM   H5G 9313  -0.045  -2.119   1.767 -0.8179  0.2163 -0.9953
   7123SM   C6F 9314   0.052  -2.277   1.637  0.6239  0.2993 -0.1561
   7123SM   H6F 9315  -0.047  -2.323   1.615 -0.2219  2.3356 -0.8559
   7123SM   H6G 9316   0.108  -2.369   1.665 -2.5108 -1.7417 -0.0787
   7123SM   C7F 9317   0.126  -2.236   1.515 -0.0708 -0.3266 -0.0779
   7123SM   H7F 9318   0.227  -2.196   1.538 -0.3151  0.3890 -0.2296
   7123SM   H7G 9319   0.071  -2.144   1.487 -0.7382 -1.2984 -2.1352
   7123SM   C8F 9320   0.134  -2.349   1.420  1.1032 -0.6077  0.0842
   7123SM   H8F 9321   0.058  -2.428   1.436 -0.0471  0.3903 -0.2294
   7123SM   H8G 9322   0.235  -2.395   1.421  0.9204 -1.5360 -4.1467
   7123SM   C9F 9323   0.110  -2.303   1.267  0.1312 -0.5074 -0.0684
   7123SM   H9F 9324   0.177  -2.217   1.245  1.8301 -2.2721 -2.2232
   7123SM   H9G 9325   0.003  -2.278   1.255  0.5910  0.8319 -1.7969
   7123SM  C10F 9326   0.160  -2.400   1.166 -0.2324 -0.1271 -0.8674
   7123SM  H10F 9327   0.107  -2.498   1.170 -1.5208  0.5646  2.7118
   7123SM  H10G 9328   0.266  -2.423   1.189 -0.4444 -0.3313 -0.0846
   7123SM  C11F 9329   0.148  -2.341   1.027  0.8185  0.2181  0.3519
   7123SM  H11F 9330   0.220  -2.257   1.024 -0.1628  1.1404  1.4708
   7123SM  H11G 9331   0.047  -2.297   1.010  0.9510  0.4183  0.0746
   7123SM  C12F 9332   0.189  -2.441   0.917 -0.2016 -0.3222 -0.6773
   7123SM  H12F 9333   0.119  -2.527   0.919  0.0614 -0.5590 -1.5317
   7123SM  H12G 9334   0.289  -2.487   0.931  0.1473 -0.2194 -2.6475
   7123SM  C13F 9335   0.193  -2.378   0.780  0.1375  0.1183  0.9959
   7123SM  H13F 9336   0.259  -2.290   0.766 -0.8714  0.8063  0.4788
   7123SM  H13G 9337   0.088  -2.348   0.759 -0.0511  0.2260  2.0462
   7123SM  C14F 9338   0.230  -2.482   0.670 -0.4557 -0.4605 -0.4225
   7123SM  H14F 9339   0.179  -2.579   0.687 -2.0416  0.2677 -0.8457
   7123SM  H14G 9340   0.337  -2.508   0.658  0.2385  2.1765 -0.5103
   7123SM  C15F 9341   0.195  -2.440   0.528  0.4329  0.1822  0.6969
   7123SM  H15F 9342   0.260  -2.371   0.469 -0.6783 -0.6483 -1.6234
   7123SM  H15G 9343   0.101  -2.381   0.532  0.7779  0.7184  1.0474
   7123SM  C16F 9344   0.187  -2.551   0.420  0.3789 -1.0599  0.1681
   7123SM  H16F 9345   0.167  -2.513   0.317  1.7152 -0.3478  0.1457
   7123SM  H16G 9346   0.107  -2.623   0.448 -2.2129  0.4512 -2.7438
   7123SM  C17F 9347   0.321  -2.618   0.406  0.4365 -0.0165 -0.0918
   7123SM  H17F 9348   0.339  -2.680   0.497  2.0529  0.1990 -0.2215
   7123SM  H17G 9349   0.410  -2.550   0.408  1.2018 -1.0132  0.6213
   7123SM  C18F 9350   0.332  -2.701   0.276  0.1271  0.2079 -0.5286
   7123SM  H18F 9351   0.231  -2.736   0.244  1.1418 -1.5141 -2.0313
   7123SM  H18G 9352   0.409  -2.779   0.288  0.8979  0.7401 -1.8914
   7123SM  C19F 9353   0.383  -2.627   0.151 -0.4695  0.6696  0.2954
   7123SM  H19F 9354   0.489  -2.602   0.173 -0.8772  1.2451  1.6909
   7123SM  H19G 9355   0.331  -2.529   0.146 -1.3180  0.5106  3.7904
   7123SM  C20F 9356   0.363  -2.708   0.022 -0.1801  0.0764  0.6941
   7123SM  H20F 9357   0.270  -2.770   0.024  0.8366 -1.5028  0.1096
   7123SM  H20G 9358   0.443  -2.782   0.001 -0.3867  0.4505 -1.6308
   7123SM  C21F 9359   0.362  -2.633  -0.104 -0.1721 -0.9196 -0.1760
   7123SM  H21F 9360   0.461  -2.581  -0.108 -0.4167 -0.4574 -0.4077
   7123SM  H21G 9361   0.295  -2.545  -0.101  1.0091  0.0769 -1.4714
   7123SM  C22F 9362   0.363  -2.723  -0.233  0.3117  1.0448 -0.4408
   7123SM  H22F 9363   0.264  -2.772  -0.222  0.8751  0.2344  1.4199
   7123SM  H22G 9364   0.445  -2.797  -0.231  0.4475  1.1995  0.0347
   7123SM  C23F 9365   0.376  -2.647  -0.366  0.6524 -0.0589 -0.0502
   7123SM  H23F 9366   0.476  -2.602  -0.382  1.4730 -0.5465  3.0075
   7123SM  H23G 9367   0.286  -2.582  -0.367 -0.2227 -1.2387 -1.3894
   7123SM  H23H 9368   0.355  -2.730  -0.437 -0.6855  1.3323 -1.3440
   7223SM     N 9369   2.131   0.291   2.670 -0.1117  0.0805 -0.7539
   7223SM   C15 9370   1.987   0.272   2.687  0.5823  0.2869 -0.3598
   7223SM  H15A 9371   1.934   0.367   2.687 -0.7912 -0.4169 -2.3526
   7223SM  H15B 9372   1.963   0.227   2.783 -0.3824  1.3458 -0.0667
   7223SM  H15C 9373   1.939   0.216   2.609  0.2943 -1.6196  1.1147
   7223SM   C14 9374   2.178   0.381   2.775  0.6900  0.0633  0.0051
   7223SM  H14A 9375   2.138   0.353   2.872  1.2655  2.0148  0.8666
   7223SM  H14B 9376   2.153   0.484   2.754  2.1209  0.0421 -2.0899
   7223SM  H14C 9377   2.285   0.385   2.784  0.8577  0.6342 -1.7863
   7223SM   C13 9378   2.200   0.160   2.696 -0.2147  0.2792 -0.5140
   7223SM  H13A 9379   2.180   0.090   2.616  0.5422 -0.4844 -0.0575
   7223SM  H13B 9380   2.164   0.119   2.790 -0.7004  3.3237  0.7593
   7223SM  H13C 9381   2.306   0.173   2.687 -0.3576  1.0373 -1.1838
   7223SM   C12 9382   2.164   0.354   2.538 -0.0408  0.7336  0.2039
   7223SM  H12A 9383   2.271   0.359   2.527 -0.0029 -0.8252 -0.4532
   7223SM  H12B 9384   2.130   0.456   2.539 -0.7481  0.5292 -0.9292
   7223SM   C11 9385   2.098   0.294   2.414  0.1443  0.1622  0.1589
   7223SM  H11A 9386   2.117   0.185   2.423  0.4833  0.3200  1.7229
   7223SM  H11B 9387   2.142   0.324   2.316  0.1147  2.0846  0.7035
   7223SM     P 9388   1.895   0.451   2.355 -0.3920 -0.0593 -0.3642
   7223SM   O13 9389   1.768   0.470   2.428 -0.1151 -0.5040 -0.8612
   7223SM   O14 9390   1.997   0.561   2.372 -0.0989  0.1580 -0.3330
   7223SM   O11 9391   1.870   0.433   2.199  0.5002  0.0147  0.2083
   7223SM   O12 9392   1.957   0.314   2.418  0.7405  0.5889 -0.1880
   7223SM   C1S 9393   1.787   0.318   2.159 -0.2078  0.2460 -0.7593
   7223SM   H1S 9394   1.694   0.320   2.221 -0.0635 -0.3546 -0.5205
   7223SM   H1T 9395   1.839   0.221   2.168 -0.3581  0.2422  0.1672
   7223SM    NF 9396   1.673   0.216   1.978 -0.1258 -0.4251  0.0777
   7223SM   HNF 9397   1.717   0.151   1.916 -1.1944 -0.4317 -0.7003
   7223SM   C2S 9398   1.746   0.334   2.009 -0.7322 -0.2306 -0.2745
   7223SM   H2S 9399   1.674   0.417   1.990  1.3292  1.5572 -0.6541
   7223SM   C3S 9400   1.868   0.359   1.918  0.4120 -0.2026  0.9067
   7223SM   H3S 9401   1.940   0.275   1.926  2.1763  0.9180 -1.5961
   7223SM    O3 9402   1.956   0.473   1.944  0.2864 -0.7623 -0.5323
   7223SM   HO3 9403   1.922   0.511   2.026  0.7595 -0.7873 -0.3204
   7223SM   C4S 9404   1.832   0.347   1.770  0.2904 -0.2116 -0.4507
   7223SM   H4S 9405   1.817   0.246   1.731  2.3941 -0.9233  0.4493
   7223SM   C5S 9406   1.807   0.452   1.683 -0.5151  0.0108 -0.0717
   7223SM   H5S 9407   1.814   0.555   1.720 -1.7026  0.2295 -0.4151
   7223SM   C6S 9408   1.764   0.453   1.542 -0.3531 -0.6053  0.0304
   7223SM   H6S 9409   1.686   0.532   1.548  2.1996  2.0285  2.3226
   7223SM   H6T 9410   1.725   0.354   1.513 -0.1273 -0.4236 -0.9195
   7223SM   C7S 9411   1.874   0.483   1.434  0.1272  1.1109 -0.1090
   7223SM   H7S 9412   1.946   0.399   1.446 -0.1012  1.2202  2.4015
   7223SM   H7T 9413   1.919   0.583   1.452 -1.0113  1.6773 -0.2706
   7223SM   C8S 9414   1.814   0.486   1.297 -0.4270 -0.0328  0.6789
   7223SM   H8S 9415   1.755   0.580   1.304  0.2704  0.5632 -0.9449
   7223SM   H8T 9416   1.745   0.400   1.299  0.6727 -0.9353  0.7983
   7223SM   C9S 9417   1.918   0.498   1.184 -0.7155  0.4863  0.0851
   7223SM   H9S 9418   2.006   0.430   1.178 -1.0582  0.0165  0.4068
   7223SM   H9T 9419   1.962   0.600   1.186 -2.2440  1.1594  1.0521
   7223SM  C10S 9420   1.857   0.496   1.048 -0.2030  0.1269 -0.3277
   7223SM  H10S 9421   1.771   0.565   1.034  1.0703  1.4052 -2.5100
   7223SM  H10T 9422   1.820   0.391   1.038 -0.2980  0.1566 -0.2870
   7223SM  C11S 9423   1.954   0.535   0.931  0.5310  0.6638 -0.5816
   7223SM  H11S 9424   2.036   0.461   0.940  0.9939  1.1542 -0.7104
   7223SM  H11T 9425   1.972   0.642   0.954  1.2660  0.1279  1.6013
   7223SM  C12S 9426   1.885   0.516   0.802  0.1701 -0.3498  1.0127
   7223SM  H12S 9427   1.780   0.553   0.810  0.3680  0.4232  0.1901
   7223SM  H12T 9428   1.885   0.411   0.767 -0.6091  0.2731 -1.0643
   7223SM  C13S 9429   1.950   0.609   0.691 -0.0138 -0.4532 -0.1818
   7223SM  H13S 9430   2.055   0.573   0.686 -0.0980 -1.1987  2.0264
   7223SM  H13T 9431   1.960   0.709   0.739 -2.7690 -0.0170 -0.3243
   7223SM  C14S 9432   1.879   0.600   0.559  0.2279 -0.7704  0.2425
   7223SM  H14S 9433   1.769   0.613   0.561  0.4159  1.1885 -0.4674
   7223SM  H14T 9434   1.888   0.492   0.534 -1.9894 -0.8134 -0.6115
   7223SM  C15S 9435   1.935   0.683   0.445 -0.2000  0.2040  0.5507
   7223SM  H15S 9436   2.046   0.677   0.442 -0.2545 -0.5183 -1.5385
   7223SM  H15T 9437   1.894   0.784   0.467 -0.9958 -0.3495  1.6979
   7223SM  C16S 9438   1.862   0.654   0.306 -0.4576 -0.0119 -0.2390
   7223SM  H16S 9439   1.755   0.680   0.321 -0.8199 -0.7220 -1.4613
   7223SM  H16T 9440   1.865   0.545   0.285 -0.4938  0.0167 -0.3927
   7223SM  C17S 9441   1.925   0.715   0.187  0.0574  0.2895 -0.2390
   7223SM  H17S 9442   2.029   0.680   0.199 -0.0850 -0.2059 -0.4342
   7223SM  H17T 9443   1.922   0.826   0.194  2.9580  0.4490 -0.5134
   7223SM  C18S 9444   1.881   0.662   0.049  0.1452 -0.4363 -0.0233
   7223SM  H18S 9445   1.782   0.699   0.013 -1.0997 -1.9515  1.6324
   7223SM  H18T 9446   1.865   0.552   0.053  0.8278 -0.5662 -0.7143
   7223SM  H18U 9447   1.961   0.671  -0.028  0.6591 -2.7253  0.1588
   7223SM   C1F 9448   1.551   0.196   2.016  0.2403 -0.4648 -0.7574
   7223SM    OF 9449   1.485   0.288   2.065  0.1088 -0.1006 -0.2786
   7223SM   C2F 9450   1.498   0.047   2.016  0.3814 -0.3309  0.0376
   7223SM   H2F 9451   1.507  -0.000   2.116 -0.0610 -2.4906 -0.8844
   7223SM   H2G 9452   1.570  -0.008   1.951  0.6138  1.7276 -1.5599
   7223SM   C3F 9453   1.357   0.037   1.954 -1.3854 -0.5500 -1.0611
   7223SM   H3F 9454   1.282   0.101   2.005 -0.0636 -1.0280  1.6763
   7223SM   H3G 9455   1.323  -0.068   1.958 -2.6390 -0.1088  1.0162
   7223SM   C4F 9456   1.351   0.085   1.806 -0.4567  0.6183 -0.4267
   7223SM   H4F 9457   1.370   0.194   1.796 -1.4302  0.9093  0.7350
   7223SM   H4G 9458   1.246   0.063   1.776 -1.2633  1.4573  1.5759
   7223SM   C5F 9459   1.444   0.021   1.700 -0.0153  0.5068  0.4730
   7223SM   H5F 9460   1.433  -0.089   1.700  2.0011  0.2710  1.4815
   7223SM   H5G 9461   1.548   0.046   1.728 -0.7488  1.4102  2.6307
   7223SM   C6F 9462   1.397   0.067   1.560  0.0879  0.2473  0.1047
   7223SM   H6F 9463   1.478   0.083   1.485 -0.5573  0.7012 -0.5099
   7223SM   H6G 9464   1.335   0.158   1.577 -0.3760 -0.2021  0.8696
   7223SM   C7F 9465   1.317  -0.037   1.485 -0.1747  0.3273  0.1285
   7223SM   H7F 9466   1.294   0.009   1.387 -0.4386 -0.7085 -0.3111
   7223SM   H7G 9467   1.225  -0.063   1.542  0.1062  1.2356  1.0296
   7223SM   C8F 9468   1.401  -0.170   1.449  0.7964  0.1920  0.0885
   7223SM   H8F 9469   1.415  -0.231   1.541  0.7612  1.7955  1.2143
   7223SM   H8G 9470   1.504  -0.153   1.414  0.9304  2.0755  1.2205
   7223SM   C9F 9471   1.313  -0.247   1.344  0.1754  0.5946  0.1523
   7223SM   H9F 9472   1.212  -0.254   1.390  1.0654 -0.4989  2.0909
   7223SM   H9G 9473   1.351  -0.351   1.338 -2.3256 -0.3436 -0.5904
   7223SM  C10F 9474   1.327  -0.183   1.209  0.5098 -0.6762 -0.1386
   7223SM  H10F 9475   1.432  -0.148   1.198 -0.1614  1.4327 -0.2363
   7223SM  H10G 9476   1.272  -0.087   1.210  0.8306 -0.4282  2.6359
   7223SM  C11F 9477   1.297  -0.283   1.094 -0.8285 -0.5014  0.0490
   7223SM  H11F 9478   1.187  -0.302   1.098 -1.0396  0.6085 -0.2178
   7223SM  H11G 9479   1.361  -0.374   1.097 -2.4676 -1.7274 -0.7005
   7223SM  C12F 9480   1.320  -0.224   0.954  0.2927  0.0025  0.2789
   7223SM  H12F 9481   1.425  -0.190   0.939  0.7977 -1.3738  0.5620
   7223SM  H12G 9482   1.259  -0.138   0.920  0.4063  0.4387  1.1518
   7223SM  C13F 9483   1.290  -0.323   0.848 -0.4452  0.3034 -0.6891
   7223SM  H13F 9484   1.196  -0.377   0.872  0.8745 -0.9652  2.2071
   7223SM  H13G 9485   1.360  -0.409   0.861 -2.3334 -1.0284  1.6723
   7223SM  C14F 9486   1.301  -0.286   0.703 -0.4275 -0.4669  0.3146
   7223SM  H14F 9487   1.252  -0.357   0.634  0.5699  1.1129 -2.1710
   7223SM  H14G 9488   1.409  -0.289   0.676 -0.4085  0.4023  0.2604
   7223SM  C15F 9489   1.240  -0.151   0.663 -0.4356  0.3602  0.1146
   7223SM  H15F 9490   1.308  -0.067   0.688 -0.3866 -0.0574  1.5033
   7223SM  H15G 9491   1.141  -0.146   0.714 -0.9396  0.1401 -0.8253
   7223SM  C16F 9492   1.218  -0.142   0.514 -0.6832 -0.5239 -0.3885
   7223SM  H16F 9493   1.169  -0.043   0.503 -1.6654 -0.6401  2.2426
   7223SM  H16G 9494   1.140  -0.213   0.480 -1.2505 -0.1068  0.0227
   7223SM  C17F 9495   1.340  -0.139   0.423  0.2443 -0.3091 -0.2633
   7223SM  H17F 9496   1.385  -0.241   0.425  1.8107  0.2723 -2.3753
   7223SM  H17G 9497   1.412  -0.070   0.472  1.8746 -1.5796 -0.7623
   7223SM  C18F 9498   1.303  -0.103   0.277  0.4979  0.0887 -0.0107
   7223SM  H18F 9499   1.268  -0.191   0.220  1.7317 -0.2730 -0.2487
   7223SM  H18G 9500   1.404  -0.068   0.244 -0.4326  2.1656 -0.8201
   7223SM  C19F 9501   1.199   0.010   0.258  0.8257  0.3645  0.1299
   7223SM  H19F 9502   1.230   0.099   0.318 -0.2997  1.2346 -0.5504
   7223SM  H19G 9503   1.103  -0.030   0.294  0.4024  2.0190  0.9444
   7223SM  C20F 9504   1.185   0.056   0.107 -0.3210 -0.3968 -0.1401
   7223SM  H20F 9505   1.146  -0.037   0.060 -1.0387 -0.6231  0.8780
   7223SM  H20G 9506   1.280   0.083   0.055 -1.3777  0.1823 -1.8650
   7223SM  C21F 9507   1.093   0.177   0.097 -0.0692  0.0281 -0.6433
   7223SM  H21F 9508   1.128   0.257   0.165  0.2092  0.7085 -1.5596
   7223SM  H21G 9509   0.985   0.157   0.112  0.4708 -3.3385 -0.3809
   7223SM  C22F 9510   1.117   0.237  -0.045 -0.2591 -0.8829 -0.0843
   7223SM  H22F 9511   1.227   0.242  -0.063 -0.1060  0.0480  0.9803
   7223SM  H22G 9512   1.088   0.344  -0.035  1.9893 -0.4371  2.9594
   7223SM  C23F 9513   1.030   0.174  -0.152  0.3139 -0.2164  1.0532
   7223SM  H23F 9514   1.081   0.087  -0.199 -1.2816  0.0386 -1.3240
   7223SM  H23G 9515   1.012   0.238  -0.241  1.7651  0.3760  1.1581
   7223SM  H23H 9516   0.932   0.130  -0.122  0.2563 -0.2716  0.7837
   7323SM     N 9517   0.897  -1.416   3.023  0.1930  0.3092  0.4192
   7323SM   C15 9518   0.853  -1.506   3.134  0.1105 -0.5252 -0.2092
   7323SM  H15A 9519   0.745  -1.501   3.140  0.1238  0.7758 -0.8066
   7323SM  H15B 9520   0.882  -1.465   3.230 -0.6713 -1.0107  0.2554
   7323SM  H15C 9521   0.886  -1.609   3.128  0.6693 -0.3232 -0.6865
   7323SM   C14 9522   0.857  -1.274   3.054  0.1443 -0.1024 -0.3296
   7323SM  H14A 9523   0.750  -1.262   3.054  0.0528 -0.9240 -0.2990
   7323SM  H14B 9524   0.915  -1.204   2.995  1.1153  0.6777  1.4659
   7323SM  H14C 9525   0.891  -1.234   3.148  1.5730 -0.0445 -0.8401
   7323SM   C13 9526   1.046  -1.423   3.036  0.1333  0.6384  0.5883
   7323SM  H13A 9527   1.082  -1.383   3.129  1.6387  1.8098 -0.4444
   7323SM  H13B 9528   1.088  -1.359   2.959 -1.3761 -0.6055 -1.3604
   7323SM  H13C 9529   1.083  -1.524   3.024 -0.6368  0.3571  0.5261
   7323SM   C12 9530   0.858  -1.467   2.886 -0.2998 -0.3859 -0.3199
   7323SM  H12A 9531   0.899  -1.402   2.809  0.2805 -0.5243 -0.1331
   7323SM  H12B 9532   0.751  -1.454   2.877 -0.1338  0.7562 -0.8906
   7323SM   C11 9533   0.913  -1.611   2.843  0.9620 -0.3810  0.0736
   7323SM  H11A 9534   1.023  -1.610   2.860  0.7480 -2.9629  2.4789
   7323SM  H11B 9535   0.885  -1.619   2.736  0.2855  0.4328  0.1745
   7323SM     P 9536   0.934  -1.850   2.959 -0.1704 -0.0126  0.4171
   7323SM   O13 9537   1.016  -1.814   3.079  0.3488 -0.7043 -0.1381
   7323SM   O14 9538   0.841  -1.966   2.979  0.5614 -0.7725 -0.0950
   7323SM   O11 9539   1.030  -1.889   2.839  0.3022  0.4896  0.4428
   7323SM   O12 9540   0.855  -1.718   2.920 -0.0086 -0.0549  0.0768
   7323SM   C1S 9541   0.969  -1.916   2.710  0.3576 -0.0349  0.3472
   7323SM   H1S 9542   0.890  -1.843   2.683 -2.2304 -2.2493  1.4985
   7323SM   H1T 9543   0.908  -2.008   2.713 -0.1359  0.2942  0.4775
   7323SM    NF 9544   0.980  -1.937   2.468 -0.8045  0.2253  0.2973
   7323SM   HNF 9545   0.976  -2.028   2.428 -2.1553  0.1914  0.4717
   7323SM   C2S 9546   1.065  -1.924   2.591 -0.1178  0.3434  0.0866
   7323SM   H2S 9547   1.112  -1.823   2.591 -2.2339  1.4037  1.9061
   7323SM   C3S 9548   1.178  -2.030   2.605  0.0522 -0.1246 -1.0124
   7323SM   H3S 9549   1.124  -2.128   2.602 -1.6039  0.7463 -4.0848
   7323SM    O3 9550   1.243  -2.023   2.733  0.1844 -0.5802 -0.2617
   7323SM   HO3 9551   1.192  -1.956   2.778  0.7042  0.0853 -0.6471
   7323SM   C4S 9552   1.274  -2.044   2.480  0.3250 -0.1732 -1.1607
   7323SM   H4S 9553   1.240  -2.106   2.396 -1.0592  0.6195 -1.2191
   7323SM   C5S 9554   1.384  -1.974   2.454 -0.3361 -0.3550  0.1875
   7323SM   H5S 9555   1.414  -1.900   2.529 -0.5362  1.5008 -1.4945
   7323SM   C6S 9556   1.481  -1.988   2.346 -0.8741  0.0755  0.1475
   7323SM   H6S 9557   1.545  -2.078   2.359 -1.6074 -0.6736 -1.2367
   7323SM   H6T 9558   1.547  -1.899   2.355 -1.3955  0.5583 -0.7086
   7323SM   C7S 9559   1.412  -1.991   2.201 -0.2588  0.7516 -0.1468
   7323SM   H7S 9560   1.339  -1.907   2.195 -0.4880  0.6203  0.6618
   7323SM   H7T 9561   1.356  -2.087   2.198 -0.6911  0.9443  1.2335
   7323SM   C8S 9562   1.517  -1.985   2.092  0.4243  0.6116  0.3175
   7323SM   H8S 9563   1.573  -2.081   2.095  1.0840  1.0054  1.2164
   7323SM   H8T 9564   1.602  -1.916   2.107  1.4966 -0.1322 -1.9264
   7323SM   C9S 9565   1.458  -1.958   1.951  0.9365 -0.4282  0.6891
   7323SM   H9S 9566   1.388  -1.871   1.952 -2.0085 -2.6297 -0.1750
   7323SM   H9T 9567   1.389  -2.040   1.922 -0.0670 -0.3514  2.6622
   7323SM  C10S 9568   1.567  -1.928   1.849 -0.5188 -0.0070 -0.3331
   7323SM  H10S 9569   1.655  -1.995   1.860 -1.5655 -1.8877 -2.5101
   7323SM  H10T 9570   1.609  -1.826   1.865 -1.3145  0.6424 -2.0739
   7323SM  C11S 9571   1.530  -1.933   1.696 -0.2698 -0.1653 -0.1955
   7323SM  H11S 9572   1.456  -1.854   1.670 -0.2975 -0.1567 -0.0915
   7323SM  H11T 9573   1.485  -2.033   1.678 -1.7034  0.5685 -0.8584
   7323SM  C12S 9574   1.660  -1.928   1.602 -0.1636 -0.7137  0.0264
   7323SM  H12S 9575   1.734  -2.005   1.633 -0.8330 -0.7795  1.5991
   7323SM  H12T 9576   1.720  -1.835   1.613 -0.7563  0.0308 -2.4908
   7323SM  C13S 9577   1.613  -1.940   1.457 -0.2330 -0.3093 -0.1430
   7323SM  H13S 9578   1.567  -1.844   1.423  0.7488 -0.3148 -1.5814
   7323SM  H13T 9579   1.540  -2.024   1.451 -1.0408  0.1562  2.1565
   7323SM  C14S 9580   1.739  -1.957   1.370  0.7856  0.7281 -0.6316
   7323SM  H14S 9581   1.783  -2.054   1.402  1.5585  1.3292  0.1752
   7323SM  H14T 9582   1.813  -1.880   1.400  0.6370  0.0817  1.5495
   7323SM  C15S 9583   1.702  -1.945   1.217 -0.9464 -0.3141 -0.0885
   7323SM  H15S 9584   1.705  -1.836   1.193 -1.2496  0.4866  2.9862
   7323SM  H15T 9585   1.596  -1.979   1.208 -0.9377 -0.1410 -0.9064
   7323SM  C16S 9586   1.801  -2.015   1.127  0.4259 -0.7437 -0.0394
   7323SM  H16S 9587   1.790  -2.122   1.154  2.0267 -1.2101 -1.0855
   7323SM  H16T 9588   1.906  -1.984   1.148  0.3823 -0.8919  0.4005
   7323SM  C17S 9589   1.769  -1.998   0.973 -0.2928 -0.1410 -0.5086
   7323SM  H17S 9590   1.773  -1.890   0.946 -0.0409  0.7284  2.6120
   7323SM  H17T 9591   1.660  -2.021   0.964 -0.0888 -1.3764 -0.0733
   7323SM  C18S 9592   1.855  -2.087   0.887 -0.2314 -0.6049 -0.5213
   7323SM  H18S 9593   1.852  -2.191   0.926  0.5011 -1.6756 -3.1092
   7323SM  H18T 9594   1.958  -2.047   0.878  0.6095 -2.1850  1.3286
   7323SM  H18U 9595   1.815  -2.084   0.783 -2.2444  0.3894  0.2325
   7323SM   C1F 9596   0.919  -1.833   2.412  0.1280  1.1427 -0.0354
   7323SM    OF 9597   0.938  -1.719   2.451  0.2714 -0.0304 -0.7435
   7323SM   C2F 9598   0.819  -1.869   2.310 -0.8551  0.6717 -0.3865
   7323SM   H2F 9599   0.732  -1.909   2.366 -0.1792 -2.1009 -1.1553
   7323SM   H2G 9600   0.860  -1.946   2.240  2.4928  2.5754 -0.7419
   7323SM   C3F 9601   0.764  -1.762   2.211  0.0000  0.6564 -1.1778
   7323SM   H3F 9602   0.727  -1.688   2.285 -0.4703 -3.5613  3.3080
   7323SM   H3G 9603   0.674  -1.789   2.152 -0.1940  0.0419 -0.6116
   7323SM   C4F 9604   0.865  -1.698   2.114 -0.3589  0.5178 -0.2253
   7323SM   H4F 9605   0.951  -1.653   2.167  1.2235 -1.6829 -0.7784
   7323SM   H4G 9606   0.809  -1.630   2.046  2.4334  0.1658 -3.1015
   7323SM   C5F 9607   0.942  -1.803   2.026 -0.0695 -0.3937 -0.0190
   7323SM   H5F 9608   0.862  -1.863   1.977  0.7461 -1.9859  0.5349
   7323SM   H5G 9609   1.006  -1.874   2.084 -1.1749 -3.3825 -2.2038
   7323SM   C6F 9610   1.016  -1.728   1.908  0.1205 -0.3041 -0.2947
   7323SM   H6F 9611   1.094  -1.661   1.953 -1.1818 -1.1009  3.5166
   7323SM   H6G 9612   0.938  -1.663   1.863 -0.0895 -0.1724  0.2425
   7323SM   C7F 9613   1.083  -1.821   1.814  0.7359 -0.1528 -0.1222
   7323SM   H7F 9614   0.997  -1.882   1.779 -0.9581  1.6627  0.6603
   7323SM   H7G 9615   1.156  -1.887   1.865 -1.9401 -1.3101  2.4399
   7323SM   C8F 9616   1.141  -1.735   1.699  0.4250 -0.1775  0.8393
   7323SM   H8F 9617   1.236  -1.686   1.730 -0.4539  1.6232  0.8184
   7323SM   H8G 9618   1.066  -1.658   1.671 -0.3055 -1.4492 -0.8636
   7323SM   C9F 9619   1.160  -1.809   1.568  0.2132 -0.5223 -0.3461
   7323SM   H9F 9620   1.061  -1.848   1.537 -0.5498  0.9996  0.0510
   7323SM   H9G 9621   1.229  -1.893   1.588  0.6531 -0.4019 -1.2701
   7323SM  C10F 9622   1.221  -1.710   1.473 -0.1825  0.6488  1.0615
   7323SM  H10F 9623   1.326  -1.686   1.500 -0.2584  2.5334 -0.1345
   7323SM  H10G 9624   1.166  -1.614   1.465 -1.5613 -0.0533  1.7810
   7323SM  C11F 9625   1.215  -1.771   1.325  0.3805  0.0754 -1.0737
   7323SM  H11F 9626   1.112  -1.785   1.286 -0.4248 -0.1860  1.0418
   7323SM  H11G 9627   1.251  -1.873   1.350 -0.6550  0.1337  0.7836
   7323SM  C12F 9628   1.301  -1.704   1.224 -0.5711  0.2933 -0.3244
   7323SM  H12F 9629   1.386  -1.655   1.277 -0.5431 -0.5302  0.4102
   7323SM  H12G 9630   1.237  -1.616   1.200  0.1460  0.4879 -1.6260
   7323SM  C13F 9631   1.357  -1.783   1.107 -0.8808  0.2561 -0.1883
   7323SM  H13F 9632   1.265  -1.821   1.059 -0.6350 -1.8547  0.8986
   7323SM  H13G 9633   1.421  -1.867   1.140  0.7470  0.8840 -1.5830
   7323SM  C14F 9634   1.450  -1.703   1.010 -0.4129 -0.5017 -0.7547
   7323SM  H14F 9635   1.542  -1.764   1.015  0.2063  0.2912 -2.1026
   7323SM  H14G 9636   1.465  -1.600   1.048 -1.3471  0.3973 -2.6587
   7323SM  C15F 9637   1.394  -1.691   0.870  0.2342 -0.5235 -0.1736
   7323SM  H15F 9638   1.476  -1.662   0.801 -0.5923 -2.7667 -2.2429
   7323SM  H15G 9639   1.327  -1.603   0.876  1.2775  0.2037  1.7771
   7323SM  C16F 9640   1.315  -1.809   0.809  0.2683 -0.3083 -0.2468
   7323SM  H16F 9641   1.212  -1.815   0.850 -0.4554  0.6582 -1.7908
   7323SM  H16G 9642   1.364  -1.905   0.836 -1.2931 -2.0719 -3.1141
   7323SM  C17F 9643   1.307  -1.823   0.658 -0.0153  0.0009  0.1139
   7323SM  H17F 9644   1.258  -1.733   0.614  0.5468 -0.7108 -2.1233
   7323SM  H17G 9645   1.237  -1.904   0.628  0.2287  0.6533 -2.4815
   7323SM  C18F 9646   1.442  -1.835   0.593 -0.4134 -0.1814  0.2225
   7323SM  H18F 9647   1.491  -1.922   0.642  2.1162  0.8997 -0.2292
   7323SM  H18G 9648   1.502  -1.742   0.598  1.6755 -0.9332 -5.1094
   7323SM  C19F 9649   1.435  -1.863   0.442 -0.5662  0.2846 -0.2853
   7323SM  H19F 9650   1.355  -1.938   0.426 -2.0408  1.5347  0.9159
   7323SM  H19G 9651   1.534  -1.906   0.414 -0.9686  0.0593 -1.4053
   7323SM  C20F 9652   1.417  -1.736   0.364 -0.7345 -0.5429  0.0574
   7323SM  H20F 9653   1.502  -1.667   0.383  0.2992 -1.3400 -1.3896
   7323SM  H20G 9654   1.324  -1.681   0.390 -0.6354 -0.3341 -0.0277
   7323SM  C21F 9655   1.397  -1.755   0.213 -0.4566  0.7008  0.0219
   7323SM  H21F 9656   1.303  -1.815   0.211 -0.6770  0.8362  2.8044
   7323SM  H21G 9657   1.487  -1.809   0.176 -0.5058 -1.1647  2.3841
   7323SM  C22F 9658   1.372  -1.629   0.128  0.0150  0.4687 -0.3456
   7323SM  H22F 9659   1.296  -1.571   0.184 -0.6889 -0.9922  0.2768
   7323SM  H22G 9660   1.343  -1.662   0.026  0.1393 -2.9167  0.5986
   7323SM  C23F 9661   1.502  -1.549   0.104 -0.0464 -0.2692 -0.6707
   7323SM  H23F 9662   1.536  -1.509   0.202 -0.7066 -0.6068 -0.2933
   7323SM  H23G 9663   1.480  -1.467   0.033 -0.6289 -0.2937 -0.5213
   7323SM  H23H 9664   1.580  -1.620   0.067  2.0293  1.9004 -0.6966
   7423SM     N 9665   2.638   1.662   2.604 -0.0288  0.9861  0.2294
   7423SM   C15 9666   2.528   1.738   2.547  0.8591 -0.1191 -0.6201
   7423SM  H15A 9667   2.446   1.684   2.501  0.3526 -0.0677  0.2044
   7423SM  H15B 9668   2.561   1.808   2.471 -1.0750  0.3788 -1.0687
   7423SM  H15C 9669   2.490   1.796   2.629  4.1759  1.2224  0.1152
   7423SM   C14 9670   2.742   1.756   2.653 -0.6912 -0.5682 -1.3565
   7423SM  H14A 9671   2.818   1.705   2.710 -1.1682 -0.4710 -0.6267
   7423SM  H14B 9672   2.716   1.841   2.714  2.3062 -2.4610  3.1512
   7423SM  H14C 9673   2.790   1.795   2.564  0.1286  0.1079 -0.6337
   7423SM   C13 9674   2.590   1.583   2.725  0.1334 -0.5459 -0.3127
   7423SM  H13A 9675   2.529   1.652   2.782  0.8831  1.1673 -1.4881
   7423SM  H13B 9676   2.667   1.532   2.781 -0.4997  0.3888  1.5112
   7423SM  H13C 9677   2.526   1.505   2.688 -1.5431 -0.1313  1.5513
   7423SM   C12 9678   2.699   1.565   2.496 -0.1229 -0.1836 -0.5056
   7423SM  H12A 9679   2.630   1.482   2.484  1.4701 -1.6385 -0.1085
   7423SM  H12B 9680   2.789   1.517   2.533  0.4635 -1.3085 -3.1030
   7423SM   C11 9681   2.732   1.621   2.355 -0.0160  0.5924  0.1980
   7423SM  H11A 9682   2.643   1.681   2.325  0.6651  2.6744  2.1360
   7423SM  H11B 9683   2.755   1.545   2.277  3.4399  1.2288  0.4668
   7423SM     P 9684   2.982   1.649   2.325  0.4042  0.1594  0.0243
   7423SM   O13 9685   3.078   1.758   2.326  0.1371 -0.5218  0.1134
   7423SM   O14 9686   3.020   1.524   2.392 -0.4174  0.2248 -0.0499
   7423SM   O11 9687   2.950   1.606   2.172  0.5277 -0.3338  0.2289
   7423SM   O12 9688   2.843   1.705   2.374 -0.5141 -0.3024 -0.2508
   7423SM   C1S 9689   3.038   1.650   2.067 -0.8326  0.1366 -0.5833
   7423SM   H1S 9690   3.137   1.605   2.092  0.3852  1.4998 -2.6111
   7423SM   H1T 9691   3.044   1.759   2.049  3.8053 -0.0683 -1.6509
   7423SM    NF 9692   3.107   1.574   1.832  0.2541 -0.3441  0.1342
   7423SM   HNF 9693   3.091   1.630   1.751 -1.2867 -0.2705  0.4759
   7423SM   C2S 9694   3.003   1.578   1.927 -0.0491  0.1757  0.4258
   7423SM   H2S 9695   2.966   1.475   1.949  0.6017 -0.4504 -1.2569
   7423SM   C3S 9696   2.873   1.652   1.878  0.0545 -0.5909  0.1069
   7423SM   H3S 9697   2.898   1.759   1.861 -0.9093 -0.4415 -0.4069
   7423SM    O3 9698   2.769   1.654   1.981  0.0374 -0.1907  0.6491
   7423SM   HO3 9699   2.805   1.622   2.064 -2.4292  0.1723  1.9298
   7423SM   C4S 9700   2.815   1.611   1.743 -0.6294 -0.0716 -0.0652
   7423SM   H4S 9701   2.846   1.679   1.663 -0.5657 -0.8074 -0.6804
   7423SM   C5S 9702   2.728   1.514   1.715  0.3305 -0.2908  0.5528
   7423SM   H5S 9703   2.705   1.443   1.795  0.3128  0.4984  1.2597
   7423SM   C6S 9704   2.666   1.486   1.581  0.7821 -0.4823 -0.3824
   7423SM   H6S 9705   2.556   1.501   1.584  0.9615  1.2447 -1.1812
   7423SM   H6T 9706   2.698   1.384   1.548  0.9510  0.1743 -2.3701
   7423SM   C7S 9707   2.708   1.579   1.462 -0.2433 -0.6646 -0.1027
   7423SM   H7S 9708   2.818   1.573   1.468 -0.3741 -2.0313  1.5962
   7423SM   H7T 9709   2.667   1.681   1.481 -0.6730 -0.7402 -0.5920
   7423SM   C8S 9710   2.652   1.525   1.330  0.0900 -0.2545  0.6946
   7423SM   H8S 9711   2.541   1.529   1.343 -0.1323  5.4044 -0.1908
   7423SM   H8T 9712   2.678   1.418   1.316 -1.2089 -0.6444  1.0434
   7423SM   C9S 9713   2.684   1.611   1.214 -0.1314  0.5311 -0.4191
   7423SM   H9S 9714   2.794   1.618   1.202 -0.0843 -0.4740 -0.6047
   7423SM   H9T 9715   2.655   1.719   1.216 -0.9732  0.3164 -0.7219
   7423SM  C10S 9716   2.629   1.552   1.080 -0.6592  0.2654 -0.0192
   7423SM  H10S 9717   2.519   1.536   1.082 -0.6410  0.2144  0.5221
   7423SM  H10T 9718   2.684   1.457   1.063  1.5854  1.6557 -1.0914
   7423SM  C11S 9719   2.678   1.631   0.958 -0.0118  0.7608 -0.3575
   7423SM  H11S 9720   2.657   1.570   0.867 -2.6157  2.3394 -0.9288
   7423SM  H11T 9721   2.788   1.647   0.960  0.2048 -0.5614 -0.3838
   7423SM  C12S 9722   2.608   1.766   0.934  0.1227  0.4087  0.4096
   7423SM  H12S 9723   2.615   1.825   1.027  1.9300  1.1482 -0.1561
   7423SM  H12T 9724   2.498   1.753   0.925  0.2545  0.2867 -1.6466
   7423SM  C13S 9725   2.656   1.838   0.814 -0.6220 -0.0010  0.6676
   7423SM  H13S 9726   2.767   1.837   0.807 -0.7178  1.0404 -2.0052
   7423SM  H13T 9727   2.624   1.944   0.818 -1.7338 -0.1280 -2.2358
   7423SM  C14S 9728   2.595   1.791   0.682  0.0343 -0.1794 -0.4693
   7423SM  H14S 9729   2.491   1.752   0.693  0.6485 -1.6705  0.3790
   7423SM  H14T 9730   2.640   1.696   0.645  0.9379  0.6232 -1.4936
   7423SM  C15S 9731   2.599   1.898   0.571  0.8605 -0.2538  0.3811
   7423SM  H15S 9732   2.700   1.944   0.570  0.3724  0.8571  0.3278
   7423SM  H15T 9733   2.519   1.973   0.587 -0.0000 -1.1607  0.4005
   7423SM  C16S 9734   2.568   1.834   0.438 -0.1530  0.0454  0.7075
   7423SM  H16S 9735   2.471   1.779   0.442  0.0418 -0.2869  0.9720
   7423SM  H16T 9736   2.640   1.752   0.420 -0.4994 -0.2085  0.4501
   7423SM  C17S 9737   2.565   1.934   0.317 -0.0154 -0.4347  0.3340
   7423SM  H17S 9738   2.672   1.958   0.295  0.1879 -1.2667  0.3710
   7423SM  H17T 9739   2.514   2.025   0.354 -1.3171 -1.1972  0.4524
   7423SM  C18S 9740   2.490   1.888   0.192  0.1022  0.4511 -0.4821
   7423SM  H18S 9741   2.524   1.788   0.158  0.9665 -0.3408  2.4482
   7423SM  H18T 9742   2.496   1.960   0.107 -0.2623  0.2942 -0.6445
   7423SM  H18U 9743   2.382   1.885   0.218  0.5064  2.5206  1.7525
   7423SM   C1F 9744   3.214   1.497   1.855  0.2030 -0.6576  0.0505
   7423SM    OF 9745   3.219   1.427   1.959  0.0419  0.5770 -0.5107
   7423SM   C2F 9746   3.310   1.503   1.742 -0.6094 -0.2857  0.0944
   7423SM   H2F 9747   3.357   1.604   1.745  0.0147 -0.5914  1.0171
   7423SM   H2G 9748   3.248   1.492   1.650 -0.0881  0.4700 -0.3608
   7423SM   C3F 9749   3.428   1.393   1.741  0.4135 -0.0784  0.7348
   7423SM   H3F 9750   3.386   1.296   1.775 -0.0265 -0.7151 -1.4122
   7423SM   H3G 9751   3.498   1.426   1.820  0.4249 -1.4296  1.3076
   7423SM   C4F 9752   3.487   1.376   1.605  0.7412 -0.0589  0.0442
   7423SM   H4F 9753   3.404   1.341   1.540 -1.5439  2.0151  1.6831
   7423SM   H4G 9754   3.559   1.292   1.608 -0.1513 -0.8369 -0.0368
   7423SM   C5F 9755   3.565   1.506   1.562 -0.9741 -0.3401 -0.0538
   7423SM   H5F 9756   3.647   1.528   1.634 -0.6023 -1.2713 -0.1701
   7423SM   H5G 9757   3.492   1.588   1.576 -1.2125 -0.8829  2.1679
   7423SM   C6F 9758   3.614   1.514   1.414 -0.3572 -0.0395  0.2304
   7423SM   H6F 9759   3.673   1.421   1.400 -2.0291 -0.7424 -3.1108
   7423SM   H6G 9760   3.693   1.591   1.399  0.3075 -0.2839  2.1664
   7423SM   C7F 9761   3.495   1.514   1.318  0.2484  0.1257 -0.7814
   7423SM   H7F 9762   3.421   1.588   1.356 -1.1722 -0.9840 -1.3329
   7423SM   H7G 9763   3.431   1.424   1.328 -0.9529  1.2515  3.2667
   7423SM   C8F 9764   3.533   1.530   1.173 -0.9559 -0.1380 -0.2509
   7423SM   H8F 9765   3.598   1.620   1.172 -0.8521 -0.2106 -0.0162
   7423SM   H8G 9766   3.444   1.546   1.107 -1.5581 -2.1238  0.0088
   7423SM   C9F 9767   3.598   1.404   1.112  0.8208 -0.4296  0.0439
   7423SM   H9F 9768   3.523   1.323   1.102  0.2377  0.2365 -1.0697
   7423SM   H9G 9769   3.676   1.372   1.185  0.4462 -1.5439 -0.0222
   7423SM  C10F 9770   3.649   1.440   0.974 -0.0251  0.5956  0.2170
   7423SM  H10F 9771   3.711   1.355   0.938 -0.8603 -0.8497  2.0285
   7423SM  H10G 9772   3.727   1.519   0.980  0.0579  0.5761 -0.4927
   7423SM  C11F 9773   3.544   1.454   0.867 -0.6046 -0.1267 -0.0865
   7423SM  H11F 9774   3.470   1.531   0.895  0.7078  0.9877  0.4053
   7423SM  H11G 9775   3.487   1.358   0.867 -0.5799 -0.2058  2.5893
   7423SM  C12F 9776   3.601   1.489   0.728 -0.2569 -0.0898  0.4508
   7423SM  H12F 9777   3.659   1.403   0.689 -1.6916 -0.4754 -0.9259
   7423SM  H12G 9778   3.667   1.578   0.740 -1.1483  0.5065  1.1059
   7423SM  C13F 9779   3.491   1.510   0.624  0.3354  0.0435 -0.1974
   7423SM  H13F 9780   3.413   1.574   0.670 -0.5306 -0.2171 -1.2754
   7423SM  H13G 9781   3.454   1.406   0.610  1.0305 -0.0368 -1.6047
   7423SM  C14F 9782   3.542   1.567   0.494  0.3555 -0.4712  0.1211
   7423SM  H14F 9783   3.631   1.509   0.460  0.7505 -0.0801  0.4927
   7423SM  H14G 9784   3.577   1.670   0.513 -1.3436  0.0733  0.4920
   7423SM  C15F 9785   3.437   1.565   0.380  0.1052 -0.5454  0.8787
   7423SM  H15F 9786   3.351   1.623   0.420 -0.1303  0.8064 -1.4115
   7423SM  H15G 9787   3.413   1.465   0.338  4.0644 -0.8360 -1.1779
   7423SM  C16F 9788   3.496   1.639   0.254 -0.7159  0.2907  0.2048
   7423SM  H16F 9789   3.504   1.747   0.279 -1.9145  0.0338  1.8800
   7423SM  H16G 9790   3.422   1.640   0.172 -0.0311 -1.1409 -0.4588
   7423SM  C17F 9791   3.626   1.576   0.199  0.2808 -0.1018 -0.0282
   7423SM  H17F 9792   3.705   1.608   0.271 -0.0322 -2.2648  1.3555
   7423SM  H17G 9793   3.652   1.629   0.105  1.0844 -1.2146 -0.4489
   7423SM  C18F 9794   3.618   1.425   0.170 -0.5566 -0.1774 -0.5729
   7423SM  H18F 9795   3.535   1.408   0.098 -1.3333 -1.8036  0.6266
   7423SM  H18G 9796   3.606   1.378   0.270  1.9797 -0.8285 -0.5259
   7423SM  C19F 9797   3.744   1.362   0.139  0.1482  0.0130  0.3340
   7423SM  H19F 9798   3.748   1.256   0.173 -0.5590  0.3214  1.4337
   7423SM  H19G 9799   3.820   1.414   0.202 -0.4212  1.7305 -0.3309
   7423SM  C20F 9800   3.769   1.371  -0.014 -0.6872 -0.2486  0.2232
   7423SM  H20F 9801   3.877   1.350  -0.027 -0.3216  0.7325  1.4282
   7423SM  H20G 9802   3.758   1.475  -0.052  1.9772 -0.8561 -2.5946
   7423SM  C21F 9803   3.689   1.266  -0.092  0.1149  0.7135  0.0682
   7423SM  H21F 9804   3.581   1.287  -0.079  0.1026  0.9826 -0.4595
   7423SM  H21G 9805   3.716   1.164  -0.060 -0.8320  0.8450  1.3795
   7423SM  C22F 9806   3.713   1.270  -0.241  0.9487  0.3500  0.3351
   7423SM  H22F 9807   3.664   1.362  -0.280 -1.2451  0.2112  2.5183
   7423SM  H22G 9808   3.676   1.180  -0.295  0.8072  2.5289 -3.5885
   7423SM  C23F 9809   3.863   1.278  -0.288  0.4452 -0.6821  0.1237
   7423SM  H23F 9810   3.927   1.205  -0.236  0.6004  0.2918  1.3456
   7423SM  H23G 9811   3.905   1.379  -0.269 -0.6253  0.2374 -1.9321
   7423SM  H23H 9812   3.870   1.266  -0.399  3.9430 -1.0826  0.2944
   7523SM     N 9813   2.190   2.892   2.771  0.0166 -0.2685 -0.7904
   7523SM   C15 9814   2.118   2.780   2.841  0.5741 -0.5068 -0.6315
   7523SM  H15A 9815   2.107   2.690   2.782  1.6296 -1.4130  0.4855
   7523SM  H15B 9816   2.023   2.814   2.881  1.4978 -0.0242  1.3055
   7523SM  H15C 9817   2.173   2.757   2.932 -1.4659  0.6698  0.9905
   7523SM   C14 9818   2.176   3.022   2.848 -0.8268  0.1970 -0.4037
   7523SM  H14A 9819   2.211   3.105   2.789 -0.7984  2.1367  2.2011
   7523SM  H14B 9820   2.240   3.028   2.934 -1.5099  0.3933  0.0955
   7523SM  H14C 9821   2.077   3.042   2.886 -0.9986  1.5449 -1.4872
   7523SM   C13 9822   2.338   2.856   2.767 -0.9113  0.4931 -0.2380
   7523SM  H13A 9823   2.393   2.907   2.689  1.6149 -2.1129 -0.3319
   7523SM  H13B 9824   2.351   2.749   2.757  0.2384  0.5083  0.7716
   7523SM  H13C 9825   2.388   2.886   2.858  0.2412 -0.5706 -0.4966
   7523SM   C12 9826   2.126   2.907   2.632 -0.4117  0.4553  0.2718
   7523SM  H12A 9827   2.169   3.001   2.600  1.0079 -0.1543  0.3519
   7523SM  H12B 9828   2.019   2.915   2.648 -0.5385 -2.2401  1.2005
   7523SM   C11 9829   2.139   2.793   2.529  0.5598 -0.7481  0.5176
   7523SM  H11A 9830   2.244   2.760   2.516  0.7455 -0.2605  0.7552
   7523SM  H11B 9831   2.112   2.831   2.428  0.4753 -2.0200  0.0356
   7523SM     P 9832   1.906   2.682   2.525 -0.2613  0.1395 -0.3467
   7523SM   O13 9833   1.838   2.565   2.584 -0.1245  0.6978 -0.3277
   7523SM   O14 9834   1.851   2.813   2.568  0.2690  0.5101  0.2965
   7523SM   O11 9835   1.909   2.676   2.362  0.2108 -0.4444 -0.3741
   7523SM   O12 9836   2.058   2.682   2.567 -0.3395 -0.2662 -0.0548
   7523SM   C1S 9837   1.984   2.582   2.290  0.3320 -0.3619 -0.1173
   7523SM   H1S 9838   1.937   2.482   2.305 -2.0835 -0.2349 -4.9497
   7523SM   H1T 9839   2.093   2.581   2.312  0.1281  0.5602  1.0218
   7523SM    NF 9840   2.018   2.470   2.071  0.7705  0.5457 -0.0675
   7523SM   HNF 9841   2.091   2.490   2.005 -0.6703  1.2342 -1.5362
   7523SM   C2S 9842   1.959   2.590   2.137 -0.1613 -0.5118 -0.3242
   7523SM   H2S 9843   1.850   2.590   2.114 -0.2646 -0.2120  0.1591
   7523SM   C3S 9844   2.010   2.731   2.082 -0.0941  0.0650  0.8667
   7523SM   H3S 9845   2.121   2.730   2.091 -0.0242 -1.4633  0.1735
   7523SM    O3 9846   1.976   2.843   2.168  0.8015  0.0251 -0.0629
   7523SM   HO3 9847   1.922   2.800   2.235  0.9849  2.3636  1.7298
   7523SM   C4S 9848   1.969   2.741   1.941 -0.8858  0.2456  0.6351
   7523SM   H4S 9849   1.878   2.682   1.924  1.8257 -4.4631  0.7762
   7523SM   C5S 9850   2.051   2.772   1.832  0.4674  0.2862 -0.3288
   7523SM   H5S 9851   2.155   2.797   1.859  0.4890  0.3082 -0.4317
   7523SM   C6S 9852   2.010   2.737   1.692  0.3513 -0.1108 -0.1873
   7523SM   H6S 9853   2.005   2.822   1.621 -3.9838 -0.0059 -0.0051
   7523SM   H6T 9854   1.908   2.694   1.697 -0.7013  2.3793  1.3628
   7523SM   C7S 9855   2.103   2.628   1.625 -0.1549 -0.0367  0.3435
   7523SM   H7S 9856   2.099   2.543   1.697  0.5970  0.1252  0.5886
   7523SM   H7T 9857   2.206   2.670   1.621  0.2664 -0.8899  1.4598
   7523SM   C8S 9858   2.068   2.587   1.488 -0.3534 -0.0554  1.5059
   7523SM   H8S 9859   2.106   2.660   1.414  1.3597 -0.7196  1.6813
   7523SM   H8T 9860   1.957   2.580   1.492 -0.3116 -0.6065  1.8618
   7523SM   C9S 9861   2.117   2.447   1.440 -0.2918 -0.9251 -0.2384
   7523SM   H9S 9862   2.104   2.373   1.521 -1.5849 -0.6008 -0.1372
   7523SM   H9T 9863   2.225   2.461   1.416  0.2520 -2.1465  1.3549
   7523SM  C10S 9864   2.061   2.392   1.308  0.1783  0.5199  0.7268
   7523SM  H10S 9865   1.951   2.383   1.324 -0.0709  0.5900 -0.7906
   7523SM  H10T 9866   2.094   2.290   1.282  1.9249  0.6134  2.4051
   7523SM  C11S 9867   2.084   2.486   1.192  0.3017 -0.4343  0.2090
   7523SM  H11S 9868   2.165   2.555   1.224 -1.9178  1.3334  2.4477
   7523SM  H11T 9869   1.996   2.554   1.187  1.1367  0.6336 -0.6004
   7523SM  C12S 9870   2.080   2.406   1.058 -0.5040 -0.0765  0.4330
   7523SM  H12S 9871   1.983   2.356   1.038 -0.1125 -0.0165 -1.8212
   7523SM  H12T 9872   2.152   2.321   1.057  0.7760  0.9070 -2.8983
   7523SM  C13S 9873   2.114   2.489   0.928  0.2448 -0.6246 -0.5272
   7523SM  H13S 9874   2.219   2.525   0.930 -0.7549  2.6179  1.5204
   7523SM  H13T 9875   2.038   2.568   0.908 -1.4894 -1.5807  1.7228
   7523SM  C14S 9876   2.097   2.412   0.794  0.4044  0.2098 -0.8651
   7523SM  H14S 9877   2.012   2.449   0.733  0.6245 -1.5077 -2.2908
   7523SM  H14T 9878   2.074   2.307   0.823  2.1123 -0.3160 -1.2831
   7523SM  C15S 9879   2.216   2.412   0.694  0.5875 -0.0507 -0.0549
   7523SM  H15S 9880   2.307   2.373   0.745  0.7856  1.9454  1.1979
   7523SM  H15T 9881   2.239   2.518   0.671  0.8606 -0.4547 -1.7571
   7523SM  C16S 9882   2.189   2.338   0.566  0.6615  0.4008  0.8628
   7523SM  H16S 9883   2.086   2.361   0.529  1.6294  2.4759 -0.7523
   7523SM  H16T 9884   2.200   2.231   0.592  2.2367  0.5218  0.7527
   7523SM  C17S 9885   2.291   2.361   0.450  0.0503  0.2368  0.7649
   7523SM  H17S 9886   2.236   2.326   0.360  0.4010  0.7648  0.3340
   7523SM  H17T 9887   2.378   2.295   0.469  2.8769  3.1608 -0.9784
   7523SM  C18S 9888   2.318   2.507   0.416 -0.1106  0.1764 -0.4149
   7523SM  H18S 9889   2.358   2.516   0.313 -1.2405 -0.7861 -0.9595
   7523SM  H18T 9890   2.386   2.556   0.489 -0.1371 -0.1552 -0.1631
   7523SM  H18U 9891   2.222   2.563   0.415  0.5608  1.3628 -0.0588
   7523SM   C1F 9892   1.977   2.343   2.087  0.0100  0.4099  0.5410
   7523SM    OF 9893   1.878   2.315   2.152 -0.4692  0.5584  0.1981
   7523SM   C2F 9894   2.062   2.232   2.032 -0.3750 -0.2779  0.5948
   7523SM   H2F 9895   2.146   2.220   2.104 -1.0484 -0.8286  1.3076
   7523SM   H2G 9896   2.108   2.256   1.934 -0.1225  0.4229  0.8765
   7523SM   C3F 9897   1.987   2.098   2.036  0.9793  0.3519  0.6188
   7523SM   H3F 9898   1.934   2.085   2.132  0.1184 -0.1403  0.0961
   7523SM   H3G 9899   2.067   2.024   2.012  3.2001  3.1349 -1.2139
   7523SM   C4F 9900   1.877   2.087   1.923  0.3130 -0.7622 -0.4400
   7523SM   H4F 9901   1.789   2.146   1.957 -0.9885 -1.0674 -3.0534
   7523SM   H4G 9902   1.845   1.980   1.918  4.2493 -2.2478  1.7540
   7523SM   C5F 9903   1.917   2.134   1.782  0.2235 -0.5969 -0.6599
   7523SM   H5F 9904   2.027   2.130   1.772  0.1260  0.3678 -2.3744
   7523SM   H5G 9905   1.896   2.242   1.767 -2.9752 -1.1328 -0.7730
   7523SM   C6F 9906   1.869   2.043   1.677  0.0070 -0.0281  0.2428
   7523SM   H6F 9907   1.764   2.078   1.669 -0.6058 -1.7322  0.3827
   7523SM   H6G 9908   1.873   1.935   1.704 -0.8965 -0.2514 -0.4595
   7523SM   C7F 9909   1.945   2.078   1.541 -0.0421  0.1268 -1.1543
   7523SM   H7F 9910   2.051   2.060   1.571 -0.5961 -0.0708  0.8530
   7523SM   H7G 9911   1.939   2.188   1.531 -1.4340  0.6882  3.5026
   7523SM   C8F 9912   1.905   1.982   1.434  0.4532  0.2400 -0.6389
   7523SM   H8F 9913   1.920   1.877   1.469  0.1833 -0.0730 -1.4434
   7523SM   H8G 9914   1.970   1.992   1.345  0.6357  0.4547 -0.4817
   7523SM   C9F 9915   1.768   2.004   1.361  0.1202  0.2289 -0.8373
   7523SM   H9F 9916   1.697   2.053   1.431 -0.3164 -0.8270 -0.5185
   7523SM   H9G 9917   1.725   1.907   1.326  1.2216 -0.4012 -0.4868
   7523SM  C10F 9918   1.787   2.088   1.235  0.4473 -0.8271  0.1358
   7523SM  H10F 9919   1.833   2.037   1.148 -1.4396 -1.2384 -0.6837
   7523SM  H10G 9920   1.857   2.172   1.252 -0.2797  0.0921 -1.2070
   7523SM  C11F 9921   1.646   2.153   1.194 -0.2071 -0.1300 -0.9930
   7523SM  H11F 9922   1.610   2.206   1.285 -1.0967 -1.4473 -0.5384
   7523SM  H11G 9923   1.564   2.079   1.176 -0.2737 -0.1945 -0.4400
   7523SM  C12F 9924   1.667   2.238   1.072 -0.3807  0.2049 -0.3449
   7523SM  H12F 9925   1.746   2.315   1.087  0.6541 -1.1451  1.4651
   7523SM  H12G 9926   1.575   2.299   1.059 -0.6916 -0.0911  0.3824
   7523SM  C13F 9927   1.705   2.149   0.953  0.4420 -0.1464  0.0458
   7523SM  H13F 9928   1.627   2.070   0.942  2.3317 -2.5129  2.2358
   7523SM  H13G 9929   1.804   2.100   0.965  0.0017 -1.3720 -1.0850
   7523SM  C14F 9930   1.720   2.224   0.816  0.5467  0.0721  0.2002
   7523SM  H14F 9931   1.791   2.307   0.835  1.2722 -0.6019  0.4822
   7523SM  H14G 9932   1.635   2.273   0.763  0.9697 -1.8756 -2.4564
   7523SM  C15F 9933   1.763   2.130   0.703 -0.3141  0.0431  0.9722
   7523SM  H15F 9934   1.706   2.035   0.717  0.0264 -0.0063  2.1070
   7523SM  H15G 9935   1.871   2.107   0.716  0.2167  1.9226  0.2662
   7523SM  C16F 9936   1.747   2.198   0.570 -0.4841 -0.0132 -0.5246
   7523SM  H16F 9937   1.781   2.303   0.574  0.3391 -0.2609 -0.8949
   7523SM  H16G 9938   1.646   2.182   0.527  0.4094 -0.2860 -2.6347
   7523SM  C17F 9939   1.840   2.130   0.474  0.2669  0.2166 -0.1851
   7523SM  H17F 9940   1.816   2.022   0.466 -3.5987  1.0060 -1.4711
   7523SM  H17G 9941   1.948   2.151   0.493 -0.0702  2.6206 -0.6062
   7523SM  C18F 9942   1.812   2.186   0.334  0.7044  0.5586 -0.3999
   7523SM  H18F 9943   1.829   2.295   0.326 -0.3218  0.6720 -1.2909
   7523SM  H18G 9944   1.708   2.158   0.306  0.7617 -1.2421  1.0293
   7523SM  C19F 9945   1.905   2.123   0.224  0.2867  0.3247 -0.0987
   7523SM  H19F 9946   1.893   2.013   0.218  0.2702  0.2776  0.6344
   7523SM  H19G 9947   2.008   2.131   0.264  0.2707 -1.4175  0.3555
   7523SM  C20F 9948   1.907   2.206   0.097 -0.0131  0.5130  0.3843
   7523SM  H20F 9949   1.959   2.301   0.121  0.1821  0.3391  0.6524
   7523SM  H20G 9950   1.806   2.218   0.052 -1.0422 -0.5638  2.3032
   7523SM  C21F 9951   1.984   2.138  -0.029  0.3296 -0.2525 -0.0158
   7523SM  H21F 9952   1.964   2.203  -0.116  0.8109  1.2967  1.0026
   7523SM  H21G 9953   1.947   2.033  -0.038  1.1810 -0.5733  0.1817
   7523SM  C22F 9954   2.133   2.138  -0.006  0.2922  0.6649  0.2027
   7523SM  H22F 9955   2.156   2.064   0.073 -2.3805  1.0098  1.4295
   7523SM  H22G 9956   2.161   2.239   0.030  2.3836 -0.3420  1.5696
   7523SM  C23F 9957   2.208   2.082  -0.125 -0.6617 -0.3338  0.5497
   7523SM  H23F 9958   2.155   1.990  -0.158 -1.0058 -0.0693  0.3683
   7523SM  H23G 9959   2.309   2.044  -0.097 -0.0668  2.0884  1.9937
   7523SM  H23H 9960   2.209   2.155  -0.208  0.1717  1.1327  1.7945
   7623SM     N 9961   2.738   2.094   2.406 -0.1647  0.2493  0.0404
   7623SM   C15 9962   2.734   1.966   2.318 -0.1648  0.0188  1.1193
   7623SM  H15A 9963   2.813   1.964   2.244 -1.7698  0.4726 -0.6862
   7623SM  H15B 9964   2.646   1.955   2.256 -0.9284  1.6930  1.8389
   7623SM  H15C 9965   2.751   1.875   2.374  1.7533 -0.2729  0.1402
   7623SM   C14 9966   2.868   2.096   2.479 -1.5117 -0.2233 -0.2579
   7623SM  H14A 9967   2.952   2.081   2.413 -1.1643 -0.5708  0.2567
   7623SM  H14B 9968   2.869   2.029   2.563 -1.7268 -0.9135 -0.7968
   7623SM  H14C 9969   2.887   2.193   2.522  3.1364 -1.0391 -0.0157
   7623SM   C13 9970   2.732   2.211   2.312  0.4360  0.4253 -0.1669
   7623SM  H13A 9971   2.630   2.228   2.282  0.3238 -0.8898 -0.6122
   7623SM  H13B 9972   2.813   2.192   2.242  1.4311 -0.1957  1.0970
   7623SM  H13C 9973   2.752   2.307   2.356  1.2330 -0.2799  1.0798
   7623SM   C12 9974   2.614   2.090   2.496  0.3976 -0.3852 -0.6683
   7623SM  H12A 9975   2.609   2.185   2.547  1.4287  1.7174 -4.1321
   7623SM  H12B 9976   2.618   2.008   2.566  0.7739 -0.6852 -1.0365
   7623SM   C11 9977   2.472   2.080   2.417  0.4181  0.9377 -0.6886
   7623SM  H11A 9978   2.400   2.065   2.500 -1.3102  0.9097 -2.1422
   7623SM  H11B 9979   2.473   1.990   2.352  1.4457  1.0768 -0.8822
   7623SM     P 9980   2.306   2.276   2.363 -0.1112 -0.3420 -0.2833
   7623SM   O13 9981   2.204   2.173   2.341 -0.2464  0.0759  0.1681
   7623SM   O14 9982   2.319   2.333   2.497 -0.1887  0.2384 -0.4019
   7623SM   O11 9983   2.301   2.393   2.248 -0.3848 -0.6463  0.5411
   7623SM   O12 9984   2.444   2.196   2.337 -0.0694  0.5409  0.0201
   7623SM   C1S 9985   2.396   2.406   2.145 -0.1358  0.3650  0.3669
   7623SM   H1S 9986   2.360   2.336   2.066 -2.1411  1.5172  0.1957
   7623SM   H1T 9987   2.499   2.379   2.175 -0.2933 -1.5299 -0.6394
   7623SM    NF 9988   2.444   2.540   1.938  0.5404  0.4190  0.6291
   7623SM   HNF 9989   2.533   2.580   1.917  0.4856  0.9912  1.4181
   7623SM   C2S 9990   2.395   2.542   2.075 -0.1572 -0.3067  0.9249
   7623SM   H2S 9991   2.292   2.582   2.076 -0.0410  0.3614 -2.4830
   7623SM   C3S 9992   2.461   2.652   2.167  0.0823 -0.6346 -0.6561
   7623SM   H3S 9993   2.567   2.629   2.190  0.6017  0.9437 -1.2943
   7623SM    O3 9994   2.412   2.658   2.306  0.4298 -0.0772  0.2881
   7623SM   HO3 9995   2.355   2.581   2.301 -1.0500  1.0040 -0.2497
   7623SM   C4S 9996   2.476   2.790   2.097  0.4842  0.7992 -0.4326
   7623SM   H4S 9997   2.564   2.799   2.031 -0.9600 -1.0130 -2.7818
   7623SM   C5S 9998   2.384   2.885   2.098  0.1797 -0.0676 -0.3210
   7623SM   H5S 9999   2.307   2.883   2.176  0.1445  0.4031 -0.3384
   7623SM   C6S10000   2.392   3.028   2.048  0.2520 -0.0506  0.1803
   7623SM   H6S10001   2.496   3.058   2.023  0.6287 -1.2473  0.2493
   7623SM   H6T10002   2.343   3.102   2.115 -0.2682  1.2279 -1.5494
   7623SM   C7S10003   2.326   3.074   1.914  0.4361  0.8113 -0.6453
   7623SM   H7S10004   2.330   3.184   1.904 -0.8167  0.7760 -1.9626
   7623SM   H7T10005   2.222   3.036   1.919  0.5552  0.2578 -1.9967
   7623SM   C8S10006   2.389   3.015   1.787  0.4278  0.7714  1.1220
   7623SM   H8S10007   2.373   2.905   1.781  2.8960  0.4159 -1.3812
   7623SM   H8T10008   2.498   3.020   1.805  0.5924 -1.2089  0.9203
   7623SM   C9S10009   2.346   3.075   1.653 -0.0841 -0.4286 -0.6824
   7623SM   H9S10010   2.424   3.046   1.579 -0.2628  1.3149 -1.6075
   7623SM   H9T10011   2.343   3.186   1.660  0.6003 -0.4727  0.4263
   7623SM  C10S10012   2.208   3.032   1.610  0.1131 -0.4399  0.0378
   7623SM  H10S10013   2.143   3.025   1.700  2.3835  1.3174  1.9315
   7623SM  H10T10014   2.206   2.926   1.577  1.0003 -0.7307  0.8776
   7623SM  C11S10015   2.156   3.117   1.495  0.5206  0.2887 -0.0947
   7623SM  H11S10016   2.206   3.216   1.510 -0.1014  0.2939  2.2741
   7623SM  H11T10017   2.046   3.131   1.494  0.0296 -2.8513  0.9986
   7623SM  C12S10018   2.193   3.059   1.354 -0.0142 -0.4751  0.3769
   7623SM  H12S10019   2.300   3.030   1.355 -0.3453 -1.7701  0.9049
   7623SM  H12T10020   2.186   3.147   1.286  0.3708 -1.5561 -1.1120
   7623SM  C13S10021   2.111   2.941   1.308 -0.1932  0.4188  0.3200
   7623SM  H13S10022   2.006   2.975   1.293 -1.6625 -3.3900  0.8136
   7623SM  H13T10023   2.114   2.873   1.395 -0.5873 -0.0505 -0.0244
   7623SM  C14S10024   2.168   2.888   1.177  0.3283 -0.0114  0.8713
   7623SM  H14S10025   2.169   2.777   1.171 -0.7454 -0.1316  2.2190
   7623SM  H14T10026   2.271   2.928   1.171 -0.5290  2.5046  1.5389
   7623SM  C15S10027   2.093   2.942   1.053  0.7956  0.0197  0.0056
   7623SM  H15S10028   2.089   3.053   1.057  2.0567  0.0498  2.6651
   7623SM  H15T10029   1.987   2.910   1.048  1.1288 -0.9487 -1.7654
   7623SM  C16S10030   2.165   2.900   0.923  0.0260 -0.4899 -0.2160
   7623SM  H16S10031   2.157   2.790   0.928 -2.1843 -0.3481  0.6102
   7623SM  H16T10032   2.269   2.936   0.940 -0.2653 -0.7861  2.6649
   7623SM  C17S10033   2.109   2.969   0.797  0.1689  0.0329 -0.8740
   7623SM  H17S10034   2.124   3.079   0.805  2.6905 -0.3197  0.1121
   7623SM  H17T10035   2.001   2.947   0.794 -0.4521  2.3973  1.0495
   7623SM  C18S10036   2.164   2.922   0.662  0.0073 -0.1631  0.2832
   7623SM  H18S10037   2.274   2.935   0.663 -0.2494  2.5922  0.7313
   7623SM  H18T10038   2.118   2.982   0.581 -1.4041 -0.5710  0.7391
   7623SM  H18U10039   2.135   2.817   0.638  1.3190 -0.4161 -0.2919
   7623SM   C1F10040   2.371   2.492   1.838 -0.1514 -0.7032 -0.3532
   7623SM    OF10041   2.259   2.452   1.858  0.0980  0.4851 -0.1850
   7623SM   C2F10042   2.440   2.486   1.706  0.5723  0.1636 -0.4937
   7623SM   H2F10043   2.358   2.473   1.632 -0.0420 -0.0527  0.2066
   7623SM   H2G10044   2.494   2.389   1.700 -1.1739 -0.9383  0.6155
   7623SM   C3F10045   2.545   2.602   1.677  0.3838  0.4082 -0.4297
   7623SM   H3F10046   2.634   2.568   1.734  0.4040 -0.0879 -0.7514
   7623SM   H3G10047   2.501   2.702   1.694 -0.3264 -0.1442  1.3290
   7623SM   C4F10048   2.601   2.606   1.536  0.2493  0.4648  0.1708
   7623SM   H4F10049   2.642   2.508   1.506  1.8015  1.9665 -3.0927
   7623SM   H4G10050   2.693   2.668   1.539  1.4653 -1.2051 -0.9584
   7623SM   C5F10051   2.508   2.654   1.424  0.2088  0.5433 -0.8444
   7623SM   H5F10052   2.447   2.742   1.454 -2.1900 -1.1181 -0.4824
   7623SM   H5G10053   2.444   2.568   1.393  1.8499 -0.3215 -1.9489
   7623SM   C6F10054   2.594   2.672   1.303 -0.7341 -0.0189 -0.1267
   7623SM   H6F10055   2.641   2.573   1.286 -0.8333 -0.4033  1.7032
   7623SM   H6G10056   2.663   2.757   1.323 -1.2876  0.1091  1.3161
   7623SM   C7F10057   2.512   2.701   1.173  0.5523 -0.3009  0.1363
   7623SM   H7F10058   2.460   2.798   1.185  1.9523  0.2911  1.7551
   7623SM   H7G10059   2.438   2.626   1.137  0.5391 -1.2715  2.0736
   7623SM   C8F10060   2.615   2.728   1.064 -0.3664 -0.3558 -0.9736
   7623SM   H8F10061   2.687   2.645   1.052 -0.1768 -0.5609  1.2114
   7623SM   H8G10062   2.673   2.808   1.116 -1.3668 -1.5465  2.2374
   7623SM   C9F10063   2.550   2.757   0.926 -0.0311  0.2191  0.1860
   7623SM   H9F10064   2.489   2.850   0.931 -1.5240 -0.7675  1.2269
   7623SM   H9G10065   2.481   2.671   0.908  1.6778 -1.3482  0.8269
   7623SM  C10F10066   2.658   2.763   0.819  0.1099  0.2182 -0.3725
   7623SM  H10F10067   2.705   2.662   0.818 -0.9866 -0.3285 -2.1471
   7623SM  H10G10068   2.737   2.838   0.837  0.2805 -0.0421 -0.0225
   7623SM  C11F10069   2.599   2.799   0.684  0.3308 -0.2124 -0.6494
   7623SM  H11F10070   2.555   2.901   0.686  2.2562  0.7683  3.4134
   7623SM  H11G10071   2.517   2.725   0.674  0.0225  0.2394 -1.4990
   7623SM  C12F10072   2.689   2.786   0.568 -0.9827  0.0525  0.2410
   7623SM  H12F10073   2.720   2.679   0.570 -0.2680  0.2328 -0.4931
   7623SM  H12G10074   2.783   2.845   0.577 -1.9194  1.5810  0.3069
   7623SM  C13F10075   2.623   2.809   0.425  0.2231 -0.2480  0.0787
   7623SM  H13F10076   2.569   2.906   0.423  1.9047  0.8011  1.7838
   7623SM  H13G10077   2.557   2.722   0.407 -0.5727  0.4550 -0.5016
   7623SM  C14F10078   2.737   2.827   0.323  0.3074 -0.8854 -0.0378
   7623SM  H14F10079   2.816   2.750   0.334  2.2355  0.7632 -1.5138
   7623SM  H14G10080   2.793   2.920   0.345 -3.0735  1.3333  0.0660
   7623SM  C15F10081   2.696   2.831   0.166  0.2469  0.0510 -0.7414
   7623SM  H15F10082   2.630   2.919   0.156  0.4142  0.1706 -0.7958
   7623SM  H15G10083   2.640   2.737   0.145  2.7424 -1.1185 -2.6972
   7623SM  C16F10084   2.815   2.848   0.071 -0.0193 -0.0403 -0.1431
   7623SM  H16F10085   2.762   2.836  -0.025 -0.8286  0.1303  0.2778
   7623SM  H16G10086   2.893   2.768   0.081  0.1014  0.0512 -0.3420
   7623SM  C17F10087   2.889   2.979   0.079 -0.8843 -0.3803  0.7365
   7623SM  H17F10088   2.942   2.981   0.177 -3.3864  1.3463  2.1942
   7623SM  H17G10089   2.804   3.050   0.092 -0.8035 -0.6664  3.5796
   7623SM  C18F10090   2.997   2.997  -0.031 -0.2053  0.5234 -0.4947
   7623SM  H18F10091   2.969   3.047  -0.126 -1.5791  0.8229  0.0482
   7623SM  H18G10092   3.003   2.893  -0.069 -2.9761  0.4918 -1.0823
   7623SM  C19F10093   3.131   3.034   0.027  0.2155  0.3244  0.1412
   7623SM  H19F10094   3.170   2.965   0.104  0.4373  0.3574  0.0583
   7623SM  H19G10095   3.126   3.130   0.082  1.7430 -0.7393  2.2443
   7623SM  C20F10096   3.237   3.050  -0.083 -0.2508 -0.6112 -0.2272
   7623SM  H20F10097   3.220   3.141  -0.144 -0.5517 -0.8421 -0.4916
   7623SM  H20G10098   3.229   2.955  -0.140 -1.0150 -0.5376 -0.2540
   7623SM  C21F10099   3.376   3.063  -0.026 -0.0514  0.2614 -0.6537
   7623SM  H21F10100   3.386   3.000   0.066 -1.2460  0.5411 -0.3202
   7623SM  H21G10101   3.390   3.166   0.014  0.4324  0.0575 -0.2786
   7623SM  C22F10102   3.488   3.023  -0.131 -0.1998  0.2845  0.5877
   7623SM  H22F10103   3.471   3.080  -0.225  1.9923  0.4929  0.2555
   7623SM  H22G10104   3.475   2.916  -0.157  0.5436  0.5981 -1.2136
   7623SM  C23F10105   3.635   3.050  -0.088 -0.2135  0.1280 -0.2985
   7623SM  H23F10106   3.681   2.971  -0.024  2.1595  0.1184 -1.8727
   7623SM  H23G10107   3.638   3.145  -0.031  0.8402 -0.2112  0.2465
   7623SM  H23H10108   3.704   3.065  -0.174 -1.8930  1.1600 -1.5286
   7723SM     N10109   3.036  -1.090   2.651 -0.8676  0.1692 -0.1032
   7723SM   C1510110   3.004  -1.212   2.722  0.1999  0.3326 -0.7784
   7723SM  H15A10111   3.046  -1.295   2.668 -1.3955 -1.2940  0.3803
   7723SM  H15B10112   2.896  -1.218   2.726  0.0617  1.8215 -1.4090
   7723SM  H15C10113   3.043  -1.223   2.822  0.3815  3.0349 -0.4620
   7723SM   C1410114   3.189  -1.064   2.660 -0.2440  0.4348  1.0075
   7723SM  H14A10115   3.225  -1.048   2.760  0.0629 -1.5049  1.2449
   7723SM  H14B10116   3.216  -0.980   2.597 -1.6981  0.5544  0.5180
   7723SM  H14C10117   3.251  -1.146   2.626 -0.4409  0.1279  1.3896
   7723SM   C1310118   3.002  -1.100   2.507  0.2149  0.5875 -0.1459
   7723SM  H13A10119   3.041  -1.189   2.459  0.1824  0.6725 -0.3298
   7723SM  H13B10120   3.031  -1.011   2.452  0.0861  0.1767 -0.9011
   7723SM  H13C10121   2.894  -1.108   2.506  0.1163  1.4553  1.1603
   7723SM   C1210122   2.971  -0.974   2.718 -0.0652 -0.5282 -0.6876
   7723SM  H12A10123   2.991  -0.994   2.823 -0.2218  0.9391 -0.3532
   7723SM  H12B10124   2.863  -0.980   2.713 -0.3656  1.9397  0.7753
   7723SM   C1110125   3.018  -0.833   2.677  0.0118  0.3945 -0.3422
   7723SM  H11A10126   3.126  -0.826   2.702  0.1624 -2.0519 -0.0441
   7723SM  H11B10127   2.958  -0.762   2.738  0.7524  0.2391  0.5840
   7723SM     P10128   2.871  -0.770   2.474  0.1151 -0.0754 -0.2356
   7723SM   O1310129   2.754  -0.829   2.548  0.1562 -0.2791 -0.5159
   7723SM   O1410130   2.867  -0.630   2.424  0.1139  0.3042 -0.1305
   7723SM   O1110131   2.875  -0.857   2.345 -0.0935  0.2805  0.0029
   7723SM   O1210132   3.011  -0.810   2.535 -0.4792 -0.0492 -0.0956
   7723SM   C1S10133   2.972  -0.831   2.247  0.1807  0.5719 -0.0825
   7723SM   H1S10134   3.025  -0.927   2.232 -1.5996 -0.4942  0.1604
   7723SM   H1T10135   3.035  -0.743   2.272  1.4200 -0.5299  0.7293
   7723SM    NF10136   3.010  -0.782   2.006 -0.1301 -0.3353 -0.0697
   7723SM   HNF10137   3.017  -0.694   1.960 -1.4070 -0.6900 -0.9920
   7723SM   C2S10138   2.908  -0.799   2.110 -0.6558 -0.0891  0.2528
   7723SM   H2S10139   2.860  -0.898   2.093  0.8440 -0.8003  0.0407
   7723SM   C3S10140   2.804  -0.687   2.107  1.2341 -0.4772 -0.0402
   7723SM   H3S10141   2.848  -0.586   2.126 -0.0605 -0.0955  1.1067
   7723SM    O310142   2.696  -0.699   2.198  0.1463  0.1273  0.1600
   7723SM   HO310143   2.714  -0.775   2.254 -0.1711 -0.7605 -0.9050
   7723SM   C4S10144   2.746  -0.665   1.977  0.1314 -0.1172  0.6810
   7723SM   H4S10145   2.665  -0.735   1.953 -1.3010  1.3660  0.9689
   7723SM   C5S10146   2.765  -0.572   1.879 -0.4904  0.2643 -0.5240
   7723SM   H5S10147   2.834  -0.487   1.886 -0.6946  0.8582 -3.8084
   7723SM   C6S10148   2.691  -0.576   1.750  0.0983  0.0240 -0.7745
   7723SM   H6S10149   2.625  -0.487   1.748  0.6413  0.4243 -2.0004
   7723SM   H6T10150   2.646  -0.677   1.741 -0.4210  0.0952  0.6757
   7723SM   C7S10151   2.786  -0.561   1.628  0.1730 -0.5004 -0.0762
   7723SM   H7S10152   2.863  -0.641   1.627  1.2531  0.4683 -2.6638
   7723SM   H7T10153   2.829  -0.459   1.630 -1.1897  0.1098 -0.4078
   7723SM   C8S10154   2.706  -0.563   1.498  0.7195  0.3036 -0.3731
   7723SM   H8S10155   2.638  -0.475   1.500  0.3636  0.0265  0.4046
   7723SM   H8T10156   2.651  -0.659   1.500  1.5235 -0.1605  0.4880
   7723SM   C9S10157   2.791  -0.550   1.366  0.1666 -0.6841  0.2434
   7723SM   H9S10158   2.860  -0.637   1.362  1.4410  0.3387 -0.3043
   7723SM   H9T10159   2.835  -0.449   1.373  0.2085 -0.4565 -2.3794
   7723SM  C10S10160   2.706  -0.552   1.235  0.0303 -0.7842  0.2996
   7723SM  H10S10161   2.643  -0.461   1.220 -0.4022 -1.4866 -2.6992
   7723SM  H10T10162   2.625  -0.629   1.238  1.0616 -1.8658  1.5287
   7723SM  C11S10163   2.800  -0.576   1.115  0.1327 -0.6532  0.6747
   7723SM  H11S10164   2.792  -0.682   1.081 -2.0512 -0.2001 -0.4151
   7723SM  H11T10165   2.905  -0.577   1.151 -0.0539  2.4858  1.6173
   7723SM  C12S10166   2.766  -0.472   1.003  0.4002  0.5180 -0.8619
   7723SM  H12S10167   2.795  -0.370   1.033  0.1595  0.4249 -0.3010
   7723SM  H12T10168   2.656  -0.480   0.995  0.5544 -0.4348 -2.6709
   7723SM  C13S10169   2.822  -0.519   0.870 -0.2664 -0.0646  0.5269
   7723SM  H13S10170   2.800  -0.628   0.867 -1.5980  0.1670  1.2501
   7723SM  H13T10171   2.930  -0.500   0.887 -0.3386  1.0094 -0.1314
   7723SM  C14S10172   2.749  -0.453   0.750 -1.2087  0.5217 -0.5401
   7723SM  H14S10173   2.754  -0.343   0.761  0.0169  0.5972 -1.6325
   7723SM  H14T10174   2.644  -0.490   0.760 -1.3304  1.2405  1.2751
   7723SM  C15S10175   2.815  -0.500   0.625  0.6498  0.0667  0.6803
   7723SM  H15S10176   2.775  -0.596   0.586 -0.3584  0.4163  0.8154
   7723SM  H15T10177   2.925  -0.512   0.619  0.5939  0.2724 -1.4163
   7723SM  C16S10178   2.792  -0.390   0.515  0.4426  0.4413  0.7057
   7723SM  H16S10179   2.838  -0.295   0.549  1.3665  0.4478 -0.4917
   7723SM  H16T10180   2.684  -0.365   0.526  0.4781  0.9422 -0.0253
   7723SM  C17S10181   2.828  -0.439   0.378  0.5255 -0.1630  0.3494
   7723SM  H17S10182   2.798  -0.544   0.356 -1.5753  0.3379  0.5879
   7723SM  H17T10183   2.938  -0.435   0.365  0.3836  3.5434 -1.0339
   7723SM  C18S10184   2.758  -0.358   0.268  0.0099  0.7002  0.2669
   7723SM  H18S10185   2.770  -0.383   0.161  1.8883 -0.5089  0.7180
   7723SM  H18T10186   2.801  -0.256   0.267 -0.6460  1.0046  1.3899
   7723SM  H18U10187   2.649  -0.343   0.284 -0.5967  0.3779 -2.8985
   7723SM   C1F10188   3.097  -0.873   1.952 -0.1069 -0.0258 -0.0916
   7723SM    OF10189   3.072  -0.993   1.963 -0.6359 -0.1331 -0.1309
   7723SM   C2F10190   3.212  -0.822   1.866 -0.4886 -0.9563 -0.3589
   7723SM   H2F10191   3.276  -0.753   1.925 -3.3067  3.1706 -1.6451
   7723SM   H2G10192   3.167  -0.756   1.788  1.1061  0.2109 -0.3357
   7723SM   C3F10193   3.285  -0.939   1.803  0.0734  0.3953 -0.1038
   7723SM   H3F10194   3.214  -0.992   1.735  0.6625 -1.8434  0.9183
   7723SM   H3G10195   3.325  -1.015   1.873  1.6147  0.4178 -0.9181
   7723SM   C4F10196   3.403  -0.891   1.710 -0.4619  0.1496  0.2277
   7723SM   H4F10197   3.438  -0.982   1.657 -5.0659 -0.8725 -1.5488
   7723SM   H4G10198   3.486  -0.862   1.777 -1.6493  1.7155  1.1097
   7723SM   C5F10199   3.361  -0.794   1.591 -0.8307 -0.4514 -0.1918
   7723SM   H5F10200   3.446  -0.737   1.548 -2.2662  1.6693 -0.3563
   7723SM   H5G10201   3.311  -0.709   1.642  1.0618  1.5208 -1.4687
   7723SM   C6F10202   3.277  -0.854   1.480 -0.1175 -0.3185  0.1063
   7723SM   H6F10203   3.188  -0.898   1.530 -0.1544 -0.8588 -0.4334
   7723SM   H6G10204   3.328  -0.942   1.436 -1.1968 -1.7617  1.6362
   7723SM   C7F10205   3.243  -0.763   1.358 -0.0718 -0.2787 -0.7333
   7723SM   H7F10206   3.336  -0.707   1.337  0.6803 -0.4877  1.8244
   7723SM   H7G10207   3.155  -0.698   1.377 -0.5624 -1.2626  0.5094
   7723SM   C8F10208   3.209  -0.849   1.230 -0.5130 -0.1646 -0.0194
   7723SM   H8F10209   3.134  -0.927   1.256 -0.4823 -0.6417 -1.2810
   7723SM   H8G10210   3.295  -0.913   1.203  0.7315  1.2769  0.4146
   7723SM   C9F10211   3.168  -0.766   1.104 -1.0663  0.1374  0.2211
   7723SM   H9F10212   3.250  -0.692   1.090 -1.2101  0.1165 -0.7649
   7723SM   H9G10213   3.069  -0.719   1.125 -1.3762  0.4666 -1.7941
   7723SM  C10F10214   3.159  -0.849   0.976  0.4683  0.1285 -0.3771
   7723SM  H10F10215   3.095  -0.936   1.002 -0.4697  1.1483  0.9000
   7723SM  H10G10216   3.262  -0.872   0.939  1.4727  0.3837  2.0548
   7723SM  C11F10217   3.102  -0.774   0.858  0.4898 -0.1269 -1.0528
   7723SM  H11F10218   3.168  -0.687   0.838 -0.5107  1.1115  0.6774
   7723SM  H11G10219   3.003  -0.735   0.890  2.3372  2.3720  2.2928
   7723SM  C12F10220   3.076  -0.871   0.744 -0.0618 -0.6555 -0.0732
   7723SM  H12F10221   3.002  -0.947   0.774 -0.3632 -0.6603 -0.8119
   7723SM  H12G10222   3.173  -0.923   0.730  0.7729  0.9954 -0.7077
   7723SM  C13F10223   3.048  -0.794   0.614 -0.2295  0.3311 -0.8535
   7723SM  H13F10224   3.131  -0.723   0.597  1.0815 -0.8393  0.3329
   7723SM  H13G10225   2.956  -0.740   0.644  0.0727  0.2735  0.2265
   7723SM  C14F10226   3.020  -0.895   0.498 -0.3198  0.1373 -0.6951
   7723SM  H14F10227   2.929  -0.954   0.518 -1.0085  0.9886 -1.2357
   7723SM  H14G10228   3.107  -0.962   0.483  1.9853  2.6761  0.4693
   7723SM  C15F10229   2.994  -0.831   0.366  0.4995 -0.8216  0.0775
   7723SM  H15F10230   2.903  -0.767   0.368 -1.4328 -3.3813  2.7276
   7723SM  H15G10231   2.961  -0.913   0.298  0.9568 -1.4278  0.5797
   7723SM  C16F10232   3.115  -0.763   0.308  0.6806 -0.0889 -0.1427
   7723SM  H16F10233   3.190  -0.844   0.323 -0.3568 -1.0669 -0.1110
   7723SM  H16G10234   3.152  -0.670   0.358 -2.0334  2.3258 -2.2739
   7723SM  C17F10235   3.104  -0.746   0.160 -0.2279 -0.2891 -0.2430
   7723SM  H17F10236   3.096  -0.853   0.130 -0.1230 -0.6275  0.9182
   7723SM  H17G10237   3.191  -0.707   0.103  0.1903 -0.3776  0.3287
   7723SM  C18F10238   2.986  -0.659   0.106  0.6779  0.1569 -0.5997
   7723SM  H18F10239   2.966  -0.573   0.173 -1.4532 -1.1793  0.6374
   7723SM  H18G10240   2.891  -0.717   0.099 -0.7239  2.4551 -2.0875
   7723SM  C19F10241   3.022  -0.615  -0.038 -0.3177  0.3633  0.2419
   7723SM  H19F10242   3.114  -0.552  -0.036 -0.7990  1.1428 -0.9310
   7723SM  H19G10243   2.937  -0.551  -0.070  0.8857  1.1033 -1.6790
   7723SM  C20F10244   3.040  -0.732  -0.133  0.0024 -0.8543  0.7023
   7723SM  H20F10245   2.961  -0.805  -0.107 -0.4215  0.0540  2.0778
   7723SM  H20G10246   3.141  -0.777  -0.117  1.0081  0.1724 -2.1814
   7723SM  C21F10247   3.047  -0.694  -0.280  0.0529 -0.8764  0.3145
   7723SM  H21F10248   3.132  -0.623  -0.292 -0.8075  0.0887 -0.2172
   7723SM  H21G10249   2.949  -0.646  -0.295 -0.5092 -0.8473  3.4658
   7723SM  C22F10250   3.068  -0.810  -0.373  0.4812  0.0005  0.4182
   7723SM  H22F10251   2.998  -0.897  -0.369  2.6716 -1.8603  0.3975
   7723SM  H22G10252   3.166  -0.860  -0.355  0.2947  0.3496  2.7933
   7723SM  C23F10253   3.075  -0.755  -0.517  0.7339  0.3193 -0.2357
   7723SM  H23F10254   3.169  -0.698  -0.532  1.1741 -0.0519  0.9824
   7723SM  H23G10255   2.980  -0.699  -0.532 -0.6925 -1.5144  1.3420
   7723SM  H23H10256   3.077  -0.837  -0.591  1.3386  1.9134 -2.0678
   7823SM     N10257  -1.877  -1.193   2.722 -0.0338 -0.0126  0.1597
   7823SM   C1510258  -1.940  -1.081   2.642 -0.3582 -0.8791 -0.0975
   7823SM  H15A10259  -1.985  -1.008   2.708  3.2737 -0.1715  1.8671
   7823SM  H15B10260  -2.014  -1.108   2.567 -1.0035  0.2902  0.0920
   7823SM  H15C10261  -1.867  -1.030   2.582 -1.7974  1.8302  0.2746
   7823SM   C1410262  -1.757  -1.127   2.794 -0.0179  0.4801  0.1375
   7823SM  H14A10263  -1.712  -1.189   2.870 -0.2811 -1.7475 -1.4221
   7823SM  H14B10264  -1.794  -1.035   2.838 -0.7675  0.3971 -0.2957
   7823SM  H14C10265  -1.679  -1.105   2.723 -0.8622  0.4684 -0.8132
   7823SM   C1310266  -1.969  -1.245   2.825 -0.2564  0.4020  0.1826
   7823SM  H13A10267  -2.065  -1.274   2.786 -0.3421 -0.5714  1.0521
   7823SM  H13B10268  -1.989  -1.171   2.901  0.5479 -0.9802  1.8149
   7823SM  H13C10269  -1.926  -1.323   2.887 -2.0095  0.1562  1.1640
   7823SM   C1210270  -1.843  -1.310   2.624 -0.1234  0.2959  0.3464
   7823SM  H12A10271  -1.932  -1.368   2.604  1.9943 -2.5578 -1.6308
   7823SM  H12B10272  -1.769  -1.370   2.676  0.0709  0.1768 -0.0696
   7823SM   C1110273  -1.780  -1.285   2.477 -0.1795 -0.3701 -1.1058
   7823SM  H11A10274  -1.857  -1.225   2.425 -0.3196  1.5354  1.1424
   7823SM  H11B10275  -1.784  -1.380   2.420 -2.8869 -0.2553 -1.2091
   7823SM     P10276  -1.634  -1.087   2.393  0.1452 -0.3270  0.3817
   7823SM   O1310277  -1.731  -0.980   2.406 -0.1710 -0.3557 -0.4658
   7823SM   O1410278  -1.497  -1.037   2.400  0.4843  0.1291 -0.7187
   7823SM   O1110279  -1.646  -1.148   2.246  0.1260  0.0351  0.5878
   7823SM   O1210280  -1.654  -1.220   2.479 -0.2527  0.3247  0.1548
   7823SM   C1S10281  -1.572  -1.262   2.206  0.1971 -0.4142  0.3183
   7823SM   H1S10282  -1.612  -1.350   2.263 -1.5001  0.8019  1.0950
   7823SM   H1T10283  -1.465  -1.247   2.229  0.3940 -0.2347 -0.6820
   7823SM    NF10284  -1.552  -1.426   2.024 -0.0467 -0.1458 -0.6650
   7823SM   HNF10285  -1.473  -1.444   1.966 -0.1332 -1.2824 -0.4565
   7823SM   C2S10286  -1.588  -1.292   2.053  0.3130  0.3202  0.2520
   7823SM   H2S10287  -1.696  -1.288   2.029  0.6287  0.9656 -1.1837
   7823SM   C3S10288  -1.524  -1.189   1.957 -0.4507  0.1010  0.0500
   7823SM   H3S10289  -1.414  -1.180   1.970 -0.6622  2.1960  0.9071
   7823SM    O310290  -1.575  -1.059   1.981 -0.6249  0.1678 -0.7541
   7823SM   HO310291  -1.622  -1.069   2.064 -0.1853 -1.2718 -0.6511
   7823SM   C4S10292  -1.556  -1.222   1.809  0.1370  0.2193  0.0822
   7823SM   H4S10293  -1.473  -1.277   1.761 -0.1913 -0.8019  0.6598
   7823SM   C5S10294  -1.665  -1.189   1.737 -0.0640 -0.3893 -0.4053
   7823SM   H5S10295  -1.747  -1.130   1.782  0.7432  0.4085  0.0536
   7823SM   C6S10296  -1.692  -1.222   1.588 -0.6529 -0.1109  0.2936
   7823SM   H6S10297  -1.748  -1.141   1.536  0.0373  0.8093  0.9479
   7823SM   H6T10298  -1.755  -1.313   1.588  1.4845 -1.6614  0.2446
   7823SM   C7S10299  -1.566  -1.241   1.503  0.1686  0.0715 -0.0887
   7823SM   H7S10300  -1.517  -1.328   1.552 -0.4622  1.5243  3.4205
   7823SM   H7T10301  -1.495  -1.156   1.503 -0.2146  0.3982 -0.8279
   7823SM   C8S10302  -1.587  -1.270   1.351  0.7075 -0.1592 -0.2603
   7823SM   H8S10303  -1.609  -1.173   1.300  0.9364 -0.0083 -0.0750
   7823SM   H8T10304  -1.679  -1.332   1.343  0.8379 -0.7161  1.9120
   7823SM   C9S10305  -1.470  -1.339   1.290  0.5806  0.2783 -0.0758
   7823SM   H9S10306  -1.444  -1.435   1.339  0.7962  2.1039  3.7516
   7823SM   H9T10307  -1.378  -1.282   1.319  0.5579  0.0881  0.3835
   7823SM  C10S10308  -1.481  -1.348   1.133 -0.9734 -0.3501 -0.7709
   7823SM  H10S10309  -1.490  -1.242   1.101  0.5326 -0.4274 -1.5150
   7823SM  H10T10310  -1.580  -1.394   1.117 -0.4602 -1.1591 -1.7413
   7823SM  C11S10311  -1.365  -1.423   1.067 -0.1814 -0.0719  0.8103
   7823SM  H11S10312  -1.370  -1.522   1.117  0.2561 -0.4092  0.2095
   7823SM  H11T10313  -1.269  -1.376   1.098  0.2051 -0.6325  0.4870
   7823SM  C12S10314  -1.376  -1.436   0.912 -0.1328 -0.3423  0.2185
   7823SM  H12S10315  -1.466  -1.490   0.878 -0.6945  1.0967 -0.6703
   7823SM  H12T10316  -1.294  -1.505   0.884  0.1286 -0.6090  1.5543
   7823SM  C13S10317  -1.375  -1.300   0.840 -0.2512  0.2924  0.7720
   7823SM  H13S10318  -1.293  -1.248   0.894  0.9433 -2.2592  1.5881
   7823SM  H13T10319  -1.469  -1.245   0.858  0.2789  1.5649 -0.1603
   7823SM  C14S10320  -1.357  -1.311   0.688  0.0355 -0.4011 -0.1435
   7823SM  H14S10321  -1.271  -1.379   0.672 -0.8194 -1.1128 -2.0599
   7823SM  H14T10322  -1.338  -1.207   0.655  0.2190 -0.7467 -1.1362
   7823SM  C15S10323  -1.481  -1.366   0.608 -0.9357 -0.3684  0.8646
   7823SM  H15S10324  -1.571  -1.301   0.623  0.4534  1.8308  0.1262
   7823SM  H15T10325  -1.505  -1.468   0.643  1.8083 -0.5329  2.5558
   7823SM  C16S10326  -1.438  -1.361   0.460 -0.3935 -0.8375  0.7138
   7823SM  H16S10327  -1.336  -1.405   0.452 -0.4804 -0.9260  0.0488
   7823SM  H16T10328  -1.433  -1.252   0.438 -1.4631 -1.0000 -0.4242
   7823SM  C17S10329  -1.541  -1.440   0.371  0.8424  0.1128  0.0897
   7823SM  H17S10330  -1.532  -1.539   0.420 -0.2262  0.7868  1.7790
   7823SM  H17T10331  -1.518  -1.430   0.263 -1.1888 -0.5223 -0.4382
   7823SM  C18S10332  -1.689  -1.390   0.389 -0.2652  0.6162 -0.3635
   7823SM  H18S10333  -1.681  -1.281   0.373 -1.2673  0.6546 -0.6813
   7823SM  H18T10334  -1.718  -1.406   0.495 -0.7129  0.5636 -0.4926
   7823SM  H18U10335  -1.761  -1.449   0.329 -0.4193  0.1248  0.2870
   7823SM   C1F10336  -1.617  -1.536   2.075  0.5316 -0.2850 -0.1256
   7823SM    OF10337  -1.726  -1.531   2.134 -0.3474  0.4504  0.1809
   7823SM   C2F10338  -1.549  -1.664   2.053  0.4395  1.0729 -0.1671
   7823SM   H2F10339  -1.548  -1.724   2.147 -0.2453  1.1856 -0.0768
   7823SM   H2G10340  -1.444  -1.641   2.028  0.7252 -1.7215 -2.0179
   7823SM   C3F10341  -1.617  -1.740   1.936 -0.0272 -0.8990 -0.1591
   7823SM   H3F10342  -1.725  -1.758   1.958 -0.0009 -3.8715 -1.9169
   7823SM   H3G10343  -1.558  -1.834   1.939 -0.5564 -1.2155  1.0939
   7823SM   C4F10344  -1.611  -1.668   1.795  0.0007  1.2954 -0.1847
   7823SM   H4F10345  -1.508  -1.637   1.768  0.2515  1.5753  1.0519
   7823SM   H4G10346  -1.667  -1.571   1.797  1.5289  2.2091  2.0853
   7823SM   C5F10347  -1.663  -1.748   1.671 -0.6604 -0.4405 -0.1480
   7823SM   H5F10348  -1.768  -1.776   1.694 -0.2667 -0.4440  1.8948
   7823SM   H5G10349  -1.613  -1.848   1.672 -0.3221 -0.3017 -1.6518
   7823SM   C6F10350  -1.646  -1.673   1.536 -0.1474  0.7066 -0.4200
   7823SM   H6F10351  -1.545  -1.627   1.535  0.3838 -0.3803  1.1654
   7823SM   H6G10352  -1.716  -1.587   1.542 -1.0019  0.0570 -0.7857
   7823SM   C7F10353  -1.669  -1.756   1.402 -0.4293  0.1209 -0.3638
   7823SM   H7F10354  -1.761  -1.817   1.411 -0.5647  0.5725  1.9391
   7823SM   H7G10355  -1.583  -1.826   1.392  0.0380  0.6508 -0.1430
   7823SM   C8F10356  -1.673  -1.671   1.276  0.8512  0.3957  0.3050
   7823SM   H8F10357  -1.574  -1.626   1.256  1.4827 -1.2187 -0.4112
   7823SM   H8G10358  -1.736  -1.580   1.285  0.4221  0.3678 -1.9136
   7823SM   C9F10359  -1.724  -1.750   1.158 -0.5311  0.3673  0.1230
   7823SM   H9F10360  -1.835  -1.764   1.160 -0.9686  3.2892  0.4097
   7823SM   H9G10361  -1.672  -1.847   1.149 -1.1748  0.0487 -0.2408
   7823SM  C10F10362  -1.706  -1.667   1.026 -0.3817 -0.0229 -0.5425
   7823SM  H10F10363  -1.623  -1.596   1.046 -0.6225 -0.3907  2.2242
   7823SM  H10G10364  -1.798  -1.606   1.016 -0.3455  0.0254 -0.5824
   7823SM  C11F10365  -1.694  -1.765   0.906 -0.0996 -0.2550  0.3291
   7823SM  H11F10366  -1.773  -1.841   0.919 -0.2899 -0.3758 -1.3066
   7823SM  H11G10367  -1.597  -1.819   0.909  0.6059  0.6105 -2.7315
   7823SM  C12F10368  -1.721  -1.690   0.774 -0.3809  0.3477  0.7123
   7823SM  H12F10369  -1.645  -1.611   0.758 -1.4345  1.1670 -0.4898
   7823SM  H12G10370  -1.816  -1.632   0.781 -0.0195  1.0294  0.0395
   7823SM  C13F10371  -1.732  -1.782   0.654 -0.3690  0.7520 -0.1196
   7823SM  H13F10372  -1.785  -1.875   0.685 -0.1128  0.7701  0.3850
   7823SM  H13G10373  -1.635  -1.820   0.617 -1.3270 -2.9661  0.7404
   7823SM  C14F10374  -1.794  -1.728   0.527  0.0789  0.4255  0.0752
   7823SM  H14F10375  -1.737  -1.639   0.491  0.1969  0.0446 -0.6862
   7823SM  H14G10376  -1.892  -1.686   0.558  0.2200  0.3913  0.5761
   7823SM  C15F10377  -1.796  -1.833   0.410 -0.0247  0.7194 -0.1547
   7823SM  H15F10378  -1.889  -1.807   0.356 -0.2725 -0.6421 -0.4221
   7823SM  H15G10379  -1.831  -1.928   0.456  0.7504  0.4938 -0.0202
   7823SM  C16F10380  -1.668  -1.858   0.325 -0.5849 -0.0503  0.1707
   7823SM  H16F10381  -1.603  -1.934   0.372 -1.2515 -0.9838 -0.3860
   7823SM  H16G10382  -1.612  -1.762   0.314  1.4055 -1.2846 -1.2344
   7823SM  C17F10383  -1.702  -1.915   0.189  0.5154 -0.5866 -0.0441
   7823SM  H17F10384  -1.773  -2.001   0.185  0.6026 -0.6247 -1.2108
   7823SM  H17G10385  -1.615  -1.966   0.143  1.7439  1.8906 -0.6334
   7823SM  C18F10386  -1.764  -1.818   0.087  0.0373 -0.3626  0.4317
   7823SM  H18F10387  -1.708  -1.817  -0.009 -0.4133 -0.3305  0.1645
   7823SM  H18G10388  -1.762  -1.718   0.134 -3.3395 -1.0209  2.3384
   7823SM  C19F10389  -1.910  -1.843   0.053 -0.5606 -0.0664  1.1896
   7823SM  H19F10390  -1.969  -1.784   0.127 -0.3199  1.0183  0.5366
   7823SM  H19G10391  -1.924  -1.951   0.074 -0.7168 -0.1873  0.4801
   7823SM  C20F10392  -1.950  -1.794  -0.086 -0.9804  0.5730  0.4519
   7823SM  H20F10393  -1.903  -1.852  -0.168 -0.3924  0.1318  1.0915
   7823SM  H20G10394  -1.914  -1.689  -0.088  1.8170 -0.3165 -1.3592
   7823SM  C21F10395  -2.100  -1.801  -0.116  0.5391  0.0660 -0.2823
   7823SM  H21F10396  -2.118  -1.717  -0.187  0.0217 -0.9162 -1.3313
   7823SM  H21G10397  -2.159  -1.780  -0.024 -0.9689 -0.7442 -1.0447
   7823SM  C22F10398  -2.142  -1.938  -0.175  0.0148 -0.0372  0.5671
   7823SM  H22F10399  -2.069  -2.008  -0.129  0.6908  1.7221  2.2994
   7823SM  H22G10400  -2.133  -1.945  -0.286  3.1367 -1.6222  0.8037
   7823SM  C23F10401  -2.281  -1.985  -0.128  0.2739  0.3707  0.6087
   7823SM  H23F10402  -2.350  -1.925  -0.191  1.8511  2.1043  0.4412
   7823SM  H23G10403  -2.298  -1.950  -0.024  1.7270  0.5261  0.8161
   7823SM  H23H10404  -2.295  -2.095  -0.123 -0.1824  0.4566  1.2649
   7923SM     N10405   1.580  -2.734   2.690 -0.3328  0.0781  0.4848
   7923SM   C1510406   1.511  -2.824   2.591 -0.9022  0.5189  0.2638
   7923SM  H15A10407   1.478  -2.766   2.506 -1.3276  0.1533  0.1746
   7923SM  H15B10408   1.431  -2.880   2.638 -0.4563 -0.3220  0.0515
   7923SM  H15C10409   1.579  -2.890   2.539 -1.1657 -0.0413  0.6145
   7923SM   C1410410   1.484  -2.668   2.782 -0.1066 -0.2600 -0.0510
   7923SM  H14A10411   1.392  -2.632   2.737 -0.5421  1.0300  1.7321
   7923SM  H14B10412   1.530  -2.589   2.839 -0.0583  0.2783 -0.8268
   7923SM  H14C10413   1.436  -2.731   2.856  0.5216 -0.6753  0.0088
   7923SM   C1310414   1.664  -2.814   2.775  0.2529 -0.3146 -0.1436
   7923SM  H13A10415   1.740  -2.867   2.719  1.0786  0.5455  0.1284
   7923SM  H13B10416   1.613  -2.888   2.834  1.5726 -0.9125  0.3023
   7923SM  H13C10417   1.713  -2.761   2.855  0.9643 -1.5877  0.3000
   7923SM   C1210418   1.657  -2.629   2.609  0.0080  0.4822 -0.0255
   7923SM  H12A10419   1.591  -2.577   2.542 -1.9837  0.1716  1.6012
   7923SM  H12B10420   1.728  -2.687   2.551 -0.3591 -0.9876  0.9298
   7923SM   C1110421   1.730  -2.516   2.681 -0.0804 -0.6998 -0.3686
   7923SM  H11A10422   1.668  -2.446   2.741  1.8174  0.6250  0.1716
   7923SM  H11B10423   1.785  -2.458   2.604  0.4293 -1.2421 -0.4153
   7923SM     P10424   1.989  -2.535   2.764  0.1019 -0.3595  0.1315
   7923SM   O1310425   2.006  -2.394   2.799 -0.1080 -0.1295 -0.4650
   7923SM   O1410426   2.068  -2.632   2.835  0.1833  0.1564 -0.5772
   7923SM   O1110427   2.023  -2.531   2.610 -0.2471 -0.5218 -0.1138
   7923SM   O1210428   1.834  -2.560   2.770 -0.0329  0.1950 -0.3264
   7923SM   C1S10429   2.000  -2.659   2.553 -0.2582  0.3112 -0.1538
   7923SM   H1S10430   1.904  -2.710   2.575 -0.2482  0.5068  0.3531
   7923SM   H1T10431   2.075  -2.733   2.590  0.4655  0.2105 -1.6983
   7923SM    NF10432   1.996  -2.789   2.349  0.2949 -0.4073 -0.3950
   7923SM   HNF10433   2.075  -2.839   2.315 -0.2306 -2.0520  0.6778
   7923SM   C2S10434   2.015  -2.657   2.399 -0.2714 -0.0588 -0.0489
   7923SM   H2S10435   1.936  -2.597   2.350  0.6574  1.1114 -0.1506
   7923SM   C3S10436   2.159  -2.595   2.370  0.0970  0.8677 -0.5723
   7923SM   H3S10437   2.226  -2.677   2.405  0.9187  0.6454 -2.5332
   7923SM    O310438   2.204  -2.474   2.434  0.0916  0.2044 -0.5687
   7923SM   HO310439   2.143  -2.475   2.508 -0.0887 -1.2729 -0.6896
   7923SM   C4S10440   2.180  -2.601   2.222 -0.3821 -0.4455 -0.7824
   7923SM   H4S10441   2.218  -2.697   2.185 -0.7382 -1.6190  1.6718
   7923SM   C5S10442   2.152  -2.499   2.140  0.3559 -0.1928 -0.2948
   7923SM   H5S10443   2.133  -2.398   2.179 -2.1847 -1.1581  1.2023
   7923SM   C6S10444   2.178  -2.504   1.987 -0.4680  0.2412  0.2958
   7923SM   H6S10445   2.284  -2.500   1.955 -0.9921 -1.1177 -1.7612
   7923SM   H6T10446   2.118  -2.428   1.932  0.6679 -0.1821 -1.5832
   7923SM   C7S10447   2.133  -2.636   1.919 -0.5291 -0.1723 -0.1770
   7923SM   H7S10448   2.027  -2.662   1.941 -0.4354  0.9369  1.8808
   7923SM   H7T10449   2.205  -2.714   1.952  0.0426 -0.0209 -1.0573
   7923SM   C8S10450   2.146  -2.610   1.772  0.0174  0.3722  0.0634
   7923SM   H8S10451   2.253  -2.587   1.754  0.1007 -0.4925 -0.6091
   7923SM   H8T10452   2.079  -2.529   1.737 -0.3344 -0.0372 -0.2263
   7923SM   C9S10453   2.111  -2.727   1.685 -0.2154 -0.1596 -0.1898
   7923SM   H9S10454   2.015  -2.777   1.711 -0.6847  0.4079 -0.7722
   7923SM   H9T10455   2.198  -2.794   1.702  1.3192  2.4105  3.2635
   7923SM  C10S10456   2.111  -2.681   1.534  0.0217 -0.0423 -0.8552
   7923SM  H10S10457   2.213  -2.651   1.504 -0.6966  2.3655 -1.0423
   7923SM  H10T10458   2.054  -2.586   1.524  0.6829  0.8080  2.2742
   7923SM  C11S10459   2.057  -2.793   1.440  0.3807  0.1340 -0.5420
   7923SM  H11S10460   1.946  -2.797   1.449  0.3733 -0.7703 -0.9350
   7923SM  H11T10461   2.101  -2.884   1.486  1.0280 -0.5613 -2.4647
   7923SM  C12S10462   2.110  -2.800   1.304  0.6945  0.1698  0.0649
   7923SM  H12S10463   2.078  -2.896   1.258 -2.4998  1.7143 -1.2629
   7923SM  H12T10464   2.221  -2.799   1.313  0.7489  1.1700 -0.5537
   7923SM  C13S10465   2.058  -2.690   1.212  0.2388 -0.0647 -0.1885
   7923SM  H13S10466   2.070  -2.587   1.254  2.7413 -0.3053 -0.1425
   7923SM  H13T10467   1.948  -2.702   1.205 -0.3396  2.9809  1.5639
   7923SM  C14S10468   2.119  -2.694   1.076  0.3479  0.4688  0.0952
   7923SM  H14S10469   2.116  -2.796   1.032  1.2752  0.2910  0.4262
   7923SM  H14T10470   2.225  -2.663   1.072  0.4341  0.2202  0.4328
   7923SM  C15S10471   2.047  -2.593   0.977  0.5419  0.4596 -0.7651
   7923SM  H15S10472   2.036  -2.490   1.018 -3.7136 -0.8222  1.8796
   7923SM  H15T10473   1.941  -2.625   0.981  0.9178 -0.7087  2.0870
   7923SM  C16S10474   2.105  -2.604   0.838 -0.4555  0.5212 -0.0865
   7923SM  H16S10475   2.110  -2.710   0.803  1.4774 -0.3624  2.5734
   7923SM  H16T10476   2.207  -2.561   0.838 -0.7522  1.2358  0.1387
   7923SM  C17S10477   2.024  -2.525   0.738 -0.0708  1.1863 -0.0279
   7923SM  H17S10478   2.099  -2.498   0.661  0.2794 -1.0239 -0.5300
   7923SM  H17T10479   1.973  -2.439   0.787 -1.7757  1.1077 -1.5529
   7923SM  C18S10480   1.917  -2.599   0.655  0.0327 -0.3259 -0.4990
   7923SM  H18S10481   1.841  -2.535   0.605  0.7753  0.5795 -0.4795
   7923SM  H18T10482   1.858  -2.667   0.720 -1.0035  1.4912  0.5527
   7923SM  H18U10483   1.949  -2.675   0.580  0.9953 -0.2637 -0.1585
   7923SM   C1F10484   1.876  -2.854   2.354 -0.6477  0.4510  0.0186
   7923SM    OF10485   1.780  -2.790   2.379 -0.1353 -0.0427  0.4914
   7923SM   C2F10486   1.879  -3.001   2.332 -0.4503 -0.1737 -0.2691
   7923SM   H2F10487   1.901  -3.049   2.430 -2.8005  0.4133  0.6169
   7923SM   H2G10488   1.961  -3.024   2.261  0.3343 -0.1141  0.6071
   7923SM   C3F10489   1.752  -3.063   2.280  0.0813  0.1901  0.9123
   7923SM   H3F10490   1.670  -3.032   2.348 -1.3060 -2.7920  0.7320
   7923SM   H3G10491   1.758  -3.172   2.297 -1.3925 -0.0623  0.0473
   7923SM   C4F10492   1.722  -3.025   2.135  0.6989 -0.3997 -0.6441
   7923SM   H4F10493   1.768  -2.930   2.102 -0.2466 -0.0531 -0.9857
   7923SM   H4G10494   1.617  -2.989   2.137  1.2809  1.3781  0.0608
   7923SM   C5F10495   1.715  -3.146   2.040 -0.8477 -0.0077 -0.0656
   7923SM   H5F10496   1.657  -3.227   2.089  0.9329 -0.8547  0.7323
   7923SM   H5G10497   1.817  -3.187   2.022 -1.2987 -2.2939  2.0103
   7923SM   C6F10498   1.642  -3.111   1.911 -0.9608 -0.2576 -0.6179
   7923SM   H6F10499   1.698  -3.028   1.863  2.4582 -0.6872  2.1276
   7923SM   H6G10500   1.544  -3.073   1.947 -0.4206  0.1466  0.4744
   7923SM   C7F10501   1.628  -3.227   1.818 -0.0789 -0.3693 -0.2465
   7923SM   H7F10502   1.602  -3.328   1.855  1.3104 -0.9061 -0.6711
   7923SM   H7G10503   1.726  -3.242   1.767  0.2109 -0.3477  0.2971
   7923SM   C8F10504   1.531  -3.203   1.708 -0.0912 -0.4594  0.3525
   7923SM   H8F10505   1.434  -3.167   1.748 -0.1416  0.1426 -0.2811
   7923SM   H8G10506   1.515  -3.301   1.658 -0.1921  0.0552 -0.6651
   7923SM   C9F10507   1.592  -3.113   1.599 -0.2659 -0.0574 -0.0753
   7923SM   H9F10508   1.692  -3.158   1.586  0.5060  1.2932  0.9626
   7923SM   H9G10509   1.609  -3.011   1.640 -0.8261  0.0571 -0.1184
   7923SM  C10F10510   1.516  -3.121   1.461 -0.3589 -1.1099 -0.4673
   7923SM  H10F10511   1.432  -3.048   1.462 -1.2740 -2.1084 -0.8410
   7923SM  H10G10512   1.467  -3.221   1.447  1.3973 -2.0255 -0.3285
   7923SM  C11F10513   1.606  -3.074   1.340 -0.2523  0.0045  0.1970
   7923SM  H11F10514   1.664  -3.162   1.306 -1.9625 -1.4198  0.8090
   7923SM  H11G10515   1.676  -2.992   1.369  0.5118 -0.3166 -0.6974
   7923SM  C12F10516   1.526  -3.013   1.227 -0.2883  0.6118  0.3828
   7923SM  H12F10517   1.474  -2.918   1.253 -2.0163  0.8743 -3.3405
   7923SM  H12G10518   1.452  -3.089   1.196  0.2211 -0.6921  2.2271
   7923SM  C13F10519   1.613  -2.981   1.104 -0.4070  0.0118  0.7005
   7923SM  H13F10520   1.673  -3.069   1.070 -1.3046 -0.6797  0.8804
   7923SM  H13G10521   1.673  -2.893   1.136 -1.1450  1.0291 -0.5968
   7923SM  C14F10522   1.535  -2.938   0.976  0.2840 -0.1795  0.0107
   7923SM  H14F10523   1.464  -2.854   0.992  0.5003 -0.0090  0.0886
   7923SM  H14G10524   1.470  -3.026   0.957  1.2127 -0.4861 -1.9412
   7923SM  C15F10525   1.630  -2.925   0.854 -0.3664 -0.5125 -0.6216
   7923SM  H15F10526   1.660  -3.028   0.825  0.1735 -0.3083 -0.7964
   7923SM  H15G10527   1.716  -2.865   0.891 -3.0051  3.4400 -0.2652
   7923SM  C16F10528   1.574  -2.848   0.740 -0.5621  0.1981 -0.0147
   7923SM  H16F10529   1.665  -2.812   0.687 -0.3319 -2.3537 -1.5019
   7923SM  H16G10530   1.524  -2.752   0.764 -0.7859  0.5873 -1.9131
   7923SM  C17F10531   1.485  -2.937   0.645  0.1897  0.0868 -0.1984
   7923SM  H17F10532   1.393  -2.969   0.698  1.5861 -0.4924  2.0108
   7923SM  H17G10533   1.545  -3.023   0.610  0.2256 -0.7564  1.7773
   7923SM  C18F10534   1.444  -2.857   0.520 -0.7911  0.4998 -0.2373
   7923SM  H18F10535   1.531  -2.830   0.457 -0.5465  0.1457 -0.0543
   7923SM  H18G10536   1.393  -2.763   0.552 -1.6288 -0.3163  0.9059
   7923SM  C19F10537   1.343  -2.936   0.432  0.0084 -0.2381 -0.0141
   7923SM  H19F10538   1.271  -2.981   0.504  1.2244  1.5591  2.4918
   7923SM  H19G10539   1.396  -3.020   0.383  0.9170 -1.4873  2.8985
   7923SM  C20F10540   1.263  -2.853   0.327 -0.1508  0.4265 -0.2422
   7923SM  H20F10541   1.196  -2.784   0.383  1.0851  0.6460  1.0140
   7923SM  H20G10542   1.192  -2.919   0.273 -0.8219 -0.1521  1.2798
   7923SM  C21F10543   1.355  -2.784   0.229 -0.1467  0.0579 -0.3255
   7923SM  H21F10544   1.420  -2.855   0.172  0.1163 -0.8823  1.0839
   7923SM  H21G10545   1.414  -2.723   0.300  0.6010  0.5021 -1.3113
   7923SM  C22F10546   1.277  -2.687   0.137  0.0457  0.4042  0.3401
   7923SM  H22F10547   1.222  -2.621   0.208 -0.8235 -1.4748  1.5030
   7923SM  H22G10548   1.199  -2.743   0.081  0.3784 -2.3300  2.4177
   7923SM  C23F10549   1.361  -2.598   0.041  0.7571 -0.2219  0.0859
   7923SM  H23F10550   1.436  -2.537   0.095  0.9510 -0.9033  0.6047
   7923SM  H23G10551   1.289  -2.540  -0.019  0.0164 -2.8960 -1.8054
   7923SM  H23H10552   1.411  -2.670  -0.027  0.9754  0.6189 -0.6664
   8023SM     N10553  -2.418  -1.660   2.758  0.5451  0.2814  1.0610
   8023SM   C1510554  -2.559  -1.711   2.775 -0.1789 -0.8815  0.4957
   8023SM  H15A10555  -2.618  -1.624   2.800  1.0021  0.5589 -1.4690
   8023SM  H15B10556  -2.571  -1.783   2.854 -1.0652  0.4700  1.6507
   8023SM  H15C10557  -2.600  -1.747   2.682 -1.3399  1.3642  0.0564
   8023SM   C1410558  -2.377  -1.601   2.885 -0.1328  1.1367 -0.2114
   8023SM  H14A10559  -2.362  -1.676   2.962 -0.0530 -0.1711 -1.4655
   8023SM  H14B10560  -2.455  -1.535   2.918 -0.4853  0.8818 -0.5353
   8023SM  H14C10561  -2.290  -1.536   2.881  1.3934 -0.4356  3.1938
   8023SM   C1310562  -2.334  -1.779   2.716  0.4738  0.5232  0.0936
   8023SM  H13A10563  -2.230  -1.749   2.724  0.1601  1.5555  0.4653
   8023SM  H13B10564  -2.349  -1.809   2.614 -0.4630 -1.6616  0.8080
   8023SM  H13C10565  -2.363  -1.867   2.771 -0.6864 -0.2398 -1.6792
   8023SM   C1210566  -2.422  -1.554   2.645 -0.6140  0.7989  0.4062
   8023SM  H12A10567  -2.322  -1.515   2.642 -0.5628  0.6141 -0.5110
   8023SM  H12B10568  -2.491  -1.476   2.673  1.4073  3.1677 -0.8242
   8023SM   C1110569  -2.469  -1.598   2.500 -0.4978  0.9052 -0.0873
   8023SM  H11A10570  -2.408  -1.689   2.481 -0.2407  1.1335 -0.3673
   8023SM  H11B10571  -2.447  -1.516   2.428  0.2085 -0.3944 -1.3929
   8023SM     P10572  -2.721  -1.517   2.520 -0.3207 -0.7799 -0.0568
   8023SM   O1310573  -2.831  -1.587   2.591  0.3120 -0.5892  0.5395
   8023SM   O1410574  -2.654  -1.402   2.587 -0.5473  0.3181  0.4524
   8023SM   O1110575  -2.780  -1.466   2.380  0.3351  0.9193  0.4161
   8023SM   O1210576  -2.611  -1.624   2.497 -0.0263 -0.0375 -0.0976
   8023SM   C1S10577  -2.816  -1.565   2.281  0.2370  0.3245  0.5571
   8023SM   H1S10578  -2.923  -1.585   2.303 -1.0393  2.7515 -2.7981
   8023SM   H1T10579  -2.754  -1.657   2.282  0.8872  0.7480 -0.4151
   8023SM    NF10580  -2.863  -1.614   2.042 -0.5984 -0.2682  0.3831
   8023SM   HNF10581  -2.788  -1.668   2.003  1.5282  1.7860  1.3666
   8023SM   C2S10582  -2.804  -1.517   2.134  0.5842  0.4420 -0.4018
   8023SM   H2S10583  -2.855  -1.419   2.130  1.4087  0.8819 -0.4938
   8023SM   C3S10584  -2.655  -1.488   2.104 -0.1545 -0.0463 -0.4538
   8023SM   H3S10585  -2.587  -1.568   2.139  0.6418  1.4962  1.8444
   8023SM    O310586  -2.599  -1.389   2.191 -0.2957 -0.1070 -0.0158
   8023SM   HO310587  -2.668  -1.386   2.258  0.0571  0.8185  0.3136
   8023SM   C4S10588  -2.623  -1.455   1.955 -0.3472  0.0316  0.2349
   8023SM   H4S10589  -2.595  -1.542   1.894  2.0445 -0.5778  2.0334
   8023SM   C5S10590  -2.612  -1.338   1.891 -0.1324 -0.0100 -0.7780
   8023SM   H5S10591  -2.636  -1.244   1.943 -1.5260  0.4960 -2.2657
   8023SM   C6S10592  -2.574  -1.323   1.748  0.4076 -0.3980 -0.3881
   8023SM   H6S10593  -2.478  -1.374   1.725 -0.2558 -1.4378 -0.9381
   8023SM   H6T10594  -2.545  -1.218   1.730  2.7984 -0.8510  0.4815
   8023SM   C7S10595  -2.679  -1.376   1.648  0.8398  0.5301 -0.5389
   8023SM   H7S10596  -2.781  -1.335   1.659  0.6965 -0.2017  1.2252
   8023SM   H7T10597  -2.690  -1.486   1.663  0.1005  0.8498  1.6952
   8023SM   C8S10598  -2.625  -1.348   1.504 -0.1394 -0.5504 -0.0784
   8023SM   H8S10599  -2.528  -1.399   1.488  0.4035 -0.1049  1.5697
   8023SM   H8T10600  -2.607  -1.239   1.495  0.6553 -0.5829  0.8831
   8023SM   C9S10601  -2.728  -1.396   1.403  0.0201  0.2420  0.0410
   8023SM   H9S10602  -2.830  -1.380   1.443  0.1021 -0.9557  0.7699
   8023SM   H9T10603  -2.717  -1.506   1.390 -0.2337  0.4804 -2.8770
   8023SM  C10S10604  -2.710  -1.340   1.258  0.7486  0.1578  0.1520
   8023SM  H10S10605  -2.602  -1.322   1.239  0.8092  1.6575  1.7383
   8023SM  H10T10606  -2.751  -1.237   1.264  0.4638  0.3025 -2.8058
   8023SM  C11S10607  -2.779  -1.425   1.156 -0.3914  0.1764 -0.3231
   8023SM  H11S10608  -2.888  -1.425   1.176 -0.1534  0.0189  1.0518
   8023SM  H11T10609  -2.740  -1.527   1.178 -0.4676  0.4499  1.1654
   8023SM  C12S10610  -2.753  -1.386   1.010  0.4961  0.1411  0.4570
   8023SM  H12S10611  -2.774  -1.278   0.994  2.5434  0.2245 -2.5277
   8023SM  H12T10612  -2.824  -1.446   0.949  0.0382 -0.7359  1.8119
   8023SM  C13S10613  -2.609  -1.416   0.963  0.4274  0.1387  0.1784
   8023SM  H13S10614  -2.579  -1.522   0.951  1.4163 -0.0358  3.2186
   8023SM  H13T10615  -2.535  -1.360   1.025 -0.4068  0.4797  0.8884
   8023SM  C14S10616  -2.587  -1.350   0.828  0.3389  0.7605 -0.4506
   8023SM  H14S10617  -2.572  -1.242   0.850  2.1225  0.2917  0.8930
   8023SM  H14T10618  -2.673  -1.361   0.758  0.6570  0.6542 -0.8244
   8023SM  C15S10619  -2.462  -1.405   0.757  0.6856  0.0167 -0.8473
   8023SM  H15S10620  -2.490  -1.504   0.715 -2.1822  0.1669  0.4802
   8023SM  H15T10621  -2.383  -1.423   0.833 -1.2516 -2.6485  0.6829
   8023SM  C16S10622  -2.414  -1.319   0.646 -0.0573 -0.5603 -0.6167
   8023SM  H16S10623  -2.419  -1.214   0.680  1.0457  0.0964 -2.3587
   8023SM  H16T10624  -2.467  -1.321   0.548  0.1944  2.6102 -0.9129
   8023SM  C17S10625  -2.270  -1.355   0.601 -0.4319  0.0752  0.1910
   8023SM  H17S10626  -2.256  -1.463   0.577 -0.0127  0.2690 -0.4514
   8023SM  H17T10627  -2.204  -1.352   0.691  1.3199 -2.8547 -0.8448
   8023SM  C18S10628  -2.208  -1.274   0.479 -0.0399 -0.0761 -0.2083
   8023SM  H18S10629  -2.264  -1.286   0.384 -0.8978  0.1347  0.2562
   8023SM  H18T10630  -2.098  -1.282   0.465  0.4282  2.4421  1.3120
   8023SM  H18U10631  -2.223  -1.167   0.505 -0.3058 -0.0338 -0.5265
   8023SM   C1F10632  -2.988  -1.639   2.008  0.0241  0.0192  0.3770
   8023SM    OF10633  -3.082  -1.579   2.059  0.4707 -0.0131 -0.3135
   8023SM   C2F10634  -3.008  -1.763   1.932  0.1516 -0.5472 -0.3986
   8023SM   H2F10635  -3.054  -1.833   2.005 -1.2064  0.3318 -0.3637
   8023SM   H2G10636  -2.917  -1.811   1.891  0.2302 -0.5055 -0.2726
   8023SM   C3F10637  -3.093  -1.733   1.807  0.0320 -0.9551  0.0270
   8023SM   H3F10638  -3.169  -1.654   1.823  0.1827 -0.5938 -0.9771
   8023SM   H3G10639  -3.153  -1.824   1.789 -0.7247 -0.2169 -1.2834
   8023SM   C4F10640  -3.008  -1.708   1.683  0.0812  0.6680 -0.1194
   8023SM   H4F10641  -2.962  -1.804   1.652 -3.0509 -0.5816 -1.2679
   8023SM   H4G10642  -2.929  -1.632   1.702 -0.2144  0.7578  0.8132
   8023SM   C5F10643  -3.087  -1.680   1.561  0.1291  0.7239 -0.3685
   8023SM   H5F10644  -3.145  -1.586   1.567  1.2956  1.3731  1.7088
   8023SM   H5G10645  -3.174  -1.749   1.564  0.5140  0.2480 -0.0589
   8023SM   C6F10646  -3.029  -1.698   1.424  0.4961 -0.6176 -0.1156
   8023SM   H6F10647  -3.011  -1.806   1.410  0.8004 -0.2958 -2.6865
   8023SM   H6G10648  -2.929  -1.649   1.437 -0.9279  2.5006  0.1201
   8023SM   C7F10649  -3.117  -1.638   1.320  0.2841  0.9635  0.2069
   8023SM   H7F10650  -3.126  -1.527   1.319  0.1278  0.9504 -0.0585
   8023SM   H7G10651  -3.216  -1.688   1.322  1.3948 -1.3691 -0.1803
   8023SM   C8F10652  -3.059  -1.657   1.182 -0.3306  0.5345 -0.2966
   8023SM   H8F10653  -3.049  -1.766   1.163 -3.0597  0.3913 -1.2443
   8023SM   H8G10654  -2.952  -1.629   1.167  0.1143 -1.5595 -1.3000
   8023SM   C9F10655  -3.142  -1.584   1.072 -0.3651 -0.4234 -0.3390
   8023SM   H9F10656  -3.124  -1.475   1.082  3.4505 -0.8761 -0.7308
   8023SM   H9G10657  -3.250  -1.604   1.091 -0.3026 -1.3296 -0.8861
   8023SM  C10F10658  -3.107  -1.632   0.931  0.1389  0.4965 -0.2610
   8023SM  H10F10659  -3.129  -1.740   0.922 -0.0359  0.5007  0.1212
   8023SM  H10G10660  -2.997  -1.623   0.911  0.0110  0.0324 -1.2615
   8023SM  C11F10661  -3.188  -1.561   0.823 -0.4547  0.4575  0.1577
   8023SM  H11F10662  -3.170  -1.452   0.827 -0.1628  0.4030  0.3655
   8023SM  H11G10663  -3.298  -1.566   0.835 -0.4029 -0.4951  0.2982
   8023SM  C12F10664  -3.155  -1.602   0.676  0.5453 -0.4045 -0.6098
   8023SM  H12F10665  -3.224  -1.547   0.608  1.0767  0.3465 -0.5544
   8023SM  H12G10666  -3.174  -1.710   0.657 -1.6533  0.2130 -2.3138
   8023SM  C13F10667  -3.006  -1.556   0.645  0.5946 -0.4648  0.3667
   8023SM  H13F10668  -2.941  -1.584   0.730 -2.0927 -0.3014  2.6012
   8023SM  H13G10669  -3.010  -1.445   0.653  0.3282 -0.4458 -0.0056
   8023SM  C14F10670  -2.947  -1.598   0.502 -0.0021 -0.2578  0.5142
   8023SM  H14F10671  -3.018  -1.567   0.422  0.5949  1.5402  0.6415
   8023SM  H14G10672  -2.932  -1.708   0.496  0.5819 -0.2144  1.1583
   8023SM  C15F10673  -2.811  -1.513   0.485  0.4835  0.4336 -0.7754
   8023SM  H15F10674  -2.731  -1.573   0.532 -0.6523 -0.8188 -0.3846
   8023SM  H15G10675  -2.815  -1.416   0.539  1.5075  0.9840 -1.6528
   8023SM  C16F10676  -2.775  -1.483   0.344 -0.1961 -0.6862  0.3668
   8023SM  H16F10677  -2.853  -1.415   0.304  0.7860  0.4800  0.3696
   8023SM  H16G10678  -2.772  -1.566   0.270  0.5352 -1.1143  0.8645
   8023SM  C17F10679  -2.635  -1.423   0.332  0.2957 -0.9314 -0.2577
   8023SM  H17F10680  -2.566  -1.509   0.349  2.5261  0.7428 -0.4648
   8023SM  H17G10681  -2.628  -1.345   0.411 -0.8557  0.1859 -1.2286
   8023SM  C18F10682  -2.603  -1.374   0.188  0.5727  0.1374  0.4073
   8023SM  H18F10683  -2.681  -1.306   0.150 -0.1764 -2.0592 -2.3160
   8023SM  H18G10684  -2.599  -1.466   0.126  0.2790  0.4485 -0.0739
   8023SM  C19F10685  -2.466  -1.303   0.173 -0.6544  0.5037  0.2481
   8023SM  H19F10686  -2.450  -1.287   0.064 -0.9407  3.3483  0.5300
   8023SM  H19G10687  -2.383  -1.361   0.217 -0.1558  1.6180  0.8126
   8023SM  C20F10688  -2.454  -1.174   0.247  0.0701 -0.2942 -0.2217
   8023SM  H20F10689  -2.446  -1.197   0.355 -1.4567 -0.8420 -0.1988
   8023SM  H20G10690  -2.543  -1.110   0.229  1.1507  1.4802  0.3776
   8023SM  C21F10691  -2.335  -1.087   0.205 -0.2233  0.1617 -0.1412
   8023SM  H21F10692  -2.352  -1.056   0.100 -2.0372  0.3092  0.1686
   8023SM  H21G10693  -2.255  -1.164   0.200 -0.7544 -0.3144 -1.7440
   8023SM  C22F10694  -2.304  -0.965   0.295  0.8613 -0.5079  0.1864
   8023SM  H22F10695  -2.198  -0.936   0.285  0.2607  1.8781  0.2010
   8023SM  H22G10696  -2.305  -0.982   0.405  0.0838  2.6231  0.7472
   8023SM  C23F10697  -2.388  -0.838   0.265 -0.5136  0.1339  0.2222
   8023SM  H23F10698  -2.367  -0.819   0.157  0.8924  1.9223  0.7624
   8023SM  H23G10699  -2.334  -0.755   0.316  1.4468 -0.2506 -1.1314
   8023SM  H23H10700  -2.494  -0.858   0.291 -0.1002 -1.9336  0.5053
   8123SM     N10701  -1.069   1.245  -2.771 -0.8591  0.2061 -0.0847
   8123SM   C1510702  -0.926   1.263  -2.800 -0.7032 -0.2093  0.0490
   8123SM  H15A10703  -0.865   1.177  -2.824  0.2591  0.7245 -0.9316
   8123SM  H15B10704  -0.889   1.310  -2.710  0.5656 -1.6314  0.2989
   8123SM  H15C10705  -0.913   1.327  -2.886 -4.3441  1.0097  0.2064
   8123SM   C1410706  -1.130   1.376  -2.746  0.5832 -0.2224 -0.4700
   8123SM  H14A10707  -1.236   1.368  -2.726  1.0273 -0.0923  2.4325
   8123SM  H14B10708  -1.125   1.448  -2.826  0.0395 -0.4362 -0.7005
   8123SM  H14C10709  -1.087   1.417  -2.655 -2.6271 -1.3758  1.7556
   8123SM   C1310710  -1.134   1.171  -2.884 -0.3741  0.7983 -0.6131
   8123SM  H13A10711  -1.237   1.148  -2.858  0.0023 -2.7886 -1.8005
   8123SM  H13B10712  -1.091   1.073  -2.896 -0.6718  0.6883 -0.8007
   8123SM  H13C10713  -1.132   1.218  -2.981 -1.0941 -1.4921 -1.7971
   8123SM   C1210714  -1.079   1.156  -2.648 -0.0494 -0.8187  0.8085
   8123SM  H12A10715  -1.042   1.060  -2.679  0.8509 -0.4443  0.6949
   8123SM  H12B10716  -1.184   1.141  -2.628  0.4970 -1.2130  3.9703
   8123SM   C1110717  -1.000   1.189  -2.516 -0.1617  0.3300  0.0099
   8123SM  H11A10718  -0.892   1.193  -2.543 -0.2883  0.2792 -0.5149
   8123SM  H11B10719  -1.004   1.101  -2.449  1.5008  1.4899  1.7378
   8123SM     P10720  -1.179   1.337  -2.383  0.0389 -0.5565 -0.2100
   8123SM   O1310721  -1.213   1.483  -2.398 -0.3246  0.0271  0.3761
   8123SM   O1410722  -1.283   1.244  -2.430  0.1670  0.5401 -0.0455
   8123SM   O1110723  -1.147   1.313  -2.235 -0.8963 -0.4267 -0.5890
   8123SM   O1210724  -1.041   1.309  -2.458  0.3565  0.6172  0.3690
   8123SM   C1S10725  -1.091   1.192  -2.185 -0.2922 -0.1721 -0.4569
   8123SM   H1S10726  -0.981   1.186  -2.198 -0.3565 -1.8594 -0.4091
   8123SM   H1T10727  -1.120   1.108  -2.251  1.1772 -0.8347 -0.3132
   8123SM    NF10728  -1.036   1.059  -1.984 -0.2607  0.0084  0.3083
   8123SM   HNF10729  -1.070   0.967  -1.969  0.8864 -0.4986 -0.1213
   8123SM   C2S10730  -1.133   1.156  -2.043  0.4747  0.7138  0.0236
   8123SM   H2S10731  -1.122   1.252  -1.988  0.0959  1.8011 -1.7497
   8123SM   C3S10732  -1.284   1.119  -2.029  0.2842  0.1417 -0.1548
   8123SM   H3S10733  -1.304   1.024  -2.082  1.2826  0.3406 -0.9248
   8123SM    O310734  -1.365   1.222  -2.083 -0.1732  0.2421  0.2943
   8123SM   HO310735  -1.309   1.259  -2.151 -0.9148  1.4931  0.3305
   8123SM   C4S10736  -1.327   1.108  -1.885  0.3839 -0.5650  0.2052
   8123SM   H4S10737  -1.337   1.202  -1.828 -0.8566 -0.0936 -0.7399
   8123SM   C5S10738  -1.382   0.995  -1.834 -1.1687 -1.1962  0.9942
   8123SM   H5S10739  -1.381   0.900  -1.889  0.9738 -0.7768  0.2106
   8123SM   C6S10740  -1.436   0.979  -1.700 -0.0582  0.6064  0.8641
   8123SM   H6S10741  -1.406   0.875  -1.672 -0.1147 -0.0355 -1.3161
   8123SM   H6T10742  -1.546   0.986  -1.713  0.0521  1.0039  0.1592
   8123SM   C7S10743  -1.406   1.083  -1.598  0.1556 -0.2820 -0.1347
   8123SM   H7S10744  -1.458   1.179  -1.622 -0.6156 -0.0625  2.1624
   8123SM   H7T10745  -1.301   1.119  -1.597 -0.4857  1.7620 -0.1192
   8123SM   C8S10746  -1.418   1.034  -1.458  0.0053 -0.4115  0.1634
   8123SM   H8S10747  -1.359   0.940  -1.447 -0.5115 -0.9290 -1.2517
   8123SM   H8T10748  -1.526   1.009  -1.447 -0.2123  0.7053  0.6976
   8123SM   C9S10749  -1.387   1.132  -1.342 -0.4680  0.5465 -0.0584
   8123SM   H9S10750  -1.435   1.233  -1.343  0.1918  0.8826  0.6583
   8123SM   H9T10751  -1.276   1.145  -1.344 -0.5517  2.8561  3.0266
   8123SM  C10S10752  -1.408   1.062  -1.212 -0.5003 -0.0514 -0.5858
   8123SM  H10S10753  -1.315   1.009  -1.184  0.6514  0.4179 -3.2546
   8123SM  H10T10754  -1.487   0.984  -1.219  0.7541 -1.3474 -0.6322
   8123SM  C11S10755  -1.447   1.152  -1.099  0.3442 -0.2292  0.4984
   8123SM  H11S10756  -1.531   1.214  -1.138  0.9582  0.5831  0.4520
   8123SM  H11T10757  -1.365   1.226  -1.090  0.0264  0.1852 -0.0365
   8123SM  C12S10758  -1.481   1.084  -0.965  0.4944 -0.2053 -1.0465
   8123SM  H12S10759  -1.542   0.991  -0.971  1.7866 -1.0310 -1.8634
   8123SM  H12T10760  -1.554   1.153  -0.917 -1.5306 -1.4040 -2.2496
   8123SM  C13S10761  -1.366   1.057  -0.871 -0.4538 -0.3217 -0.0209
   8123SM  H13S10762  -1.315   1.155  -0.858 -0.0653 -0.4870 -0.2870
   8123SM  H13T10763  -1.286   0.993  -0.914  0.9376  0.8334  0.7565
   8123SM  C14S10764  -1.406   0.997  -0.738 -0.2589  0.6473 -0.0333
   8123SM  H14S10765  -1.444   0.894  -0.753  0.3248  0.5467 -0.9285
   8123SM  H14T10766  -1.483   1.050  -0.679 -2.3527 -0.9372 -1.1823
   8123SM  C15S10767  -1.284   0.991  -0.640 -0.1055 -0.6098  0.5975
   8123SM  H15S10768  -1.251   1.093  -0.609 -0.9516 -0.2867  0.4562
   8123SM  H15T10769  -1.204   0.936  -0.693  0.5742  1.0754 -0.2239
   8123SM  C16S10770  -1.323   0.912  -0.510  0.0766  0.0649 -0.0690
   8123SM  H16S10771  -1.231   0.916  -0.448 -0.8452 -3.0297  1.7041
   8123SM  H16T10772  -1.348   0.806  -0.532  0.4682  0.2368 -1.4179
   8123SM  C17S10773  -1.429   0.981  -0.428 -0.0259  0.9622 -0.7825
   8123SM  H17S10774  -1.523   0.967  -0.485 -0.7135  2.7383 -0.1540
   8123SM  H17T10775  -1.413   1.091  -0.425  0.9289  0.8531  2.9736
   8123SM  C18S10776  -1.438   0.955  -0.281 -0.3050 -0.2852 -0.6226
   8123SM  H18S10777  -1.342   0.971  -0.228 -1.4236  1.6334  0.9169
   8123SM  H18T10778  -1.472   0.851  -0.262  0.1079 -0.2418  0.4140
   8123SM  H18U10779  -1.516   1.023  -0.242  0.0874 -0.1171 -0.1205
   8123SM   C1F10780  -0.902   1.083  -1.966  0.5419  0.2280  0.5475
   8123SM    OF10781  -0.851   1.188  -1.996  0.6556 -0.3488  0.0336
   8123SM   C2F10782  -0.832   0.978  -1.892  0.0907 -0.1613  0.1418
   8123SM   H2F10783  -0.726   0.981  -1.925  0.4948 -0.0984  1.4074
   8123SM   H2G10784  -0.869   0.876  -1.917  1.9590 -0.2288 -2.9402
   8123SM   C3F10785  -0.831   1.010  -1.739 -0.2626  0.3865 -0.2570
   8123SM   H3F10786  -0.936   1.017  -1.702 -0.4953  0.8651 -1.0003
   8123SM   H3G10787  -0.778   1.103  -1.710  0.8165 -0.3410  0.1907
   8123SM   C4F10788  -0.756   0.899  -1.655  0.1934  0.0730  0.3141
   8123SM   H4F10789  -0.782   0.797  -1.690  1.3787  0.2270 -1.1130
   8123SM   H4G10790  -0.811   0.903  -1.559 -1.9906  0.5975 -0.8890
   8123SM   C5F10791  -0.608   0.914  -1.618 -0.2431  0.0820 -0.9257
   8123SM   H5F10792  -0.569   1.015  -1.594  2.8409 -0.4182 -3.1317
   8123SM   H5G10793  -0.551   0.891  -1.711  2.1075  4.6490 -0.8921
   8123SM   C6F10794  -0.550   0.813  -1.515  0.1676  0.1756  0.2286
   8123SM   H6F10795  -0.439   0.823  -1.512  0.0360  2.2901 -0.2196
   8123SM   H6G10796  -0.572   0.707  -1.541 -0.4335  0.1952  0.6557
   8123SM   C7F10797  -0.603   0.844  -1.378  0.4415  0.8086  0.1099
   8123SM   H7F10798  -0.715   0.843  -1.376  0.4327  1.6447  0.2757
   8123SM   H7G10799  -0.568   0.947  -1.358 -0.4415  1.5895 -2.0224
   8123SM   C8F10800  -0.549   0.746  -1.279 -0.1497  0.2108 -0.2136
   8123SM   H8F10801  -0.441   0.726  -1.298 -0.3866 -1.7561  0.2912
   8123SM   H8G10802  -0.593   0.646  -1.297  1.8910 -1.1643  1.9007
   8123SM   C9F10803  -0.558   0.791  -1.133  0.7229  0.1217  0.7396
   8123SM   H9F10804  -0.665   0.806  -1.105  0.5958 -0.3074  0.4923
   8123SM   H9G10805  -0.500   0.879  -1.100  0.0750 -0.1936  2.8732
   8123SM  C10F10806  -0.506   0.683  -1.042  0.0323  0.6271 -0.1335
   8123SM  H10F10807  -0.406   0.653  -1.079  0.4705  0.1976  1.3004
   8123SM  H10G10808  -0.574   0.600  -1.070  1.9296 -0.3617 -2.0362
   8123SM  C11F10809  -0.504   0.725  -0.897  0.6576 -0.0709 -0.1036
   8123SM  H11F10810  -0.609   0.750  -0.871 -0.5024 -1.8871 -2.6354
   8123SM  H11G10811  -0.441   0.816  -0.891  0.0751  0.2475  1.8381
   8123SM  C12F10812  -0.460   0.614  -0.801  0.0980  0.9131  0.8784
   8123SM  H12F10813  -0.364   0.565  -0.827 -1.0705 -0.6782 -0.6479
   8123SM  H12G10814  -0.538   0.538  -0.781  0.3321  0.1773 -0.8008
   8123SM  C13F10815  -0.445   0.668  -0.660 -0.2056 -0.0241  0.0603
   8123SM  H13F10816  -0.542   0.721  -0.649 -0.7213 -0.5349 -1.6512
   8123SM  H13G10817  -0.368   0.747  -0.652 -0.6095  0.2948  0.9248
   8123SM  C14F10818  -0.415   0.569  -0.546 -0.4696 -0.2930  0.2125
   8123SM  H14F10819  -0.318   0.518  -0.561 -0.1432  0.2614  0.4304
   8123SM  H14G10820  -0.501   0.498  -0.550 -0.5108 -0.2127 -0.4825
   8123SM  C15F10821  -0.418   0.642  -0.406  0.3046  0.1169  0.8164
   8123SM  H15F10822  -0.510   0.697  -0.380 -0.5165 -0.6871 -0.2841
   8123SM  H15G10823  -0.331   0.711  -0.413 -1.0275  1.7830  0.0066
   8123SM  C16F10824  -0.401   0.543  -0.288  0.2440 -0.3793  0.2570
   8123SM  H16F10825  -0.453   0.445  -0.300 -1.3096  0.4628 -0.1701
   8123SM  H16G10826  -0.455   0.591  -0.204 -0.6106 -2.0518  0.7037
   8123SM  C17F10827  -0.252   0.529  -0.249 -0.2318  0.0686  0.2533
   8123SM  H17F10828  -0.222   0.627  -0.206 -2.8858  1.0280  0.1357
   8123SM  H17G10829  -0.190   0.527  -0.341  0.2954  3.4957  0.4177
   8123SM  C18F10830  -0.225   0.411  -0.151 -0.0329  0.4723  0.5543
   8123SM  H18F10831  -0.257   0.313  -0.193 -0.3901  0.2711  1.2843
   8123SM  H18G10832  -0.282   0.428  -0.057 -0.3559  0.5306  0.3475
   8123SM  C19F10833  -0.071   0.406  -0.116 -0.8463 -1.0385  0.5685
   8123SM  H19F10834  -0.049   0.511  -0.086 -2.4493 -0.7629  0.8734
   8123SM  H19G10835  -0.015   0.394  -0.211 -0.8798 -0.1939  0.4341
   8123SM  C20F10836  -0.025   0.288  -0.029  0.3911  0.2571 -0.9200
   8123SM  H20F10837   0.085   0.298  -0.021  0.4500  1.7115 -2.8753
   8123SM  H20G10838  -0.039   0.188  -0.075  0.4548  1.5324 -3.9292
   8123SM  C21F10839  -0.096   0.295   0.105  1.1968  0.1370 -0.4594
   8123SM  H21F10840  -0.190   0.236   0.111  0.2684  1.7039  2.3972
   8123SM  H21G10841  -0.124   0.401   0.124  3.5909  0.6222  0.7090
   8123SM  C22F10842  -0.012   0.254   0.222 -0.2216 -0.1163 -0.6281
   8123SM  H22F10843   0.073   0.325   0.236  0.2234 -0.4448 -1.5855
   8123SM  H22G10844   0.033   0.153   0.216  0.1468 -0.0043  0.0889
   8123SM  C23F10845  -0.075   0.254   0.365  0.2246  0.0044  0.1672
   8123SM  H23F10846  -0.173   0.200   0.363  1.6488 -2.7118 -0.4361
   8123SM  H23G10847  -0.104   0.360   0.387 -3.8394 -0.8231 -0.3390
   8123SM  H23H10848  -0.010   0.211   0.444 -0.2654 -0.3903  0.3646
   8223SM     N10849  -0.846   2.555  -2.424 -0.1413  0.2788 -0.3169
   8223SM   C1510850  -0.886   2.644  -2.532 -0.1401  0.3652  0.8367
   8223SM  H15A10851  -0.859   2.610  -2.631 -1.3238  2.9395 -0.4586
   8223SM  H15B10852  -0.837   2.740  -2.532 -0.6974  0.6575  0.2731
   8223SM  H15C10853  -0.988   2.671  -2.510  0.0100 -0.0001  2.0655
   8223SM   C1410854  -0.921   2.427  -2.433  0.7890  0.6383  0.1609
   8223SM  H14A10855  -0.868   2.358  -2.368  1.6051  1.7819  0.7569
   8223SM  H14B10856  -0.916   2.382  -2.530 -0.1900 -1.5819  1.0705
   8223SM  H14C10857  -1.022   2.444  -2.398  0.2593 -1.3532 -0.2579
   8223SM   C1310858  -0.699   2.522  -2.434 -0.0243  0.3881 -0.6531
   8223SM  H13A10859  -0.676   2.488  -2.534  2.5553 -0.4283  0.1268
   8223SM  H13B10860  -0.667   2.455  -2.356 -1.7169  0.0433 -0.2185
   8223SM  H13C10861  -0.639   2.612  -2.434  1.9390 -0.8210  1.1155
   8223SM   C1210862  -0.869   2.617  -2.288  0.2085 -0.6176 -0.5180
   8223SM  H12A10863  -0.811   2.707  -2.274  0.8278 -1.0236 -0.4366
   8223SM  H12B10864  -0.841   2.544  -2.213  2.1085  0.1307 -0.4488
   8223SM   C1110865  -1.021   2.668  -2.259  0.1853  0.0857  0.1722
   8223SM  H11A10866  -1.053   2.730  -2.344 -0.1495  1.3814  1.2076
   8223SM  H11B10867  -1.018   2.738  -2.172 -0.7256 -0.1158  0.3766
   8223SM     P10868  -1.093   2.472  -2.106 -0.2926  0.1340 -0.7175
   8223SM   O1310869  -1.225   2.473  -2.034 -0.0240  0.0592 -0.1804
   8223SM   O1410870  -1.046   2.338  -2.155  0.2832  0.1886 -0.3254
   8223SM   O1110871  -0.976   2.544  -2.023 -0.3511 -0.0984  0.5314
   8223SM   O1210872  -1.116   2.564  -2.235 -0.0710  0.0503 -0.2317
   8223SM   C1S10873  -0.914   2.473  -1.914  0.2996  0.3806  0.9580
   8223SM   H1S10874  -0.841   2.399  -1.954 -1.0069 -0.0212 -0.7814
   8223SM   H1T10875  -0.993   2.425  -1.853 -2.0515 -0.4961 -2.5178
   8223SM    NF10876  -0.753   2.507  -1.721  0.0644  0.1563 -0.3502
   8223SM   HNF10877  -0.790   2.512  -1.629 -1.1329  0.6391 -0.8371
   8223SM   C2S10878  -0.840   2.572  -1.823  0.0164 -0.7815 -0.7897
   8223SM   H2S10879  -0.767   2.634  -1.880  2.9596 -0.5050  2.9119
   8223SM   C3S10880  -0.943   2.676  -1.770 -0.4211 -0.4274  0.1748
   8223SM   H3S10881  -1.031   2.619  -1.733  1.4422 -1.8649  2.6579
   8223SM    O310882  -1.008   2.767  -1.864 -0.2674 -0.1332  0.4985
   8223SM   HO310883  -0.980   2.741  -1.952  1.2038  1.9478  0.2926
   8223SM   C4S10884  -0.884   2.748  -1.653 -0.6010 -0.4712  0.0032
   8223SM   H4S10885  -0.916   2.714  -1.554 -0.9411  3.8828  1.5795
   8223SM   C5S10886  -0.800   2.855  -1.654  0.2463 -0.3541 -0.0014
   8223SM   H5S10887  -0.770   2.907  -1.746 -0.0661  0.7507  0.5057
   8223SM   C6S10888  -0.742   2.922  -1.534  0.1196  0.1642 -0.2482
   8223SM   H6S10889  -0.764   3.030  -1.548 -0.4287 -0.0276 -0.9257
   8223SM   H6T10890  -0.631   2.908  -1.530  0.2486  1.2392  2.8897
   8223SM   C7S10891  -0.807   2.887  -1.396  0.4896  0.3568  0.2944
   8223SM   H7S10892  -0.796   2.779  -1.374  3.1463  0.1058 -1.8099
   8223SM   H7T10893  -0.918   2.889  -1.399  0.3835 -1.6088  1.4103
   8223SM   C8S10894  -0.753   2.970  -1.288  0.4304 -0.1050 -0.4905
   8223SM   H8S10895  -0.726   3.072  -1.322  0.9411  1.6407  4.3141
   8223SM   H8T10896  -0.651   2.940  -1.256  0.4061  0.7295  0.4321
   8223SM   C9S10897  -0.843   2.971  -1.161 -0.0243 -0.4272 -0.3662
   8223SM   H9S10898  -0.858   2.865  -1.131  0.1064 -0.1137  0.8497
   8223SM   H9T10899  -0.941   3.016  -1.189 -0.2967 -0.5956  0.2874
   8223SM  C10S10900  -0.776   3.045  -1.035 -0.6873  0.1110  0.5151
   8223SM  H10S10901  -0.767   3.152  -1.062 -1.0825 -0.2116 -0.9820
   8223SM  H10T10902  -0.674   3.000  -1.038  0.6364  2.8364  1.4033
   8223SM  C11S10903  -0.837   3.035  -0.898 -0.1362 -0.3957 -0.7240
   8223SM  H11S10904  -0.858   2.932  -0.861  0.4690 -0.5997 -0.9399
   8223SM  H11T10905  -0.926   3.096  -0.872  2.0984  2.0480  1.8227
   8223SM  C12S10906  -0.740   3.082  -0.789  0.5497  0.5417  0.6337
   8223SM  H12S10907  -0.736   3.193  -0.794 -0.1728  0.5439  0.0233
   8223SM  H12T10908  -0.639   3.037  -0.803  1.1427  1.2440  2.2999
   8223SM  C13S10909  -0.800   3.048  -0.648 -0.4497 -0.0984  0.0040
   8223SM  H13S10910  -0.812   2.938  -0.640 -2.0377  0.0310 -0.2739
   8223SM  H13T10911  -0.901   3.093  -0.649 -0.8591 -0.9412 -2.1054
   8223SM  C14S10912  -0.716   3.113  -0.536 -0.4040 -0.2023 -0.0277
   8223SM  H14S10913  -0.685   3.217  -0.561  2.2777 -1.4450 -2.3025
   8223SM  H14T10914  -0.620   3.063  -0.516 -0.7153 -0.6539  0.3692
   8223SM  C15S10915  -0.796   3.109  -0.412 -0.3761 -0.3551  0.1236
   8223SM  H15S10916  -0.830   3.007  -0.382 -2.0991 -0.1636 -1.0279
   8223SM  H15T10917  -0.890   3.163  -0.437  0.9670  1.8199 -0.5081
   8223SM  C16S10918  -0.735   3.185  -0.291  0.0328 -0.1452  0.9689
   8223SM  H16S10919  -0.810   3.191  -0.209 -1.2510  1.7428 -0.2690
   8223SM  H16T10920  -0.719   3.283  -0.341  0.6247 -1.9104 -2.6560
   8223SM  C17S10921  -0.607   3.124  -0.243 -0.5159 -0.4517  0.4263
   8223SM  H17S10922  -0.574   3.173  -0.149 -0.5590 -2.2675  1.4501
   8223SM  H17T10923  -0.532   3.145  -0.322 -1.9295  0.2829 -0.7908
   8223SM  C18S10924  -0.598   2.972  -0.222  0.2460 -0.9254  0.0380
   8223SM  H18S10925  -0.504   2.933  -0.178 -0.6810 -1.5603  1.5315
   8223SM  H18T10926  -0.605   2.918  -0.319 -1.3943 -1.6515  0.5214
   8223SM  H18U10927  -0.685   2.940  -0.161  0.7895 -0.2922  1.1677
   8223SM   C1F10928  -0.646   2.436  -1.751 -0.0966 -0.8003  0.3910
   8223SM    OF10929  -0.614   2.429  -1.868 -0.1452 -0.4670 -0.1053
   8223SM   C2F10930  -0.572   2.368  -1.639  0.0744 -0.5019 -0.8931
   8223SM   H2F10931  -0.656   2.323  -1.582 -0.2862  2.5581  1.2275
   8223SM   H2G10932  -0.527   2.443  -1.572 -3.7434  1.8695 -0.6813
   8223SM   C3F10933  -0.469   2.267  -1.681 -0.2430 -0.5155 -0.3584
   8223SM   H3F10934  -0.391   2.322  -1.738 -1.2960  1.0441 -0.3469
   8223SM   H3G10935  -0.518   2.189  -1.744 -1.4518 -0.1288  0.0739
   8223SM   C4F10936  -0.410   2.195  -1.555 -0.1821  0.6004  0.3668
   8223SM   H4F10937  -0.364   2.103  -1.595 -1.2333  0.3372 -0.2889
   8223SM   H4G10938  -0.477   2.168  -1.471  1.1743  2.7324  2.2626
   8223SM   C5F10939  -0.291   2.275  -1.489  0.5170  0.5443  0.1448
   8223SM   H5F10940  -0.323   2.373  -1.449 -0.0179 -0.2234  1.6442
   8223SM   H5G10941  -0.220   2.292  -1.573 -0.3151  1.2738 -0.4196
   8223SM   C6F10942  -0.216   2.184  -1.385  0.2456 -0.1070  0.5988
   8223SM   H6F10943  -0.108   2.196  -1.409  0.0525 -1.8542 -1.3437
   8223SM   H6G10944  -0.242   2.077  -1.399 -3.5963  0.6116  1.0177
   8223SM   C7F10945  -0.239   2.219  -1.240 -0.1284 -0.8359 -0.7433
   8223SM   H7F10946  -0.340   2.183  -1.210 -0.8350  1.4898 -0.1248
   8223SM   H7G10947  -0.233   2.329  -1.227  0.9015 -0.7148 -2.1040
   8223SM   C8F10948  -0.142   2.138  -1.145  0.0463 -0.1311 -0.1858
   8223SM   H8F10949  -0.038   2.162  -1.174  1.2095 -0.2207  3.4422
   8223SM   H8G10950  -0.156   2.034  -1.180 -0.2674  0.0895 -0.7424
   8223SM   C9F10951  -0.172   2.154  -0.995  0.0484  0.3156  0.1900
   8223SM   H9F10952  -0.274   2.117  -0.973  0.0514  0.6177  0.7205
   8223SM   H9G10953  -0.163   2.261  -0.967  0.1298  0.4176 -0.2180
   8223SM  C10F10954  -0.078   2.067  -0.923  0.7188  0.1802  0.9005
   8223SM  H10F10955   0.021   2.112  -0.945  0.9698 -0.4704  0.6559
   8223SM  H10G10956  -0.088   1.961  -0.955 -0.2744 -0.1127  2.0903
   8223SM  C11F10957  -0.097   2.086  -0.773 -0.6646  0.0952  0.4142
   8223SM  H11F10958  -0.205   2.076  -0.748 -0.9469  5.1158  2.2809
   8223SM  H11G10959  -0.082   2.193  -0.750 -1.8892  0.0168  1.7298
   8223SM  C12F10960  -0.018   1.990  -0.682 -0.2640  0.1269 -0.8819
   8223SM  H12F10961   0.087   2.019  -0.701  0.0945  0.1334  0.9376
   8223SM  H12G10962  -0.036   1.883  -0.705  0.3036 -0.0228 -0.6277
   8223SM  C13F10963  -0.051   2.015  -0.536  0.3107  0.4233 -0.3681
   8223SM  H13F10964  -0.156   1.983  -0.523  0.2207  0.8546 -0.0213
   8223SM  H13G10965  -0.044   2.121  -0.504  2.4714  0.5818 -1.1987
   8223SM  C14F10966   0.045   1.931  -0.452 -0.4125  0.0910  1.0074
   8223SM  H14F10967   0.146   1.975  -0.459 -0.7299  0.9012  1.3796
   8223SM  H14G10968   0.043   1.828  -0.492 -2.2785  0.3536  0.2818
   8223SM  C15F10969   0.011   1.933  -0.299 -0.8979  0.5423 -0.3382
   8223SM  H15F10970  -0.087   1.885  -0.280 -0.2608 -0.2636  1.0689
   8223SM  H15G10971   0.011   2.040  -0.269  0.3738  1.2401 -2.5303
   8223SM  C16F10972   0.108   1.853  -0.205  0.6085 -0.1358  0.3805
   8223SM  H16F10973   0.209   1.898  -0.213  0.9118 -0.5473  1.7516
   8223SM  H16G10974   0.105   1.746  -0.233  0.3649 -1.3537  4.4027
   8223SM  C17F10975   0.072   1.838  -0.062  0.2493 -0.5892  0.2251
   8223SM  H17F10976  -0.038   1.827  -0.055  0.0566  1.5714  1.4601
   8223SM  H17G10977   0.101   1.927  -0.002  1.1092  0.9639 -2.3531
   8223SM  C18F10978   0.136   1.715  -0.002  0.7969 -0.4136 -0.3943
   8223SM  H18F10979   0.088   1.638  -0.067  0.5780  0.9746 -1.9412
   8223SM  H18G10980   0.099   1.704   0.102 -0.3986 -0.0852 -0.7754
   8223SM  C19F10981   0.288   1.704  -0.021 -0.5746 -0.1189 -0.5130
   8223SM  H19F10982   0.334   1.803  -0.003  0.1775 -0.1517 -2.1309
   8223SM  H19G10983   0.323   1.687  -0.125 -1.9173  1.1663 -1.2097
   8223SM  C20F10984   0.349   1.606   0.088 -0.1306 -1.4400 -0.5657
   8223SM  H20F10985   0.430   1.548   0.039  2.9681  1.3507  0.8194
   8223SM  H20G10986   0.269   1.544   0.134 -2.4865  1.1341 -0.9079
   8223SM  C21F10987   0.410   1.669   0.211 -0.1470  0.3032  0.5231
   8223SM  H21F10988   0.320   1.709   0.263 -2.0812 -0.5036 -2.0201
   8223SM  H21G10989   0.468   1.760   0.183 -0.2808  0.9025  2.0635
   8223SM  C22F10990   0.504   1.578   0.298  0.8934  0.3973  0.2784
   8223SM  H22F10991   0.545   1.629   0.388  0.4697  1.4865 -0.1264
   8223SM  H22G10992   0.596   1.553   0.240  0.9657  0.7676  0.2327
   8223SM  C23F10993   0.440   1.445   0.323  0.1672 -0.2761  0.9233
   8223SM  H23F10994   0.446   1.381   0.233 -0.2549  1.6351 -0.5371
   8223SM  H23G10995   0.333   1.463   0.349  0.5725  2.4156  1.0640
   8223SM  H23H10996   0.494   1.394   0.405 -0.2544 -0.7835  0.8924
   8323SM     N10997  -0.464   1.943  -2.874 -0.5334  0.0987 -0.1957
   8323SM   C1510998  -0.495   1.861  -2.996  0.2356 -0.0228 -0.5757
   8323SM  H15A10999  -0.580   1.903  -3.048 -3.6595 -0.7312  4.4438
   8323SM  H15B11000  -0.534   1.762  -2.977 -1.2272  0.1414 -2.3756
   8323SM  H15C11001  -0.417   1.855  -3.070 -1.4937  0.2193 -2.5232
   8323SM   C1411002  -0.451   2.089  -2.915 -0.0573 -0.6750 -0.2073
   8323SM  H14A11003  -0.544   2.123  -2.959 -0.5883 -2.4230 -0.5012
   8323SM  H14B11004  -0.379   2.103  -2.993 -0.1956  1.0452 -0.0721
   8323SM  H14C11005  -0.429   2.141  -2.822 -0.7360 -0.0121 -0.4015
   8323SM   C1311006  -0.577   1.930  -2.774  0.0903 -0.3670 -0.1234
   8323SM  H13A11007  -0.569   1.993  -2.687 -2.0320  0.7551 -0.6657
   8323SM  H13B11008  -0.590   1.830  -2.735 -1.4194 -0.5202 -0.9424
   8323SM  H13C11009  -0.672   1.957  -2.819  0.9038  1.8252 -0.6118
   8323SM   C1211010  -0.338   1.882  -2.816  0.6835 -0.3077  0.2353
   8323SM  H12A11011  -0.260   1.882  -2.891 -0.0889  0.5058 -0.6055
   8323SM  H12B11012  -0.360   1.779  -2.796  1.3411 -0.6681 -0.7818
   8323SM   C1111013  -0.273   1.935  -2.688  0.1701  0.1235 -0.0433
   8323SM  H11A11014  -0.167   1.901  -2.685  0.3698  0.6431 -0.8940
   8323SM  H11B11015  -0.327   1.892  -2.601 -2.1014  0.1253 -1.3972
   8323SM     P11016  -0.146   2.162  -2.739 -0.0967  0.2808  0.2076
   8323SM   O1311017  -0.082   2.100  -2.857  0.4369  0.4094  0.0813
   8323SM   O1411018  -0.193   2.305  -2.746 -0.5520  0.2588 -0.0030
   8323SM   O1111019  -0.047   2.153  -2.617 -0.4936  0.4993 -0.3038
   8323SM   O1211020  -0.268   2.078  -2.687 -0.4648 -0.1500  0.3961
   8323SM   C1S11021  -0.078   2.182  -2.485  0.4035 -0.3390 -0.5215
   8323SM   H1S11022  -0.178   2.227  -2.471  1.0276  0.1570  3.6283
   8323SM   H1T11023   0.001   2.255  -2.457  0.6362 -0.0524 -1.8464
   8323SM    NF11024  -0.067   2.100  -2.252  0.4962  0.9179 -0.2260
   8323SM   HNF11025   0.026   2.117  -2.221  0.4547  0.8627 -0.0658
   8323SM   C2S11026  -0.077   2.057  -2.390 -0.4518 -0.3585 -0.6924
   8323SM   H2S11027  -0.165   1.989  -2.402  0.1009 -1.0913 -0.6597
   8323SM   C3S11028   0.046   1.957  -2.422  0.1668  0.0104 -0.4572
   8323SM   H3S11029   0.140   2.016  -2.419 -0.4825  1.1437 -1.6700
   8323SM    O311030   0.036   1.898  -2.552 -0.2266 -0.0283 -0.1353
   8323SM   HO311031  -0.015   1.963  -2.601  0.4367  0.6233  0.0254
   8323SM   C4S11032   0.049   1.843  -2.332 -0.3243 -0.0332 -1.2280
   8323SM   H4S11033  -0.038   1.779  -2.311  0.1358  0.1143  1.4678
   8323SM   C5S11034   0.156   1.817  -2.252  0.7785 -0.5259 -0.1420
   8323SM   H5S11035   0.242   1.886  -2.245 -0.1293  0.5465  1.1114
   8323SM   C6S11036   0.167   1.694  -2.161  0.7647 -0.6870  0.1043
   8323SM   H6S11037   0.265   1.643  -2.168  0.9165 -0.5729  1.2464
   8323SM   H6T11038   0.086   1.622  -2.185  0.7521 -0.5985 -0.1227
   8323SM   C7S11039   0.160   1.727  -2.010  0.4528 -0.4551 -0.1047
   8323SM   H7S11040   0.085   1.807  -1.989 -0.5270 -1.8231  1.9830
   8323SM   H7T11041   0.260   1.761  -1.976  0.8242  0.8569 -2.3111
   8323SM   C8S11042   0.112   1.599  -1.938 -0.2256 -0.1957 -0.8522
   8323SM   H8S11043   0.184   1.514  -1.949 -1.1368 -1.4867  2.1742
   8323SM   H8T11044   0.012   1.578  -1.982 -0.1589 -0.8531 -0.7101
   8323SM   C9S11045   0.101   1.616  -1.784  0.2024  0.3717  0.1673
   8323SM   H9S11046   0.006   1.663  -1.752 -0.0836 -0.2631  0.2754
   8323SM   H9T11047   0.176   1.693  -1.757 -2.3146  2.5500  1.3781
   8323SM  C10S11048   0.126   1.490  -1.710 -0.3604  0.3562  0.2599
   8323SM  H10S11049   0.233   1.465  -1.723 -0.1096 -1.3885  4.2138
   8323SM  H10T11050   0.065   1.403  -1.743 -0.3001  0.1281  0.7399
   8323SM  C11S11051   0.119   1.504  -1.557 -0.0510  0.0042 -0.5620
   8323SM  H11S11052   0.013   1.503  -1.525 -0.0703  1.6299 -0.5160
   8323SM  H11T11053   0.182   1.591  -1.526 -0.7183  0.4546 -0.4518
   8323SM  C12S11054   0.176   1.383  -1.487 -0.4784  0.5236  0.6463
   8323SM  H12S11055   0.277   1.350  -1.517 -0.1583  2.0723 -0.0949
   8323SM  H12T11056   0.117   1.294  -1.518  3.0429 -1.0315 -2.3639
   8323SM  C13S11057   0.164   1.401  -1.335  0.1032  0.2255  0.1082
   8323SM  H13S11058   0.060   1.441  -1.327 -0.0857 -0.0258 -0.9185
   8323SM  H13T11059   0.234   1.476  -1.293 -1.7925  0.7171  2.6712
   8323SM  C14S11060   0.175   1.265  -1.254 -0.2242 -0.8801  0.7972
   8323SM  H14S11061   0.277   1.222  -1.266 -0.1180 -0.8194  1.4377
   8323SM  H14T11062   0.115   1.194  -1.314  0.7385 -0.9913 -0.0594
   8323SM  C15S11063   0.152   1.288  -1.106  0.6409  0.8506 -0.3049
   8323SM  H15S11064   0.049   1.330  -1.107  0.5657  0.6705 -1.4613
   8323SM  H15T11065   0.224   1.366  -1.071  1.0149  1.0621 -1.5112
   8323SM  C16S11066   0.154   1.169  -1.009  0.2586  0.2327  0.6960
   8323SM  H16S11067   0.249   1.112  -1.022 -0.3614 -0.9696  1.2896
   8323SM  H16T11068   0.075   1.095  -1.029  0.9708 -0.4585  0.3787
   8323SM  C17S11069   0.127   1.219  -0.863  0.0332  0.6041 -0.0913
   8323SM  H17S11070   0.020   1.248  -0.871  0.3553  1.9684  0.3811
   8323SM  H17T11071   0.194   1.303  -0.837  1.0670 -0.3156  0.3063
   8323SM  C18S11072   0.135   1.112  -0.752  0.2139  0.1941  0.0859
   8323SM  H18S11073   0.047   1.046  -0.768 -0.3774  0.5276  1.7564
   8323SM  H18T11074   0.137   1.156  -0.650 -0.3372 -0.9339  0.6037
   8323SM  H18U11075   0.229   1.053  -0.753  0.5294  0.6864  0.4367
   8323SM   C1F11076  -0.171   2.156  -2.200  0.4799  0.1376  0.5933
   8323SM    OF11077  -0.282   2.148  -2.259  0.6248  0.0926  0.2021
   8323SM   C2F11078  -0.151   2.240  -2.080 -0.0952  0.1444 -0.5206
   8323SM   H2F11079  -0.185   2.341  -2.110  0.9517  0.8298  0.5429
   8323SM   H2G11080  -0.046   2.247  -2.044 -0.2669 -0.7438  0.1892
   8323SM   C3F11081  -0.227   2.189  -1.959 -0.2156 -0.0581  0.3578
   8323SM   H3F11082  -0.335   2.174  -1.978 -0.0396 -2.4393  0.8841
   8323SM   H3G11083  -0.217   2.267  -1.880 -1.0844  1.6015 -1.1087
   8323SM   C4F11084  -0.176   2.056  -1.914 -0.0671 -0.7719  0.3269
   8323SM   H4F11085  -0.180   1.970  -1.984  1.0494 -1.4751  1.1033
   8323SM   H4G11086  -0.244   2.024  -1.832  1.3052 -0.7904  1.5045
   8323SM   C5F11087  -0.038   2.064  -1.854  0.0404  0.8547  0.0240
   8323SM   H5F11088  -0.016   2.159  -1.800  1.6583  0.4698  0.0926
   8323SM   H5G11089   0.043   2.061  -1.930  1.0289  2.3583  0.9585
   8323SM   C6F11090  -0.010   1.947  -1.764  0.0578 -0.1621 -0.2406
   8323SM   H6F11091   0.093   1.910  -1.785  0.6855  1.6624 -0.5441
   8323SM   H6G11092  -0.086   1.869  -1.789 -1.0330  0.7757  0.0736
   8323SM   C7F11093  -0.007   1.984  -1.614 -0.0449  0.0948  0.1208
   8323SM   H7F11094  -0.105   2.016  -1.573 -0.0371 -1.1039  1.1255
   8323SM   H7G11095   0.052   2.079  -1.610  1.6563 -0.8301 -1.3837
   8323SM   C8F11096   0.048   1.871  -1.528  0.8275  0.2178  0.2393
   8323SM   H8F11097   0.156   1.863  -1.555  0.4820 -0.6715 -0.9344
   8323SM   H8G11098   0.000   1.773  -1.547  0.8267  0.4913 -1.2672
   8323SM   C9F11099   0.044   1.902  -1.377 -0.5705  0.4138 -0.7619
   8323SM   H9F11100  -0.064   1.925  -1.363 -0.5750  0.0593 -0.1887
   8323SM   H9G11101   0.111   1.988  -1.359  0.1541 -0.0036 -1.3731
   8323SM  C10F11102   0.094   1.782  -1.295  0.3118 -0.4336 -0.6471
   8323SM  H10F11103   0.197   1.766  -1.335 -0.6106 -1.0547 -2.9102
   8323SM  H10G11104   0.041   1.690  -1.328  0.7621  0.1633 -3.1943
   8323SM  C11F11105   0.083   1.809  -1.145 -0.4582 -0.1660 -0.2626
   8323SM  H11F11106  -0.017   1.847  -1.117 -0.4112 -0.5170  0.4196
   8323SM  H11G11107   0.154   1.890  -1.118  0.3485 -0.7354 -0.6231
   8323SM  C12F11108   0.128   1.688  -1.061 -0.6051 -0.0223  0.5873
   8323SM  H12F11109   0.238   1.677  -1.072 -0.8751 -1.3867 -1.1993
   8323SM  H12G11110   0.076   1.595  -1.094  0.7904 -0.8687  0.7140
   8323SM  C13F11111   0.115   1.703  -0.912 -0.1306 -0.4965  0.0334
   8323SM  H13F11112   0.009   1.691  -0.881 -0.5766 -0.0459 -1.2319
   8323SM  H13G11113   0.138   1.809  -0.887 -0.7216 -0.4232  0.2911
   8323SM  C14F11114   0.199   1.613  -0.827 -0.3459 -0.8120  0.3552
   8323SM  H14F11115   0.298   1.629  -0.875 -0.8383 -1.1288 -0.7812
   8323SM  H14G11116   0.163   1.513  -0.860 -1.1468 -0.4568  0.1317
   8323SM  C15F11117   0.188   1.627  -0.671 -0.2480 -0.2135  0.6520
   8323SM  H15F11118   0.085   1.595  -0.644  0.4272 -1.4417  1.9101
   8323SM  H15G11119   0.205   1.732  -0.637  0.0723  0.0203 -0.2106
   8323SM  C16F11120   0.295   1.540  -0.605 -0.0166  0.5048  0.1426
   8323SM  H16F11121   0.390   1.587  -0.636 -1.0963  2.2197 -0.7234
   8323SM  H16G11122   0.283   1.440  -0.651  0.3927  1.0168 -1.1229
   8323SM  C17F11123   0.282   1.539  -0.459  0.0456  0.4502 -0.3811
   8323SM  H17F11124   0.260   1.638  -0.415  2.3980 -0.0930  2.3244
   8323SM  H17G11125   0.383   1.518  -0.418  0.2297  1.3774 -0.3522
   8323SM  C18F11126   0.188   1.434  -0.405 -0.1967 -0.0325  0.2787
   8323SM  H18F11127   0.200   1.346  -0.471 -1.8229  1.0011 -1.4834
   8323SM  H18G11128   0.084   1.461  -0.435  0.3905  0.0750 -1.8145
   8323SM  C19F11129   0.198   1.409  -0.259  0.2505 -0.1745  0.4530
   8323SM  H19F11130   0.167   1.496  -0.197 -0.4707 -1.2595  1.6575
   8323SM  H19G11131   0.305   1.397  -0.230  0.9151  2.7666 -0.3684
   8323SM  C20F11132   0.126   1.289  -0.193  0.4431 -0.3147  0.1603
   8323SM  H20F11133   0.169   1.190  -0.221  0.6607 -0.6624  1.6415
   8323SM  H20G11134   0.027   1.278  -0.243  0.7865  1.1835 -0.9115
   8323SM  C21F11135   0.115   1.300  -0.039  0.6532  1.0646 -0.3769
   8323SM  H21F11136   0.059   1.387   0.004  1.4862  1.2519  0.3624
   8323SM  H21G11137   0.218   1.311   0.001  0.5609 -0.2309  0.2813
   8323SM  C22F11138   0.053   1.165   0.019  0.8097 -0.5232  0.2058
   8323SM  H22F11139   0.077   1.161   0.127 -1.6590 -0.1298  0.8148
   8323SM  H22G11140   0.101   1.078  -0.031  0.7074 -0.6144  0.2664
   8323SM  C23F11141  -0.097   1.146  -0.004  0.4034  0.0632 -0.3330
   8323SM  H23F11142  -0.168   1.218   0.042 -0.9725 -1.1570 -0.4834
   8323SM  H23G11143  -0.143   1.054   0.035 -0.6481  2.6749  5.6900
   8323SM  H23H11144  -0.118   1.145  -0.113  0.1581  0.6126 -0.2962
   8423SM     N11145  -0.432  -0.449  -2.940  0.1989 -0.5443  0.1427
   8423SM   C1511146  -0.393  -0.563  -3.028 -0.1982  0.0245  0.1440
   8423SM  H15A11147  -0.285  -0.568  -3.034 -0.3003 -1.4138 -1.1563
   8423SM  H15B11148  -0.439  -0.551  -3.125 -1.7520 -1.8786  0.5826
   8423SM  H15C11149  -0.414  -0.659  -2.983  2.7104 -1.6863 -1.7813
   8423SM   C1411150  -0.364  -0.316  -2.967  0.3042  0.1841 -0.4183
   8423SM  H14A11151  -0.361  -0.264  -2.872  2.0864  1.4122 -1.0964
   8423SM  H14B11152  -0.427  -0.250  -3.024 -0.1696  0.4069  0.3397
   8423SM  H14C11153  -0.264  -0.328  -3.007 -0.3447  1.5731 -2.6021
   8423SM   C1311154  -0.581  -0.430  -2.933 -0.0454 -0.6003 -0.1827
   8423SM  H13A11155  -0.621  -0.373  -2.851 -0.2523 -0.9230 -0.0563
   8423SM  H13B11156  -0.632  -0.525  -2.926 -0.1775 -0.4789  0.6164
   8423SM  H13C11157  -0.624  -0.389  -3.023 -3.9821 -0.0566  1.7223
   8423SM   C1211158  -0.394  -0.483  -2.797  0.3544 -0.2531  0.1660
   8423SM  H12A11159  -0.445  -0.576  -2.776  0.6230 -0.6052 -0.6698
   8423SM  H12B11160  -0.431  -0.411  -2.726  2.2500  0.4292  0.5055
   8423SM   C1111161  -0.244  -0.507  -2.764  0.8636  0.0183  0.4246
   8423SM  H11A11162  -0.200  -0.590  -2.823  1.0977 -0.3986  1.1665
   8423SM  H11B11163  -0.252  -0.529  -2.655 -2.2240  0.9728  0.4844
   8423SM     P11164  -0.138  -0.269  -2.703  0.6765  0.6880  0.1034
   8423SM   O1311165  -0.090  -0.174  -2.799  0.2814  0.4926 -0.3938
   8423SM   O1411166  -0.262  -0.225  -2.625  0.4044 -0.4602  0.2331
   8423SM   O1111167  -0.025  -0.319  -2.604 -0.2243  0.6292  0.5731
   8423SM   O1211168  -0.160  -0.395  -2.790  0.0135  0.4329 -0.1855
   8423SM   C1S11169   0.075  -0.406  -2.665 -0.1329 -0.2190 -0.6509
   8423SM   H1S11170   0.131  -0.367  -2.753 -1.4883  0.4594 -1.2484
   8423SM   H1T11171   0.032  -0.507  -2.683 -0.0681 -0.2067 -0.8757
   8423SM    NF11172   0.300  -0.486  -2.617 -0.4800  0.3663 -0.6042
   8423SM   HNF11173   0.326  -0.582  -2.611 -1.4482  0.2004  2.1848
   8423SM   C2S11174   0.179  -0.441  -2.552  0.2050 -0.2864  0.4480
   8423SM   H2S11175   0.202  -0.340  -2.515  0.4837  0.1036 -0.7234
   8423SM   C3S11176   0.111  -0.531  -2.456  0.3856  0.5654 -1.1516
   8423SM   H3S11177   0.101  -0.628  -2.510  0.3111  0.6660 -1.3180
   8423SM    O311178  -0.023  -0.493  -2.417 -1.1730  0.1341 -0.4427
   8423SM   HO311179  -0.031  -0.410  -2.465  1.8887 -0.2122 -1.7657
   8423SM   C4S11180   0.186  -0.544  -2.326  0.1216  0.2289 -0.0789
   8423SM   H4S11181   0.149  -0.461  -2.263  0.2847  0.3900 -0.1938
   8423SM   C5S11182   0.247  -0.658  -2.274  0.6861 -0.0465  0.2429
   8423SM   H5S11183   0.240  -0.754  -2.325  1.1463  0.4364 -0.7575
   8423SM   C6S11184   0.303  -0.655  -2.138 -0.3145  0.3455 -0.0259
   8423SM   H6S11185   0.303  -0.556  -2.087  0.5759  0.4560 -0.2266
   8423SM   H6T11186   0.406  -0.696  -2.147 -1.0002 -1.3766 -0.3377
   8423SM   C7S11187   0.228  -0.749  -2.042 -0.1820 -0.6450 -0.1868
   8423SM   H7S11188   0.251  -0.856  -2.061  1.4177 -0.3860  0.1136
   8423SM   H7T11189   0.117  -0.746  -2.046 -0.2896 -2.0512  0.6918
   8423SM   C8S11190   0.270  -0.718  -1.905 -0.5697  0.7028  0.2321
   8423SM   H8S11191   0.266  -0.609  -1.884 -1.5145  0.7020  0.1038
   8423SM   H8T11192   0.372  -0.756  -1.885 -0.7837 -0.4674 -0.7544
   8423SM   C9S11193   0.187  -0.783  -1.799  0.0726 -0.1985 -0.7707
   8423SM   H9S11194   0.193  -0.894  -1.797 -0.3025 -0.2501  1.9231
   8423SM   H9T11195   0.078  -0.761  -1.797 -0.1607 -1.1847  2.2596
   8423SM  C10S11196   0.240  -0.748  -1.652  0.2006  0.2140 -0.1605
   8423SM  H10S11197   0.200  -0.647  -1.630  1.6555  0.7731  0.0219
   8423SM  H10T11198   0.350  -0.751  -1.663  0.2195  0.6505 -0.1139
   8423SM  C11S11199   0.199  -0.850  -1.548 -0.4592 -0.8964 -0.5699
   8423SM  H11S11200   0.260  -0.941  -1.564  0.1840 -0.7846  1.0544
   8423SM  H11T11201   0.090  -0.873  -1.556 -1.0182  1.3591 -0.1218
   8423SM  C12S11202   0.231  -0.793  -1.406 -0.1846 -0.8164  0.1121
   8423SM  H12S11203   0.165  -0.704  -1.392 -0.7137 -1.2375  0.3184
   8423SM  H12T11204   0.339  -0.769  -1.398  0.0175 -1.6747  0.0098
   8423SM  C13S11205   0.200  -0.893  -1.295 -0.0330  0.4847 -0.5444
   8423SM  H13S11206   0.279  -0.971  -1.299 -1.4295 -0.9682 -0.5998
   8423SM  H13T11207   0.099  -0.936  -1.310  0.1094  0.2282 -0.7794
   8423SM  C14S11208   0.219  -0.818  -1.160  0.0310  0.0312  0.1969
   8423SM  H14S11209   0.147  -0.736  -1.180  0.4860  0.1970 -0.8403
   8423SM  H14T11210   0.323  -0.780  -1.145  0.5016  0.2451 -2.8250
   8423SM  C15S11211   0.163  -0.893  -1.045 -0.2680  0.1988  1.0152
   8423SM  H15S11212   0.223  -0.986  -1.039  1.9510  1.4916  0.3517
   8423SM  H15T11213   0.059  -0.928  -1.056 -0.0055 -0.4320  0.4318
   8423SM  C16S11214   0.193  -0.824  -0.907 -0.2860 -0.0958  0.5181
   8423SM  H16S11215   0.132  -0.731  -0.912 -0.9941 -0.6318 -1.9716
   8423SM  H16T11216   0.298  -0.786  -0.903 -0.2958 -0.1071  0.9864
   8423SM  C17S11217   0.138  -0.914  -0.796  0.0858 -0.3579 -0.2197
   8423SM  H17S11218   0.211  -0.991  -0.765  1.3259  1.1360  0.7454
   8423SM  H17T11219   0.056  -0.963  -0.853 -0.9086  1.2393 -0.2329
   8423SM  C18S11220   0.088  -0.836  -0.670 -0.3444  0.5122 -0.2841
   8423SM  H18S11221   0.024  -0.898  -0.603  0.9213  0.1741  0.6567
   8423SM  H18T11222   0.036  -0.743  -0.700 -2.1304 -0.2970  0.1390
   8423SM  H18U11223   0.173  -0.802  -0.607 -0.8577  0.6167  0.3621
   8423SM   C1F11224   0.382  -0.403  -2.679 -0.7208 -0.8182 -0.5758
   8423SM    OF11225   0.346  -0.285  -2.702  0.0758 -0.1512 -0.6302
   8423SM   C2F11226   0.525  -0.449  -2.716 -0.0418  0.6908 -0.0660
   8423SM   H2F11227   0.585  -0.360  -2.744  0.9760  0.1561  0.4086
   8423SM   H2G11228   0.515  -0.511  -2.808 -0.5584 -2.0836  1.7402
   8423SM   C3F11229   0.593  -0.535  -2.613 -0.0509 -0.5911  0.1561
   8423SM   H3F11230   0.702  -0.539  -2.636 -0.2215  1.2519 -1.1461
   8423SM   H3G11231   0.554  -0.639  -2.610 -2.3935  0.2521  0.9525
   8423SM   C4F11232   0.597  -0.474  -2.473 -0.1065 -0.1340  0.2782
   8423SM   H4F11233   0.490  -0.475  -2.442 -0.5242 -0.8691 -1.1207
   8423SM   H4G11234   0.633  -0.370  -2.489 -2.5131  0.5311 -1.5179
   8423SM   C5F11235   0.683  -0.546  -2.365  0.1695 -0.1136 -0.0633
   8423SM   H5F11236   0.790  -0.545  -2.398 -0.1216  0.6148 -1.0363
   8423SM   H5G11237   0.652  -0.652  -2.364  0.6830 -0.2672  0.1350
   8423SM   C6F11238   0.664  -0.468  -2.234 -0.5169  0.0312 -0.4805
   8423SM   H6F11239   0.560  -0.489  -2.201 -1.6616  1.6886 -2.7461
   8423SM   H6G11240   0.686  -0.360  -2.251  0.9189  0.3161  2.6300
   8423SM   C7F11241   0.768  -0.535  -2.132  0.8658  0.0188 -0.0003
   8423SM   H7F11242   0.873  -0.513  -2.162  0.6185  2.3707  0.6719
   8423SM   H7G11243   0.753  -0.645  -2.135  1.0086 -0.0137  0.3929
   8423SM   C8F11244   0.759  -0.467  -1.992 -0.4218 -0.1658 -0.0521
   8423SM   H8F11245   0.697  -0.374  -1.992 -2.8580 -1.6830  1.0425
   8423SM   H8G11246   0.858  -0.440  -1.952 -0.3942  1.0589 -0.8902
   8423SM   C9F11247   0.693  -0.566  -1.893 -0.3315 -0.2269 -0.4780
   8423SM   H9F11248   0.762  -0.652  -1.881  0.2660 -0.1311 -2.7457
   8423SM   H9G11249   0.595  -0.606  -1.925 -1.4783  2.0903 -0.0805
   8423SM  C10F11250   0.663  -0.486  -1.764  0.1115 -0.5374  0.6828
   8423SM  H10F11251   0.581  -0.414  -1.787  0.9985  1.2548  2.7327
   8423SM  H10G11252   0.746  -0.418  -1.735 -0.7579 -0.0767  2.1801
   8423SM  C11F11253   0.636  -0.587  -1.648 -1.0527  0.3755  0.8667
   8423SM  H11F11254   0.720  -0.659  -1.646 -0.3545  1.1711  0.6403
   8423SM  H11G11255   0.541  -0.642  -1.668  0.3721 -1.9223  0.0898
   8423SM  C12F11256   0.627  -0.515  -1.506 -0.4914 -0.6758 -0.6844
   8423SM  H12F11257   0.526  -0.471  -1.492 -0.2095  0.2706 -1.4892
   8423SM  H12G11258   0.713  -0.444  -1.498 -1.0268 -0.1625  0.8593
   8423SM  C13F11259   0.643  -0.611  -1.388  0.3571 -0.0987 -0.4227
   8423SM  H13F11260   0.736  -0.671  -1.397  0.7082  0.6509 -2.4453
   8423SM  H13G11261   0.555  -0.679  -1.391 -0.6783  1.1640  0.2121
   8423SM  C14F11262   0.647  -0.541  -1.253  0.0491  0.7966  0.5547
   8423SM  H14F11263   0.554  -0.483  -1.237 -3.2754 -2.9945 -2.6679
   8423SM  H14G11264   0.730  -0.468  -1.247  1.4559 -0.7585  0.8182
   8423SM  C15F11265   0.674  -0.635  -1.131  0.1398  0.6027  0.4855
   8423SM  H15F11266   0.778  -0.670  -1.144 -0.6027 -1.3045 -0.6667
   8423SM  H15G11267   0.603  -0.720  -1.133  0.0378  0.6473  1.4954
   8423SM  C16F11268   0.654  -0.574  -0.994 -0.0964  0.0590 -0.6463
   8423SM  H16F11269   0.701  -0.474  -0.986  2.2408 -0.6637 -3.5568
   8423SM  H16G11270   0.716  -0.631  -0.921  1.7768  2.0162 -0.6050
   8423SM  C17F11271   0.504  -0.564  -0.955 -0.0875  0.7496 -0.1427
   8423SM  H17F11272   0.462  -0.665  -0.970 -0.4773  0.5486  2.0076
   8423SM  H17G11273   0.450  -0.496  -1.024 -1.6586  0.2467  0.5460
   8423SM  C18F11274   0.496  -0.520  -0.804  0.4653  0.6084 -0.7807
   8423SM  H18F11275   0.390  -0.506  -0.774  0.6113  2.0399 -0.8515
   8423SM  H18G11276   0.551  -0.424  -0.797  0.0575  0.8262 -0.5003
   8423SM  C19F11277   0.566  -0.605  -0.698  0.6313 -0.7325 -0.2581
   8423SM  H19F11278   0.676  -0.587  -0.704  0.3500  2.1708  1.5582
   8423SM  H19G11279   0.546  -0.713  -0.714  0.0495 -0.5593 -0.7264
   8423SM  C20F11280   0.520  -0.589  -0.552  0.1054  0.0757  0.3319
   8423SM  H20F11281   0.578  -0.665  -0.495 -0.5435  0.4602  1.5430
   8423SM  H20G11282   0.410  -0.604  -0.548  0.2531 -1.9979 -1.4581
   8423SM  C21F11283   0.568  -0.451  -0.489  0.2746  0.8759 -0.0078
   8423SM  H21F11284   0.514  -0.372  -0.546 -0.9039 -0.9275 -1.5358
   8423SM  H21G11285   0.678  -0.439  -0.505  0.4247 -0.6430 -0.2956
   8423SM  C22F11286   0.525  -0.443  -0.344  0.0902 -0.6385  0.2369
   8423SM  H22F11287   0.551  -0.342  -0.304  1.5573 -1.4575  1.4174
   8423SM  H22G11288   0.579  -0.517  -0.282 -0.7894  0.2806  2.2048
   8423SM  C23F11289   0.371  -0.466  -0.330 -0.6992  0.3502  0.5095
   8423SM  H23F11290   0.310  -0.398  -0.393  0.1616  1.5936  0.9596
   8423SM  H23G11291   0.330  -0.445  -0.229 -0.2629  1.6684  0.4360
   8423SM  H23H11292   0.339  -0.567  -0.363 -1.8949  1.2946 -1.3685
   8523SM     N11293   1.046   1.440  -2.712  0.2225  0.4078 -0.0106
   8523SM   C1511294   1.010   1.522  -2.587  0.7779  0.2209  0.0465
   8523SM  H15A11295   1.095   1.555  -2.530 -1.2958  0.3021  3.3315
   8523SM  H15B11296   0.940   1.467  -2.525  2.3731 -2.0791 -0.0666
   8523SM  H15C11297   0.958   1.613  -2.613 -1.4052 -0.6447  1.0977
   8523SM   C1411298   1.100   1.542  -2.803 -0.1792  0.4273  0.2444
   8523SM  H14A11299   1.165   1.501  -2.879  0.0146  3.9977 -1.7625
   8523SM  H14B11300   1.168   1.611  -2.756  1.9582 -0.8632 -0.7937
   8523SM  H14C11301   1.027   1.595  -2.863 -2.1905 -2.3657  0.0143
   8523SM   C1311302   1.146   1.339  -2.678 -0.6770 -0.4602 -0.0901
   8523SM  H13A11303   1.107   1.271  -2.604  0.2937  1.3666  2.2230
   8523SM  H13B11304   1.238   1.370  -2.630 -0.1033 -0.7031 -1.0059
   8523SM  H13C11305   1.173   1.282  -2.766  1.7224  2.2262 -1.2573
   8523SM   C1211306   0.921   1.373  -2.764  0.2867 -0.2144 -0.0734
   8523SM  H12A11307   0.926   1.317  -2.857 -1.1342 -0.3421 -0.0961
   8523SM  H12B11308   0.851   1.449  -2.795 -0.8656 -1.0117  0.4921
   8523SM   C1111309   0.851   1.272  -2.670 -0.1162 -0.2618  0.2615
   8523SM  H11A11310   0.749   1.251  -2.708 -1.2726  2.4834  1.5566
   8523SM  H11B11311   0.826   1.320  -2.573 -2.1103  2.0422 -1.2755
   8523SM     P11312   0.940   1.023  -2.726 -0.2095  0.6163  0.1600
   8523SM   O1311313   0.867   1.047  -2.856 -0.8958 -0.1492 -0.0058
   8523SM   O1411314   1.082   0.982  -2.750  0.3359  0.4304 -0.5116
   8523SM   O1111315   0.872   0.916  -2.634  0.0660  0.4821 -0.1356
   8523SM   O1211316   0.930   1.157  -2.638  1.1315  0.1865  0.0589
   8523SM   C1S11317   0.935   0.834  -2.538 -0.0833  0.0935 -0.2232
   8523SM   H1S11318   0.963   0.900  -2.453 -1.7496  0.3063  0.1977
   8523SM   H1T11319   1.034   0.799  -2.575  0.2965 -0.3327  1.1338
   8523SM    NF11320   0.877   0.657  -2.371 -0.2048 -0.5074  0.1232
   8523SM   HNF11321   0.904   0.562  -2.382 -2.9230 -1.2204 -1.2479
   8523SM   C2S11322   0.837   0.720  -2.492 -0.1611 -0.7546  0.3320
   8523SM   H2S11323   0.743   0.776  -2.472  0.0081 -0.9587  1.7454
   8523SM   C3S11324   0.808   0.625  -2.609  0.4716  0.1505  0.4501
   8523SM   H3S11325   0.907   0.581  -2.633  0.2001  1.1016 -2.9250
   8523SM    O311326   0.753   0.694  -2.724  0.5394  0.1507 -0.5582
   8523SM   HO311327   0.750   0.784  -2.691  0.3224 -0.9803  2.8171
   8523SM   C4S11328   0.716   0.510  -2.568 -0.1667  0.2584  0.5280
   8523SM   H4S11329   0.777   0.418  -2.560  1.0704  0.8878 -1.0293
   8523SM   C5S11330   0.582   0.505  -2.569 -0.3579  0.2517 -0.1673
   8523SM   H5S11331   0.530   0.590  -2.617 -0.1698  0.0228 -0.7861
   8523SM   C6S11332   0.508   0.381  -2.538  0.9494 -0.4452 -0.2282
   8523SM   H6S11333   0.578   0.295  -2.547  3.5268  1.4415  0.4464
   8523SM   H6T11334   0.422   0.379  -2.608  0.6511 -0.5477  0.1350
   8523SM   C7S11335   0.459   0.393  -2.388 -0.3023  0.2394 -0.4161
   8523SM   H7S11336   0.393   0.306  -2.366  1.4278 -1.1523 -0.5020
   8523SM   H7T11337   0.390   0.480  -2.379  0.2481  0.8087 -1.4906
   8523SM   C8S11338   0.566   0.402  -2.285 -0.2850  0.2256 -0.2940
   8523SM   H8S11339   0.625   0.495  -2.297 -0.0441  0.3186  1.4016
   8523SM   H8T11340   0.638   0.317  -2.295  1.2498  1.4639 -0.1272
   8523SM   C9S11341   0.498   0.430  -2.145  0.5680  0.1297  0.0904
   8523SM   H9S11342   0.443   0.336  -2.122  0.1939  0.2827 -0.1735
   8523SM   H9T11343   0.431   0.517  -2.161  2.3682  1.3547 -1.1988
   8523SM  C10S11344   0.605   0.454  -2.042 -1.0484 -0.3956 -0.1710
   8523SM  H10S11345   0.641   0.559  -2.054  1.9219 -1.4679 -1.4378
   8523SM  H10T11346   0.696   0.390  -2.046 -0.6359  0.2517 -1.7172
   8523SM  C11S11347   0.552   0.438  -1.899  0.5192  0.0641 -0.0813
   8523SM  H11S11348   0.501   0.341  -1.882 -0.5654  0.1901 -2.2263
   8523SM  H11T11349   0.483   0.523  -1.879  0.8439  0.3720 -0.2438
   8523SM  C12S11350   0.657   0.445  -1.785  0.3108 -0.6960 -0.1350
   8523SM  H12S11351   0.723   0.533  -1.804  0.4013 -0.9850 -1.2738
   8523SM  H12T11352   0.711   0.350  -1.801 -2.0699 -1.8158 -2.3693
   8523SM  C13S11353   0.602   0.447  -1.648 -0.0990 -0.0404 -0.1371
   8523SM  H13S11354   0.519   0.375  -1.629  0.6164 -0.4269  1.6574
   8523SM  H13T11355   0.551   0.544  -1.633  0.2452  0.1733 -0.3244
   8523SM  C14S11356   0.712   0.429  -1.545  0.3055  0.4509  0.9540
   8523SM  H14S11357   0.747   0.532  -1.524 -1.4161  0.9472  1.5748
   8523SM  H14T11358   0.791   0.356  -1.576  0.1966  1.2923 -1.4898
   8523SM  C15S11359   0.646   0.395  -1.406  0.1467  0.0399 -0.8035
   8523SM  H15S11360   0.591   0.299  -1.419 -1.9034  0.8562  1.1501
   8523SM  H15T11361   0.577   0.479  -1.384  1.4944  0.7286  0.9776
   8523SM  C16S11362   0.747   0.387  -1.292 -0.2675  0.5602 -0.0966
   8523SM  H16S11363   0.811   0.476  -1.309 -0.1375  0.2739 -1.1827
   8523SM  H16T11364   0.794   0.287  -1.302 -1.7660 -0.4918  2.3589
   8523SM  C17S11365   0.687   0.388  -1.157 -0.3268  0.2538 -0.1601
   8523SM  H17S11366   0.754   0.341  -1.082  0.3104  0.7668 -0.3934
   8523SM  H17T11367   0.594   0.329  -1.166 -0.7901  1.1544 -1.5877
   8523SM  C18S11368   0.636   0.522  -1.106 -0.0095 -0.3731  0.3686
   8523SM  H18S11369   0.588   0.591  -1.180  0.7094  0.3653  0.5781
   8523SM  H18T11370   0.717   0.587  -1.067 -2.6424  3.6377 -0.1746
   8523SM  H18U11371   0.555   0.505  -1.032 -1.7032  0.6428 -1.1635
   8523SM   C1F11372   0.868   0.719  -2.257 -0.4500  0.5666  0.4509
   8523SM    OF11373   0.818   0.830  -2.255  0.1657  0.1713  0.2005
   8523SM   C2F11374   0.922   0.644  -2.142  0.0695 -0.3126 -0.2459
   8523SM   H2F11375   1.031   0.628  -2.151  0.1291 -0.1170  0.1068
   8523SM   H2G11376   0.886   0.539  -2.149  0.5709 -0.4185 -1.4060
   8523SM   C3F11377   0.893   0.719  -2.010 -0.4429 -0.1972 -0.9872
   8523SM   H3F11378   0.783   0.723  -1.993 -0.6247  0.1545 -2.1440
   8523SM   H3G11379   0.930   0.823  -2.006 -0.9355 -0.0142  3.0440
   8523SM   C4F11380   0.962   0.647  -1.893  0.3081 -0.4309  0.1703
   8523SM   H4F11381   1.067   0.640  -1.928  0.1613  0.3723 -0.4350
   8523SM   H4G11382   0.914   0.547  -1.880  1.1676 -1.0769 -1.3940
   8523SM   C5F11383   0.961   0.718  -1.759 -0.5821  0.2491 -0.0253
   8523SM   H5F11384   0.857   0.744  -1.731 -0.3256  1.2749  0.0155
   8523SM   H5G11385   1.024   0.809  -1.760 -1.4777  0.9003  0.6353
   8523SM   C6F11386   1.025   0.642  -1.641 -0.9797 -0.2611 -0.3104
   8523SM   H6F11387   1.132   0.662  -1.663 -1.7894  4.2823 -1.1206
   8523SM   H6G11388   0.994   0.536  -1.651 -1.4897  0.0587 -2.6541
   8523SM   C7F11389   0.992   0.706  -1.506 -0.4030 -0.1144 -0.1935
   8523SM   H7F11390   0.887   0.705  -1.468  0.1961 -0.5340  1.5549
   8523SM   H7G11391   1.015   0.814  -1.495  1.6977 -0.2957 -2.2217
   8523SM   C8F11392   1.073   0.648  -1.387  0.4148 -0.1239 -0.0354
   8523SM   H8F11393   1.182   0.632  -1.396  0.5089 -0.5539  1.4711
   8523SM   H8G11394   1.044   0.543  -1.365 -0.6241  0.0305 -0.6030
   8523SM   C9F11395   1.040   0.710  -1.257 -0.0779 -0.2109  0.1375
   8523SM   H9F11396   0.936   0.700  -1.219 -0.8708 -2.8634 -2.3339
   8523SM   H9G11397   1.051   0.820  -1.261  1.7453 -0.2380  2.3668
   8523SM  C10F11398   1.141   0.664  -1.150  0.0278 -0.4532  0.3662
   8523SM  H10F11399   1.244   0.690  -1.182  0.6907 -1.0968  1.8885
   8523SM  H10G11400   1.129   0.556  -1.130 -0.6087 -0.4050  0.2756
   8523SM  C11F11401   1.112   0.743  -1.021  0.3263  0.2187  0.0884
   8523SM  H11F11402   1.118   0.850  -1.048  2.4107  0.1090 -0.0386
   8523SM  H11G11403   1.193   0.717  -0.950  1.1571 -0.1874 -0.9976
   8523SM  C12F11404   0.977   0.700  -0.956 -0.5939  0.2589  0.9587
   8523SM  H12F11405   0.947   0.595  -0.976  1.1652 -0.1798  0.4368
   8523SM  H12G11406   0.896   0.765  -0.995  0.7754  1.4295 -0.0797
   8523SM  C13F11407   0.990   0.714  -0.799 -0.0673 -0.8068  0.5979
   8523SM  H13F11408   1.006   0.822  -0.781 -1.0202 -0.3317 -1.2420
   8523SM  H13G11409   1.085   0.659  -0.777  1.3666  1.3552  0.1347
   8523SM  C14F11410   0.867   0.668  -0.723  0.1205  0.0084  0.5751
   8523SM  H14F11411   0.872   0.558  -0.707  2.4308 -0.3486 -1.9548
   8523SM  H14G11412   0.780   0.706  -0.780  0.1169 -0.7307  0.0718
   8523SM  C15F11413   0.861   0.726  -0.581  0.3101 -0.0507 -0.0725
   8523SM  H15F11414   0.807   0.823  -0.588 -1.5635 -1.1169 -1.2507
   8523SM  H15G11415   0.966   0.743  -0.551  0.4344 -1.8699  0.6687
   8523SM  C16F11416   0.796   0.627  -0.480 -0.7671 -0.5993  0.2098
   8523SM  H16F11417   0.838   0.527  -0.504 -0.7938 -0.3239 -1.0645
   8523SM  H16G11418   0.686   0.614  -0.493 -0.6210 -1.0527 -0.6419
   8523SM  C17F11419   0.821   0.665  -0.330  0.1027 -0.6087  0.3845
   8523SM  H17F11420   0.804   0.774  -0.322  0.0043 -0.5401 -0.5926
   8523SM  H17G11421   0.924   0.639  -0.297 -0.0156 -0.7049  0.6775
   8523SM  C18F11422   0.738   0.582  -0.228 -0.5257 -0.1150 -0.6811
   8523SM  H18F11423   0.630   0.605  -0.243 -0.2547  1.4954 -0.3627
   8523SM  H18G11424   0.762   0.619  -0.126  1.9212 -1.4832 -0.6849
   8523SM  C19F11425   0.771   0.430  -0.247  0.6786 -0.0980 -0.1011
   8523SM  H19F11426   0.878   0.401  -0.252  1.5084  2.4914  0.6953
   8523SM  H19G11427   0.724   0.402  -0.343 -0.0451 -1.6639  0.6679
   8523SM  C20F11428   0.711   0.339  -0.133 -0.0532  0.7567 -0.2054
   8523SM  H20F11429   0.766   0.368  -0.041  0.7332  1.4340 -0.8706
   8523SM  H20G11430   0.732   0.231  -0.150 -1.6104  0.4640 -0.4616
   8523SM  C21F11431   0.553   0.354  -0.116 -0.6306  0.3125 -0.0778
   8523SM  H21F11432   0.507   0.293  -0.196 -0.3715  0.1720 -0.1190
   8523SM  H21G11433   0.530   0.463  -0.125  2.7932  1.1768  0.1172
   8523SM  C22F11434   0.504   0.304   0.016  0.0251  0.4695  0.4593
   8523SM  H22F11435   0.548   0.353   0.105  2.5818 -2.6564  1.0820
   8523SM  H22G11436   0.534   0.198   0.023  0.0921  0.5096  0.7883
   8523SM  C23F11437   0.357   0.328   0.025 -0.9384 -0.2002  0.2948
   8523SM  H23F11438   0.327   0.335   0.132 -0.5703 -0.5279  0.4224
   8523SM  H23G11439   0.294   0.253  -0.027 -1.0136 -0.8883  1.3503
   8523SM  H23H11440   0.323   0.423  -0.022  0.3170  0.3908  0.5429
   8623SM     N11441  -0.694  -1.150  -3.165  0.0007  0.0557  0.5299
   8623SM   C1511442  -0.637  -1.138  -3.302 -0.2914  0.1033 -0.3174
   8623SM  H15A11443  -0.559  -1.065  -3.315  1.1891 -1.4154 -0.2353
   8623SM  H15B11444  -0.715  -1.134  -3.377  1.9633  1.3269 -2.7786
   8623SM  H15C11445  -0.592  -1.231  -3.331 -2.1792 -0.8980 -0.1504
   8623SM   C1411446  -0.762  -1.019  -3.131  0.4781  0.3636 -0.6227
   8623SM  H14A11447  -0.694  -0.935  -3.135  1.7544 -0.6670 -1.1534
   8623SM  H14B11448  -0.811  -1.030  -3.036  2.7936 -0.7238  0.5196
   8623SM  H14C11449  -0.838  -0.999  -3.205  0.7383 -0.1627 -1.0335
   8623SM   C1311450  -0.790  -1.263  -3.164 -0.5317 -0.5979  0.8198
   8623SM  H13A11451  -0.837  -1.246  -3.069  0.2275 -1.0119  1.2804
   8623SM  H13B11452  -0.748  -1.360  -3.142 -2.4558 -1.2567  1.8067
   8623SM  H13C11453  -0.866  -1.271  -3.240 -1.8036  0.9753  1.8644
   8623SM   C1211454  -0.589  -1.189  -3.070  0.1135  0.3633  0.1127
   8623SM  H12A11455  -0.514  -1.113  -3.085  0.2903  0.3287  0.7860
   8623SM  H12B11456  -0.552  -1.286  -3.100 -0.5797  0.0501  0.2555
   8623SM   C1111457  -0.621  -1.186  -2.921  0.1853 -0.6254 -0.5190
   8623SM  H11A11458  -0.665  -1.087  -2.898  0.8962  0.0403 -1.9379
   8623SM  H11B11459  -0.525  -1.201  -2.867  0.2530  0.3674 -0.3503
   8623SM     P11460  -0.836  -1.280  -2.798  0.2904 -0.3050  0.0972
   8623SM   O1311461  -0.921  -1.178  -2.861  0.0700 -0.1702  0.0923
   8623SM   O1411462  -0.891  -1.411  -2.755 -0.2149  0.7317  0.6525
   8623SM   O1111463  -0.755  -1.206  -2.678  0.8365 -0.4287 -0.2407
   8623SM   O1211464  -0.707  -1.301  -2.895  0.0538 -0.5748 -0.1062
   8623SM   C1S11465  -0.846  -1.176  -2.568  0.2091  0.6570  0.3382
   8623SM   H1S11466  -0.888  -1.264  -2.516  0.5412  0.6136  0.5361
   8623SM   H1T11467  -0.932  -1.117  -2.606 -0.8436 -2.3207 -2.2364
   8623SM    NF11468  -0.845  -1.085  -2.331 -0.1758 -0.5939  0.8742
   8623SM   HNF11469  -0.901  -1.003  -2.330  2.5344  1.5243 -1.8716
   8623SM   C2S11470  -0.772  -1.090  -2.460 -0.3762  0.4527  0.0160
   8623SM   H2S11471  -0.681  -1.148  -2.432  0.3156  1.6619  0.3439
   8623SM   C3S11472  -0.723  -0.951  -2.522  0.2916 -0.2838 -0.0864
   8623SM   H3S11473  -0.821  -0.903  -2.544  0.2682  0.1553  0.9292
   8623SM    O311474  -0.649  -0.953  -2.642  0.0835  0.1739  0.1313
   8623SM   HO311475  -0.643  -1.046  -2.665 -0.5619  0.6310 -2.0978
   8623SM   C4S11476  -0.654  -0.866  -2.412 -0.5794 -0.1897  0.3299
   8623SM   H4S11477  -0.725  -0.800  -2.360 -0.5998  1.5392 -1.7543
   8623SM   C5S11478  -0.521  -0.869  -2.375  0.8280 -0.1206 -0.6555
   8623SM   H5S11479  -0.450  -0.931  -2.431  0.3819  0.6362 -2.1287
   8623SM   C6S11480  -0.456  -0.803  -2.247  0.5818 -0.2728  0.6592
   8623SM   H6S11481  -0.381  -0.729  -2.280 -1.0224  1.8435  1.4946
   8623SM   H6T11482  -0.401  -0.879  -2.187 -0.8151 -2.7464 -1.0047
   8623SM   C7S11483  -0.553  -0.715  -2.154  0.2551  0.6934  0.4230
   8623SM   H7S11484  -0.630  -0.781  -2.108  1.4424 -0.6107  0.6469
   8623SM   H7T11485  -0.608  -0.635  -2.206  0.5314  0.5590 -0.0789
   8623SM   C8S11486  -0.482  -0.665  -2.027 -0.7132 -0.2090  0.3931
   8623SM   H8S11487  -0.435  -0.751  -1.974 -0.3074  0.0960  0.5345
   8623SM   H8T11488  -0.554  -0.614  -1.961  1.0508  2.4804  0.3842
   8623SM   C9S11489  -0.365  -0.565  -2.050  0.0580 -0.3291  0.2677
   8623SM   H9S11490  -0.408  -0.478  -2.104  2.5690  0.8427 -0.0092
   8623SM   H9T11491  -0.285  -0.606  -2.116  0.2269  1.2977 -0.6064
   8623SM  C10S11492  -0.304  -0.512  -1.917 -0.4436 -0.1957 -0.1916
   8623SM  H10S11493  -0.389  -0.498  -1.847 -0.5206 -0.6786 -0.1852
   8623SM  H10T11494  -0.247  -0.418  -1.934  3.0378 -2.0545  0.1327
   8623SM  C11S11495  -0.209  -0.611  -1.851  0.0940  0.1593 -0.1038
   8623SM  H11S11496  -0.112  -0.623  -1.903  0.9435  1.2838  1.1532
   8623SM  H11T11497  -0.256  -0.712  -1.841  2.0204 -0.8287 -0.4882
   8623SM  C12S11498  -0.163  -0.570  -1.709  0.1255  0.0999 -0.0931
   8623SM  H12S11499  -0.215  -0.474  -1.687  1.1382  1.4523 -3.1632
   8623SM  H12T11500  -0.052  -0.569  -1.703  0.0859 -0.6740  1.0657
   8623SM  C13S11501  -0.212  -0.664  -1.594  0.2615 -0.9700 -0.1492
   8623SM  H13S11502  -0.198  -0.772  -1.614  2.0444 -1.2280  2.1439
   8623SM  H13T11503  -0.322  -0.649  -1.581  0.5812  0.2898  1.4560
   8623SM  C14S11504  -0.156  -0.641  -1.452  0.2916  0.3766  0.6382
   8623SM  H14S11505  -0.184  -0.540  -1.416  0.9911  0.7792  0.0702
   8623SM  H14T11506  -0.049  -0.666  -1.437  0.2298 -0.9783 -0.8256
   8623SM  C15S11507  -0.225  -0.733  -1.351  0.0361  0.1904  0.1939
   8623SM  H15S11508  -0.196  -0.837  -1.378 -0.0578 -0.3806  2.1378
   8623SM  H15T11509  -0.335  -0.721  -1.353 -0.3648 -2.7207  0.6062
   8623SM  C16S11510  -0.170  -0.706  -1.204  0.7677  0.5768 -0.4706
   8623SM  H16S11511  -0.189  -0.597  -1.190 -2.1002  0.0267  0.7654
   8623SM  H16T11512  -0.063  -0.734  -1.196 -0.0012 -2.4382  0.7246
   8623SM  C17S11513  -0.245  -0.792  -1.099 -0.1785  0.2231 -0.0486
   8623SM  H17S11514  -0.221  -0.896  -1.127  0.0865  0.2313  0.1410
   8623SM  H17T11515  -0.355  -0.779  -1.106 -0.4749 -1.4257  1.0483
   8623SM  C18S11516  -0.199  -0.761  -0.954  0.6609  0.2920  0.1874
   8623SM  H18S11517  -0.122  -0.681  -0.955  0.9271  0.0655  1.0981
   8623SM  H18T11518  -0.154  -0.850  -0.903 -0.1241 -0.2416 -0.0280
   8623SM  H18U11519  -0.294  -0.727  -0.907 -0.5447 -1.7617 -0.6555
   8623SM   C1F11520  -0.867  -1.192  -2.253  0.0196  0.8617 -0.0089
   8623SM    OF11521  -0.798  -1.292  -2.264  0.3299 -0.2831  0.0896
   8623SM   C2F11522  -0.987  -1.197  -2.163  0.0118  0.1444 -0.0566
   8623SM   H2F11523  -1.060  -1.276  -2.192 -3.5974  2.1418  2.6578
   8623SM   H2G11524  -1.038  -1.098  -2.158 -0.6626 -0.2366  0.9789
   8623SM   C3F11525  -0.936  -1.241  -2.025  0.3279 -0.1310 -0.6012
   8623SM   H3F11526  -0.868  -1.166  -1.978 -0.9048 -0.2116  1.4215
   8623SM   H3G11527  -0.888  -1.340  -2.014  1.9402  0.8210  1.8665
   8623SM   C4F11528  -1.058  -1.241  -1.921 -0.6271  0.0905  0.4261
   8623SM   H4F11529  -1.139  -1.304  -1.963 -0.9079  1.2974 -0.9319
   8623SM   H4G11530  -1.100  -1.139  -1.911  0.7147  0.9279 -1.7027
   8623SM   C5F11531  -1.007  -1.297  -1.787  0.2054 -0.1696  0.0927
   8623SM   H5F11532  -0.941  -1.219  -1.746  0.5001  0.6724 -1.8678
   8623SM   H5G11533  -0.941  -1.383  -1.812 -0.1538 -0.3942 -0.0966
   8623SM   C6F11534  -1.118  -1.335  -1.695  0.4673 -0.0186  0.6118
   8623SM   H6F11535  -1.187  -1.402  -1.749 -1.1441  0.6411  1.7566
   8623SM   H6G11536  -1.180  -1.246  -1.671  0.3347  0.0693 -0.0645
   8623SM   C7F11537  -1.058  -1.370  -1.560  0.3046  0.0116 -0.7487
   8623SM   H7F11538  -0.993  -1.285  -1.531  0.5816 -0.5835  0.4441
   8623SM   H7G11539  -1.002  -1.465  -1.550  2.3095  1.3462  1.8880
   8623SM   C8F11540  -1.172  -1.375  -1.453 -0.6441  0.1776 -0.0994
   8623SM   H8F11541  -1.244  -1.456  -1.478  1.9113 -2.7538  1.3675
   8623SM   H8G11542  -1.221  -1.275  -1.457 -0.5445  0.2302 -0.0137
   8623SM   C9F11543  -1.118  -1.406  -1.312  0.0726  0.2446  0.1989
   8623SM   H9F11544  -1.050  -1.493  -1.319 -0.2968 -0.2236  1.9874
   8623SM   H9G11545  -1.209  -1.432  -1.253 -0.3950  0.0409 -0.6068
   8623SM  C10F11546  -1.033  -1.293  -1.255 -0.3874 -0.0477 -0.3564
   8623SM  H10F11547  -1.105  -1.208  -1.250  0.0206  0.3108 -0.4788
   8623SM  H10G11548  -0.960  -1.265  -1.334 -2.3116  1.0290 -1.8086
   8623SM  C11F11549  -0.957  -1.320  -1.125  0.3626  0.1608 -0.5031
   8623SM  H11F11550  -0.915  -1.225  -1.086  3.0431 -0.4262 -1.7896
   8623SM  H11G11551  -0.866  -1.375  -1.154  0.1151 -1.1718  1.1020
   8623SM  C12F11552  -1.037  -1.396  -1.016  0.2582 -0.0038  0.7541
   8623SM  H12F11553  -1.063  -1.496  -1.055  3.4254 -1.6529  2.4420
   8623SM  H12G11554  -1.131  -1.337  -1.004  0.7777  1.2394 -0.8165
   8623SM  C13F11555  -0.960  -1.407  -0.884 -0.0230  0.5753  0.3845
   8623SM  H13F11556  -0.947  -1.301  -0.854 -1.0278  1.0277 -0.6597
   8623SM  H13G11557  -0.868  -1.467  -0.900 -0.8666 -0.2831 -1.5853
   8623SM  C14F11558  -1.052  -1.458  -0.769 -0.4867  0.0020 -0.6521
   8623SM  H14F11559  -1.044  -1.569  -0.775 -0.3601  0.0401 -1.2330
   8623SM  H14G11560  -1.158  -1.424  -0.767 -0.9489 -1.3395  2.2533
   8623SM  C15F11561  -0.995  -1.412  -0.631 -0.0759 -0.2173 -0.3040
   8623SM  H15F11562  -0.977  -1.303  -0.628  0.0898 -0.2345 -0.5911
   8623SM  H15G11563  -0.899  -1.467  -0.618  0.2104 -0.5618 -3.1420
   8623SM  C16F11564  -1.091  -1.455  -0.518  0.4914  0.3126 -0.0121
   8623SM  H16F11565  -1.086  -1.566  -0.512  2.2221  0.4015  0.6148
   8623SM  H16G11566  -1.191  -1.423  -0.554  0.9075  0.0712 -1.4283
   8623SM  C17F11567  -1.068  -1.390  -0.385  0.3041 -0.0299  0.7365
   8623SM  H17F11568  -1.164  -1.392  -0.329 -0.6343 -1.3815 -0.8015
   8623SM  H17G11569  -1.038  -1.284  -0.394  0.3009  0.0249  1.3301
   8623SM  C18F11570  -0.959  -1.464  -0.291 -0.1293 -0.0299  0.2259
   8623SM  H18F11571  -0.862  -1.460  -0.345 -0.0438  1.0691  0.4446
   8623SM  H18G11572  -0.986  -1.571  -0.294 -2.6680  0.5372 -2.8388
   8623SM  C19F11573  -0.937  -1.394  -0.157  0.1026  0.6722 -0.1419
   8623SM  H19F11574  -1.037  -1.401  -0.110  0.0488  0.5407 -0.2732
   8623SM  H19G11575  -0.909  -1.287  -0.169  0.9249  0.5698  0.7265
   8623SM  C20F11576  -0.834  -1.463  -0.067  0.1599 -0.4700  0.4649
   8623SM  H20F11577  -0.730  -1.433  -0.093  0.2029 -1.8793 -1.1877
   8623SM  H20G11578  -0.841  -1.573  -0.074 -1.2188 -0.5464  2.1754
   8623SM  C21F11579  -0.859  -1.438   0.088 -0.3917 -0.1392 -0.2839
   8623SM  H21F11580  -0.969  -1.424   0.099 -0.6300 -1.0483 -1.2866
   8623SM  H21G11581  -0.815  -1.343   0.123 -0.9479 -0.2212  0.6875
   8623SM  C22F11582  -0.801  -1.562   0.169  0.6569 -0.3102  0.0304
   8623SM  H22F11583  -0.701  -1.582   0.125 -0.5981 -3.3521 -1.7444
   8623SM  H22G11584  -0.866  -1.647   0.138 -1.0200  1.2735 -1.0091
   8623SM  C23F11585  -0.812  -1.541   0.318  0.7948  0.4935 -0.7882
   8623SM  H23F11586  -0.914  -1.501   0.341  1.2879  1.1428  0.3481
   8623SM  H23G11587  -0.740  -1.467   0.358  0.9703 -0.6090  1.0477
   8623SM  H23H11588  -0.785  -1.625   0.385 -3.0304 -0.0320  0.3590
   8723SM     N11589   0.336  -0.547  -3.254  0.1740 -0.0343 -0.1378
   8723SM   C1511590   0.344  -0.437  -3.354 -0.1806 -0.3711 -0.1658
   8723SM  H15A11591   0.247  -0.414  -3.395  0.7073  0.6269 -1.8266
   8723SM  H15B11592   0.395  -0.476  -3.441  0.6509 -1.1894  0.6679
   8723SM  H15C11593   0.381  -0.345  -3.312  0.2998 -0.4761 -0.3427
   8723SM   C1411594   0.262  -0.664  -3.313 -0.1934 -0.0819  1.3990
   8723SM  H14A11595   0.227  -0.727  -3.232  0.5975 -1.3272  0.8002
   8723SM  H14B11596   0.326  -0.722  -3.377  0.0799  0.5743  1.0665
   8723SM  H14C11597   0.175  -0.629  -3.368  0.9475  0.8345  0.0975
   8723SM   C1311598   0.477  -0.593  -3.218  0.4458  0.4422  0.0978
   8723SM  H13A11599   0.474  -0.679  -3.152  0.6598  0.4793  0.1563
   8723SM  H13B11600   0.531  -0.512  -3.173  0.5794  0.2255  0.3325
   8723SM  H13C11601   0.538  -0.633  -3.298 -0.6510 -0.5039 -0.2971
   8723SM   C1211602   0.260  -0.500  -3.129 -0.6696  0.5208 -0.5249
   8723SM  H12A11603   0.165  -0.453  -3.147  0.0712  2.0180 -0.6649
   8723SM  H12B11604   0.320  -0.423  -3.083  0.8773  0.1982 -1.8782
   8723SM   C1111605   0.237  -0.614  -3.021  0.3071 -0.4128 -0.6278
   8723SM  H11A11606   0.195  -0.561  -2.933 -1.1454 -4.7665  1.6035
   8723SM  H11B11607   0.338  -0.651  -2.991  0.8460  0.6086 -1.1396
   8723SM     P11608   0.006  -0.760  -3.026 -0.3450  0.0178 -0.0183
   8723SM   O1311609  -0.083  -0.643  -3.060  0.0764  0.0681 -0.1048
   8723SM   O1411610  -0.023  -0.893  -3.086  0.1903 -0.3702 -0.0857
   8723SM   O1111611   0.006  -0.776  -2.869  0.3645  0.2763 -0.2096
   8723SM   O1211612   0.152  -0.721  -3.066 -0.2309  0.1738  0.1858
   8723SM   C1S11613   0.099  -0.872  -2.816 -0.5986 -0.3337  0.0002
   8723SM   H1S11614   0.204  -0.841  -2.837 -0.1919  0.3324  2.6128
   8723SM   H1T11615   0.080  -0.975  -2.850  0.0403 -0.3118 -0.4374
   8723SM    NF11616   0.197  -0.950  -2.600 -0.3813 -0.3075  0.2789
   8723SM   HNF11617   0.184  -1.047  -2.581 -1.1091 -0.1305  0.7041
   8723SM   C2S11618   0.089  -0.877  -2.658 -0.4199 -0.5384 -0.0552
   8723SM   H2S11619   0.098  -0.768  -2.640 -1.6689 -0.2302 -1.1484
   8723SM   C3S11620  -0.044  -0.939  -2.629  0.8143 -0.2755  0.4301
   8723SM   H3S11621  -0.048  -1.035  -2.683  1.6215 -0.0109 -0.1127
   8723SM    O311622  -0.152  -0.863  -2.686 -0.0047  0.0543 -0.2334
   8723SM   HO311623  -0.102  -0.814  -2.751  1.2495  0.3319  0.8964
   8723SM   C4S11624  -0.061  -0.961  -2.476  0.0217 -0.2738 -0.6141
   8723SM   H4S11625  -0.027  -1.059  -2.441 -1.3998  0.1201  2.1372
   8723SM   C5S11626  -0.086  -0.854  -2.393  0.3380 -0.6366  0.3520
   8723SM   H5S11627  -0.079  -0.755  -2.442  0.6342 -1.2589 -0.9082
   8723SM   C6S11628  -0.088  -0.855  -2.240  0.1786 -0.0863  0.3401
   8723SM   H6S11629  -0.164  -0.782  -2.205  0.5700  1.5786 -2.0604
   8723SM   H6T11630   0.011  -0.823  -2.200 -0.3900 -0.3345  2.0266
   8723SM   C7S11631  -0.115  -0.984  -2.166  0.4291 -0.0030  0.0233
   8723SM   H7S11632  -0.019  -1.036  -2.149  1.8009  1.9092 -1.4631
   8723SM   H7T11633  -0.184  -1.051  -2.221  1.0450  0.3061 -1.1433
   8723SM   C8S11634  -0.148  -0.946  -2.021 -0.1312  0.7472 -1.0380
   8723SM   H8S11635  -0.246  -0.896  -2.009 -0.5006 -0.3562  0.9772
   8723SM   H8T11636  -0.064  -0.882  -1.986 -1.2326  0.7572  1.9089
   8723SM   C9S11637  -0.135  -1.064  -1.924  0.8484  0.8307  0.6630
   8723SM   H9S11638  -0.046  -1.129  -1.934 -0.7805 -1.2489 -1.3508
   8723SM   H9T11639  -0.226  -1.126  -1.941  0.8533  1.2562 -1.1918
   8723SM  C10S11640  -0.123  -1.003  -1.786 -0.3287 -0.3092  0.2008
   8723SM  H10S11641  -0.204  -0.933  -1.757  0.5559  0.3128  1.2761
   8723SM  H10T11642  -0.026  -0.948  -1.784 -0.5461  0.1009 -0.4685
   8723SM  C11S11643  -0.122  -1.106  -1.674 -0.0637  0.2943  1.0965
   8723SM  H11S11644  -0.116  -1.054  -1.576  0.0322 -0.0507  1.2774
   8723SM  H11T11645  -0.025  -1.161  -1.677 -0.8286 -1.0862  0.6981
   8723SM  C12S11646  -0.248  -1.210  -1.683 -0.0620  0.5760  0.7647
   8723SM  H12S11647  -0.226  -1.281  -1.764  1.8343  0.2177  1.5383
   8723SM  H12T11648  -0.320  -1.132  -1.715  1.5620  1.2368 -1.4861
   8723SM  C13S11649  -0.285  -1.286  -1.557 -0.2909  0.2701 -0.3797
   8723SM  H13S11650  -0.383  -1.332  -1.580 -1.3886  2.6676 -0.8049
   8723SM  H13T11651  -0.302  -1.211  -1.477  0.2198 -0.7151  0.6884
   8723SM  C14S11652  -0.172  -1.386  -1.520  0.2941 -0.3326 -0.2599
   8723SM  H14S11653  -0.074  -1.338  -1.498 -1.6161  3.2873  1.2262
   8723SM  H14T11654  -0.161  -1.465  -1.597  1.8418 -0.9412  0.5356
   8723SM  C15S11655  -0.205  -1.470  -1.385 -0.2458  0.3635 -0.1228
   8723SM  H15S11656  -0.119  -1.539  -1.373 -1.5309 -1.5618 -1.3520
   8723SM  H15T11657  -0.298  -1.528  -1.401 -0.5021  1.6181 -4.3474
   8723SM  C16S11658  -0.211  -1.373  -1.263  0.4133 -0.0859  0.3545
   8723SM  H16S11659  -0.309  -1.322  -1.255  0.3877 -0.0636 -0.0489
   8723SM  H16T11660  -0.128  -1.300  -1.269 -0.7080  1.1052 -2.2255
   8723SM  C17S11661  -0.185  -1.435  -1.122 -0.3714  1.0256  0.3602
   8723SM  H17S11662  -0.077  -1.462  -1.117 -0.5324  0.0601 -0.9050
   8723SM  H17T11663  -0.254  -1.519  -1.102  1.7436 -0.8448  0.1827
   8723SM  C18S11664  -0.186  -1.334  -1.003  0.1807  0.4656  0.2683
   8723SM  H18S11665  -0.293  -1.305  -0.993  0.0895 -0.1952  1.4124
   8723SM  H18T11666  -0.120  -1.247  -1.022  3.1049 -1.7505 -0.3879
   8723SM  H18U11667  -0.160  -1.397  -0.915  0.2952  0.2416  0.0739
   8723SM   C1F11668   0.322  -0.895  -2.588 -0.0924  0.9236 -0.3136
   8723SM    OF11669   0.342  -0.780  -2.613  0.6157  0.7506  0.0783
   8723SM   C2F11670   0.437  -0.983  -2.555  0.2112 -0.4406  0.2192
   8723SM   H2F11671   0.513  -0.966  -2.634  0.0119  1.0754  0.3253
   8723SM   H2G11672   0.416  -1.092  -2.554 -0.3478 -0.3604  2.0823
   8723SM   C3F11673   0.501  -0.940  -2.419 -0.3311  0.3602 -1.1748
   8723SM   H3F11674   0.431  -0.948  -2.333  0.3598  1.9238 -0.4406
   8723SM   H3G11675   0.535  -0.834  -2.417 -1.4058  0.7118 -0.7715
   8723SM   C4F11676   0.631  -1.016  -2.388  0.3283  0.1977 -0.0395
   8723SM   H4F11677   0.713  -1.001  -2.461  0.3365  0.1396 -0.0431
   8723SM   H4G11678   0.607  -1.123  -2.405  0.9749  0.1841 -0.9408
   8723SM   C5F11679   0.688  -0.987  -2.245 -0.1076 -0.1481 -1.0124
   8723SM   H5F11680   0.719  -0.880  -2.249  0.2118 -0.2462 -1.1948
   8723SM   H5G11681   0.781  -1.047  -2.247 -0.8003 -1.3598  0.6934
   8723SM   C6F11682   0.608  -1.026  -2.119 -0.2656  0.1186 -0.2004
   8723SM   H6F11683   0.596  -1.137  -2.125  0.1621  0.1468 -2.1979
   8723SM   H6G11684   0.510  -0.977  -2.105  0.1241  0.9568 -0.3846
   8723SM   C7F11685   0.692  -0.996  -1.992 -0.4640 -0.4216 -0.3572
   8723SM   H7F11686   0.729  -0.891  -1.998  1.2348 -0.8803  1.2244
   8723SM   H7G11687   0.780  -1.064  -1.994  0.3493  0.4990  1.4189
   8723SM   C8F11688   0.612  -1.005  -1.864 -0.0449 -0.2286  0.8577
   8723SM   H8F11689   0.556  -1.101  -1.862  2.9895 -2.1536  1.4775
   8723SM   H8G11690   0.538  -0.922  -1.862  0.6419  0.5356 -1.8599
   8723SM   C9F11691   0.694  -1.015  -1.733  0.0770 -0.3211 -0.2342
   8723SM   H9F11692   0.755  -0.922  -1.722 -0.1560 -0.2725  0.7732
   8723SM   H9G11693   0.775  -1.090  -1.739  0.9988  0.7459 -3.4412
   8723SM  C10F11694   0.596  -1.024  -1.614 -0.0231  0.4499 -0.5882
   8723SM  H10F11695   0.542  -1.121  -1.617  1.0063 -0.1368 -0.4818
   8723SM  H10G11696   0.520  -0.943  -1.615 -1.8930 -1.2309 -0.3697
   8723SM  C11F11697   0.675  -1.009  -1.483  0.0193 -0.1252 -0.0563
   8723SM  H11F11698   0.716  -0.908  -1.467  0.0523  0.1991 -1.8993
   8723SM  H11G11699   0.760  -1.080  -1.496  1.4636  1.6250 -0.6023
   8723SM  C12F11700   0.576  -1.034  -1.356  0.0617  0.1824  0.3405
   8723SM  H12F11701   0.530  -1.135  -1.362 -1.2860  0.5973  2.6246
   8723SM  H12G11702   0.488  -0.968  -1.371  0.4208  0.2451 -1.8033
   8723SM  C13F11703   0.641  -1.022  -1.217 -0.6100 -0.3530 -0.8590
   8723SM  H13F11704   0.685  -0.921  -1.203  2.5676 -1.4656 -1.8997
   8723SM  H13G11705   0.730  -1.088  -1.206 -1.3150 -1.0420  1.0682
   8723SM  C14F11706   0.540  -1.054  -1.108 -0.2948  0.1092  0.2072
   8723SM  H14F11707   0.501  -1.157  -1.123 -1.0384  0.5404 -1.0029
   8723SM  H14G11708   0.451  -0.988  -1.121 -0.0400 -0.0856 -3.8301
   8723SM  C15F11709   0.594  -1.044  -0.969 -0.1435  0.0837 -0.5124
   8723SM  H15F11710   0.663  -0.959  -0.953  2.0130 -1.3330 -1.7112
   8723SM  H15G11711   0.663  -1.129  -0.945  0.9766  1.0497 -0.2245
   8723SM  C16F11712   0.489  -1.044  -0.854  0.2987  0.1512 -0.4077
   8723SM  H16F11713   0.401  -1.108  -0.873 -0.0134  1.0032 -1.9570
   8723SM  H16G11714   0.449  -0.940  -0.849  1.3233  0.5173  0.6005
   8723SM  C17F11715   0.558  -1.072  -0.716  0.5148  0.0884  1.0142
   8723SM  H17F11716   0.653  -1.014  -0.709 -0.0423  1.0026  1.1038
   8723SM  H17G11717   0.591  -1.179  -0.710  0.4107  0.0149  0.3970
   8723SM  C18F11718   0.466  -1.015  -0.604  0.1511  1.0120  0.0718
   8723SM  H18F11719   0.364  -1.058  -0.608  0.8577 -0.9761  1.4066
   8723SM  H18G11720   0.441  -0.908  -0.614  1.5439  1.4690  1.1376
   8723SM  C19F11721   0.527  -1.051  -0.464  0.1247 -0.7351 -0.8223
   8723SM  H19F11722   0.637  -1.037  -0.473  0.2771 -1.2450  0.1358
   8723SM  H19G11723   0.539  -1.161  -0.463  2.8346 -0.5225 -1.6757
   8723SM  C20F11724   0.466  -0.999  -0.341 -0.1078 -0.0148  0.0838
   8723SM  H20F11725   0.490  -0.890  -0.334  0.4593 -0.0775 -0.7835
   8723SM  H20G11726   0.518  -1.046  -0.255  1.3955 -1.7120 -1.6821
   8723SM  C21F11727   0.314  -1.027  -0.319  0.2100  0.4987  0.1049
   8723SM  H21F11728   0.301  -1.137  -0.312 -2.6558  0.8444  2.4009
   8723SM  H21G11729   0.260  -0.993  -0.410 -0.7841  3.3357  1.6395
   8723SM  C22F11730   0.247  -0.969  -0.201  0.8888 -0.5225 -0.0607
   8723SM  H22F11731   0.284  -1.012  -0.105 -0.0084 -1.5560 -0.1605
   8723SM  H22G11732   0.138  -0.985  -0.213  0.7479  0.7038 -0.6039
   8723SM  C23F11733   0.261  -0.816  -0.194  0.0330 -0.2453 -0.0799
   8723SM  H23F11734   0.200  -0.774  -0.112 -1.4501 -0.2880 -1.1091
   8723SM  H23G11735   0.230  -0.774  -0.293 -0.7837  0.1772  0.3499
   8723SM  H23H11736   0.369  -0.792  -0.182  0.3314 -2.1252  1.4876
   8823SM     N11737  -2.464  -0.641  -2.649  0.2390 -0.4052 -0.6761
   8823SM   C1511738  -2.367  -0.640  -2.530  0.4702 -0.1574 -0.3077
   8823SM  H15A11739  -2.411  -0.709  -2.460 -1.3267  0.0830 -1.1652
   8823SM  H15B11740  -2.366  -0.541  -2.487 -1.5488 -0.6713  1.0388
   8823SM  H15C11741  -2.270  -0.680  -2.558  0.5820 -0.2043  0.1419
   8823SM   C1411742  -2.590  -0.591  -2.607  0.0751 -0.3025 -0.1443
   8823SM  H14A11743  -2.630  -0.659  -2.533  2.6984 -0.6507  1.0699
   8823SM  H14B11744  -2.665  -0.584  -2.685 -1.2327  0.7884  1.1635
   8823SM  H14C11745  -2.576  -0.499  -2.554  1.2751 -0.6390  0.1564
   8823SM   C1311746  -2.405  -0.559  -2.762  0.7003 -0.3008 -0.1203
   8823SM  H13A11747  -2.396  -0.454  -2.739  0.1670  0.0521 -1.4590
   8823SM  H13B11748  -2.468  -0.565  -2.849 -0.9028 -0.1534  0.9971
   8823SM  H13C11749  -2.312  -0.601  -2.798  1.1324  2.8146 -3.1043
   8823SM   C1211750  -2.477  -0.784  -2.692  0.3880  0.1756  0.8557
   8823SM  H12A11751  -2.377  -0.818  -2.718  0.4807  0.0467  1.3683
   8823SM  H12B11752  -2.529  -0.778  -2.786  2.3065  1.9147 -0.2010
   8823SM   C1111753  -2.547  -0.896  -2.607  0.0984  0.1487  0.2918
   8823SM  H11A11754  -2.536  -0.991  -2.662  0.5265  1.1465 -1.4214
   8823SM  H11B11755  -2.649  -0.856  -2.589 -0.3000 -0.7797  0.1341
   8823SM     P11756  -2.515  -1.000  -2.369 -0.2708  0.1232  0.0151
   8823SM   O1311757  -2.459  -1.128  -2.408 -0.2341 -0.3183 -0.1447
   8823SM   O1411758  -2.474  -0.949  -2.240 -0.3532  0.0473  0.5635
   8823SM   O1111759  -2.669  -1.005  -2.379  0.1630 -0.5483 -0.7611
   8823SM   O1211760  -2.485  -0.896  -2.481 -0.4220  1.3385 -0.0090
   8823SM   C1S11761  -2.756  -1.033  -2.261 -0.2152 -0.1533  1.2205
   8823SM   H1S11762  -2.704  -1.105  -2.193 -1.3898 -1.9879  0.2719
   8823SM   H1T11763  -2.847  -1.087  -2.296  0.9605 -1.0853 -0.5688
   8823SM    NF11764  -2.887  -0.951  -2.062  0.1033 -0.5175  0.4723
   8823SM   HNF11765  -2.976  -0.907  -2.069  0.0323 -0.7638 -0.2688
   8823SM   C2S11766  -2.794  -0.903  -2.175  0.5125 -0.0254 -0.2363
   8823SM   H2S11767  -2.699  -0.868  -2.129  1.2945 -2.2761 -0.0064
   8823SM   C3S11768  -2.851  -0.791  -2.264 -0.4864 -0.6563  0.1874
   8823SM   H3S11769  -2.946  -0.820  -2.314 -1.2567  0.9429  0.6342
   8823SM    O311770  -2.769  -0.750  -2.375  0.0803  0.5547 -0.0679
   8823SM   HO311771  -2.703  -0.819  -2.385 -2.4443 -2.3596  1.5149
   8823SM   C4S11772  -2.877  -0.663  -2.184 -0.7087 -0.0074  0.4945
   8823SM   H4S11773  -2.784  -0.607  -2.168  1.3286 -2.2051 -2.5247
   8823SM   C5S11774  -3.001  -0.610  -2.170 -0.4226 -0.1665 -1.0290
   8823SM   H5S11775  -3.092  -0.662  -2.203 -0.4247 -0.4468 -0.5774
   8823SM   C6S11776  -3.043  -0.475  -2.107  0.6426  0.0828  0.7080
   8823SM   H6S11777  -3.113  -0.441  -2.187  0.5311  0.9334  1.1638
   8823SM   H6T11778  -2.959  -0.403  -2.105  0.2652  0.5672 -0.3312
   8823SM   C7S11779  -3.125  -0.489  -1.970  0.0576  0.0762 -0.0643
   8823SM   H7S11780  -3.210  -0.560  -1.979  0.6699 -0.6341 -0.4645
   8823SM   H7T11781  -3.174  -0.392  -1.948  2.4836  1.7848 -1.6354
   8823SM   C8S11782  -3.033  -0.517  -1.854  0.4430 -0.5737  0.0780
   8823SM   H8S11783  -2.975  -0.422  -1.857 -1.1751  0.4468 -0.8451
   8823SM   H8T11784  -2.964  -0.603  -1.866  0.2571 -0.7804  0.4755
   8823SM   C9S11785  -3.090  -0.515  -1.716  0.5398  0.2168  0.7526
   8823SM   H9S11786  -3.162  -0.598  -1.701 -0.0858  0.6322  0.1044
   8823SM   H9T11787  -3.147  -0.421  -1.696 -1.3042 -0.6936 -0.0571
   8823SM  C10S11788  -2.977  -0.517  -1.612  0.0673  0.2059  0.3538
   8823SM  H10S11789  -2.900  -0.440  -1.637  0.7167 -1.1014 -2.0137
   8823SM  H10T11790  -2.936  -0.620  -1.627 -1.4816 -0.5206  0.9413
   8823SM  C11S11791  -3.041  -0.507  -1.474  0.0558  0.2136  0.3563
   8823SM  H11S11792  -3.093  -0.604  -1.456 -0.0478  0.3079  0.5675
   8823SM  H11T11793  -3.104  -0.418  -1.452 -1.6447 -0.2616 -2.2431
   8823SM  C12S11794  -2.930  -0.498  -1.364 -0.3295 -0.4575 -0.3761
   8823SM  H12S11795  -2.871  -0.406  -1.383 -0.0988 -0.2454  1.2204
   8823SM  H12T11796  -2.859  -0.583  -1.366  1.1671  0.7575 -0.3224
   8823SM  C13S11797  -2.979  -0.473  -1.222  0.9033  0.0110  0.0257
   8823SM  H13S11798  -3.071  -0.530  -1.200  1.6354 -1.2510 -0.1035
   8823SM  H13T11799  -3.018  -0.369  -1.224  1.3623  0.1885  0.1465
   8823SM  C14S11800  -2.881  -0.490  -1.107 -0.4010  0.2435 -0.1356
   8823SM  H14S11801  -2.791  -0.425  -1.112  1.6266 -2.3855 -0.0183
   8823SM  H14T11802  -2.854  -0.598  -1.107 -0.9842  0.0383 -2.8780
   8823SM  C15S11803  -2.946  -0.457  -0.973  0.4946 -0.0328  0.5102
   8823SM  H15S11804  -3.047  -0.503  -0.972  0.3741  0.2252  0.4454
   8823SM  H15T11805  -2.940  -0.346  -0.967 -1.2114  0.0744  0.7405
   8823SM  C16S11806  -2.869  -0.505  -0.851 -0.1935  0.3498  0.4290
   8823SM  H16S11807  -2.761  -0.478  -0.854  0.0482 -0.5557 -1.9412
   8823SM  H16T11808  -2.873  -0.615  -0.867  1.4944  0.4650 -1.0994
   8823SM  C17S11809  -2.934  -0.471  -0.721 -0.2845  0.8482 -0.7342
   8823SM  H17S11810  -2.980  -0.371  -0.734  0.1364  1.2090  0.4157
   8823SM  H17T11811  -2.853  -0.483  -0.645  1.4571  3.0557 -2.1016
   8823SM  C18S11812  -3.057  -0.562  -0.696  0.3123 -0.0178  0.1334
   8823SM  H18S11813  -3.030  -0.669  -0.681 -1.8503 -0.9153 -1.7627
   8823SM  H18T11814  -3.128  -0.566  -0.780 -0.5959 -1.2606  0.9320
   8823SM  H18U11815  -3.107  -0.531  -0.602 -0.2752  0.1289 -0.2240
   8823SM   C1F11816  -2.851  -1.030  -1.961  0.3613 -0.2412 -0.0610
   8823SM    OF11817  -2.732  -1.050  -1.943 -0.1410  0.2439 -0.0968
   8823SM   C2F11818  -2.954  -1.096  -1.875  0.0389  0.0698 -0.0363
   8823SM   H2F11819  -2.970  -1.201  -1.909 -1.0994  0.7700 -1.8099
   8823SM   H2G11820  -3.052  -1.046  -1.889 -0.2621 -0.6020 -0.3920
   8823SM   C3F11821  -2.920  -1.078  -1.721  0.5924  0.3444  0.5250
   8823SM   H3F11822  -2.828  -1.130  -1.689  0.9904  0.9343  0.3648
   8823SM   H3G11823  -3.004  -1.132  -1.672  2.0998 -1.5270  1.1562
   8823SM   C4F11824  -2.916  -0.932  -1.676  0.0407 -0.0599 -0.2410
   8823SM   H4F11825  -2.994  -0.860  -1.709  0.0018 -0.5490 -1.2552
   8823SM   H4G11826  -2.831  -0.880  -1.724 -1.8336  1.1681 -2.4407
   8823SM   C5F11827  -2.887  -0.918  -1.526 -0.2721  0.4105  0.3984
   8823SM   H5F11828  -2.868  -0.810  -1.509 -1.9993  0.9289 -0.6815
   8823SM   H5G11829  -2.804  -0.975  -1.479 -0.5902  0.0516  0.5301
   8823SM   C6F11830  -3.005  -0.948  -1.434  0.4745 -0.1068  0.8714
   8823SM   H6F11831  -3.012  -1.055  -1.404 -0.7387  0.1298  1.5154
   8823SM   H6G11832  -3.099  -0.924  -1.488  0.2450 -2.0170  0.3302
   8823SM   C7F11833  -3.004  -0.878  -1.297  0.0375 -0.3627 -0.2296
   8823SM   H7F11834  -3.039  -0.773  -1.307 -0.3037 -0.4428  0.0759
   8823SM   H7G11835  -2.900  -0.888  -1.258  0.2536 -0.6782 -0.8712
   8823SM   C8F11836  -3.099  -0.940  -1.192 -0.4183  0.1245 -0.5601
   8823SM   H8F11837  -3.058  -1.043  -1.184  1.4759  0.8939 -0.0329
   8823SM   H8G11838  -3.197  -0.939  -1.246 -2.3639 -0.9076  2.6694
   8823SM   C9F11839  -3.102  -0.873  -1.048 -0.1666 -0.1004 -0.4015
   8823SM   H9F11840  -3.156  -0.779  -1.070 -2.0341 -1.4143 -1.7903
   8823SM   H9G11841  -2.995  -0.858  -1.020 -0.4241  0.1420  0.4773
   8823SM  C10F11842  -3.184  -0.959  -0.946 -0.2188 -0.0124  0.1360
   8823SM  H10F11843  -3.131  -1.056  -0.943 -0.1926 -0.0757 -1.4318
   8823SM  H10G11844  -3.281  -0.987  -0.992  0.7595 -2.2870 -0.6409
   8823SM  C11F11845  -3.198  -0.890  -0.814  0.1279 -0.2405 -0.0226
   8823SM  H11F11846  -3.305  -0.868  -0.796 -0.0146  0.6965 -1.7722
   8823SM  H11G11847  -3.144  -0.793  -0.823  0.7447 -0.4878  0.8092
   8823SM  C12F11848  -3.150  -0.972  -0.688 -0.3125  0.2284  0.3772
   8823SM  H12F11849  -3.138  -0.905  -0.601  3.1566  0.4599 -0.1553
   8823SM  H12G11850  -3.046  -1.002  -0.714 -0.0431  1.5720 -0.1835
   8823SM  C13F11851  -3.238  -1.091  -0.651  0.4999  0.0264 -0.4990
   8823SM  H13F11852  -3.172  -1.166  -0.601  0.7750  1.2307  1.0517
   8823SM  H13G11853  -3.280  -1.140  -0.741  1.9367  0.0084 -1.1985
   8823SM  C14F11854  -3.353  -1.056  -0.554  0.7526  0.8802 -0.1818
   8823SM  H14F11855  -3.424  -0.990  -0.608  0.5112  0.7616 -0.0108
   8823SM  H14G11856  -3.312  -1.004  -0.466  0.7123  1.6527 -0.6086
   8823SM  C15F11857  -3.435  -1.181  -0.508  0.0814  0.6133  0.5168
   8823SM  H15F11858  -3.363  -1.259  -0.473  0.4390 -0.5195 -2.4437
   8823SM  H15G11859  -3.479  -1.227  -0.599  2.3690  0.3173 -0.5304
   8823SM  C16F11860  -3.540  -1.141  -0.407  0.5353 -0.2342  0.0960
   8823SM  H16F11861  -3.616  -1.221  -0.424  0.3689  0.1412 -1.0730
   8823SM  H16G11862  -3.584  -1.051  -0.456 -1.3685 -1.0445  0.2337
   8823SM  C17F11863  -3.496  -1.116  -0.259 -0.3989  0.4729  0.7916
   8823SM  H17F11864  -3.584  -1.088  -0.197 -0.6192  0.0166  0.6911
   8823SM  H17G11865  -3.429  -1.028  -0.264 -1.6912  1.4248 -0.3882
   8823SM  C18F11866  -3.441  -1.247  -0.192 -0.3659 -0.2615  0.7001
   8823SM  H18F11867  -3.348  -1.278  -0.243  0.8417  0.9917  2.0454
   8823SM  H18G11868  -3.517  -1.328  -0.199 -2.3796  1.5637  0.1858
   8823SM  C19F11869  -3.427  -1.220  -0.042 -0.1745  0.5836  0.0873
   8823SM  H19F11870  -3.416  -1.318   0.010  2.5695 -0.0514 -1.5086
   8823SM  H19G11871  -3.522  -1.170  -0.012  0.7303  2.4932 -0.1065
   8823SM  C20F11872  -3.306  -1.127  -0.014  0.5449  0.2088 -0.1702
   8823SM  H20F11873  -3.309  -1.035  -0.077 -1.6420  0.7347  0.6246
   8823SM  H20G11874  -3.214  -1.177  -0.051  2.1419  1.4088  1.9496
   8823SM  C21F11875  -3.285  -1.086   0.134 -0.1431 -0.2500 -0.0208
   8823SM  H21F11876  -3.376  -1.045   0.181  0.0910 -0.0755  0.2869
   8823SM  H21G11877  -3.209  -1.005   0.139 -0.1995 -0.1427 -0.8616
   8823SM  C22F11878  -3.239  -1.207   0.226  0.1601  0.0981 -0.3729
   8823SM  H22F11879  -3.145  -1.247   0.182 -0.4548 -2.6754  0.6872
   8823SM  H22G11880  -3.315  -1.285   0.205  1.0442 -0.3956 -1.8788
   8823SM  C23F11881  -3.249  -1.177   0.380 -0.0178 -0.2074  1.3323
   8823SM  H23F11882  -3.250  -1.268   0.443 -1.1553 -0.7383  0.5915
   8823SM  H23G11883  -3.347  -1.128   0.400 -0.5175 -0.7019  0.2036
   8823SM  H23H11884  -3.170  -1.103   0.404  2.0192 -1.8840  0.1550
   8923SM     N11885   1.159  -1.227  -2.737 -0.7063 -0.4226  0.1934
   8923SM   C1511886   1.137  -1.356  -2.669  0.2519  0.1020  0.2638
   8923SM  H15A11887   1.082  -1.348  -2.577 -0.9451  1.0385 -0.5026
   8923SM  H15B11888   1.228  -1.404  -2.635 -0.0353  0.6982  1.9362
   8923SM  H15C11889   1.094  -1.431  -2.734  0.7221 -0.7060  0.8707
   8923SM   C1411890   1.263  -1.242  -2.845 -0.0764  0.0554 -0.2797
   8923SM  H14A11891   1.361  -1.260  -2.804  0.6506  3.0476 -0.5019
   8923SM  H14B11892   1.264  -1.150  -2.903 -2.4439  0.0380 -0.4525
   8923SM  H14C11893   1.243  -1.322  -2.915  2.4305  0.0114 -1.0659
   8923SM   C1311894   1.027  -1.185  -2.794 -0.4530  0.1689  0.3401
   8923SM  H13A11895   0.942  -1.187  -2.727 -1.6060  0.6657 -1.0670
   8923SM  H13B11896   1.011  -1.242  -2.884  0.3223 -0.4910  0.6065
   8923SM  H13C11897   1.051  -1.085  -2.825  0.4640 -0.4794 -1.1420
   8923SM   C1211898   1.209  -1.127  -2.640 -0.4414 -0.0422  0.0991
   8923SM  H12A11899   1.278  -1.179  -2.577  1.5999  1.5155 -0.7359
   8923SM  H12B11900   1.133  -1.081  -2.578  0.7201  1.9567  0.1196
   8923SM   C1111901   1.293  -1.008  -2.692  0.1362  0.1631 -1.0314
   8923SM  H11A11902   1.382  -1.060  -2.734 -1.2261 -2.8946 -0.3970
   8923SM  H11B11903   1.331  -0.950  -2.605  0.0723  1.6405 -1.9547
   8923SM     P11904   1.130  -0.798  -2.741  0.1732 -0.0252  0.0641
   8923SM   O1311905   1.142  -0.697  -2.853 -0.5592 -0.4420  0.2629
   8923SM   O1411906   0.998  -0.829  -2.679  0.3760  0.3548 -0.0236
   8923SM   O1111907   1.211  -0.747  -2.618  0.3510 -0.3696  0.2048
   8923SM   O1211908   1.205  -0.933  -2.776 -0.2766 -0.1430 -0.5106
   8923SM   C1S11909   1.213  -0.609  -2.579 -0.9310  0.2604  0.6675
   8923SM   H1S11910   1.148  -0.543  -2.642 -0.8156 -1.0626 -0.8965
   8923SM   H1T11911   1.316  -0.568  -2.582 -0.5959 -0.6010 -0.7633
   8923SM    NF11912   1.170  -0.464  -2.395 -0.1243  0.2138 -0.5656
   8923SM   HNF11913   1.263  -0.437  -2.371  1.2857 -2.2140 -2.6332
   8923SM   C2S11914   1.166  -0.599  -2.433 -0.7684  0.0356 -0.1689
   8923SM   H2S11915   1.058  -0.624  -2.440 -1.1328  1.6018 -0.7190
   8923SM   C3S11916   1.247  -0.683  -2.325 -0.5048 -0.7154  0.3293
   8923SM   H3S11917   1.341  -0.630  -2.298 -1.0474  1.0179 -0.9530
   8923SM    O311918   1.297  -0.806  -2.369 -0.3137  0.3866  0.4875
   8923SM   HO311919   1.315  -0.798  -2.463  0.6497 -1.7355  0.4194
   8923SM   C4S11920   1.167  -0.692  -2.195  0.2900 -0.4933  0.0072
   8923SM   H4S11921   1.176  -0.592  -2.150  0.5120  0.4753 -2.0859
   8923SM   C5S11922   1.072  -0.782  -2.144 -0.4859  0.6403  0.1262
   8923SM   H5S11923   1.053  -0.871  -2.205  2.0532  0.7480 -0.9222
   8923SM   C6S11924   1.015  -0.770  -1.999  0.3418  0.0266  0.3029
   8923SM   H6S11925   0.967  -0.869  -1.979 -0.9583  0.6442  0.3614
   8923SM   H6T11926   0.930  -0.698  -2.004  0.2300 -0.1735 -2.8422
   8923SM   C7S11927   1.115  -0.729  -1.893  0.5277  0.1473 -0.2811
   8923SM   H7S11928   1.125  -0.619  -1.887  0.0550  0.1541  0.4246
   8923SM   H7T11929   1.214  -0.766  -1.927 -0.5789 -1.0112 -2.4520
   8923SM   C8S11930   1.076  -0.796  -1.758 -0.1542  0.1496 -0.8174
   8923SM   H8S11931   1.094  -0.905  -1.765 -0.8751 -0.0183 -0.2095
   8923SM   H8T11932   0.973  -0.773  -1.722 -0.1373 -1.1285  0.1027
   8923SM   C9S11933   1.164  -0.747  -1.640 -0.2747 -0.5399  0.0271
   8923SM   H9S11934   1.140  -0.641  -1.619  0.7473 -0.4230  0.6581
   8923SM   H9T11935   1.273  -0.755  -1.660 -0.0537 -1.9067  1.5738
   8923SM  C10S11936   1.157  -0.844  -1.520 -0.3160  0.3027 -0.1568
   8923SM  H10S11937   1.243  -0.834  -1.451 -1.4737 -2.9598  1.9934
   8923SM  H10T11938   1.172  -0.947  -1.557 -0.5712  0.3141 -0.2991
   8923SM  C11S11939   1.020  -0.836  -1.443 -0.0404  0.0083 -0.1430
   8923SM  H11S11940   0.947  -0.874  -1.519  1.7132 -0.8843 -1.4465
   8923SM  H11T11941   0.999  -0.736  -1.400 -0.3769  0.5304 -1.4797
   8923SM  C12S11942   1.010  -0.932  -1.317  0.3216 -0.6542  0.0400
   8923SM  H12S11943   0.994  -1.035  -1.355 -1.7680  0.0747 -1.2197
   8923SM  H12T11944   0.915  -0.904  -1.266 -0.1577 -1.1552 -0.5689
   8923SM  C13S11945   1.134  -0.914  -1.232  0.0769  0.2440 -0.6396
   8923SM  H13S11946   1.146  -0.807  -1.204  2.3946  0.4830 -2.3185
   8923SM  H13T11947   1.222  -0.959  -1.282  0.0555 -1.1099  0.4853
   8923SM  C14S11948   1.125  -0.992  -1.095 -0.3937 -0.3556  0.3519
   8923SM  H14S11949   1.226  -0.993  -1.049 -1.5236  0.2350  3.0507
   8923SM  H14T11950   1.089  -1.096  -1.115  0.3779 -0.5516 -0.0639
   8923SM  C15S11951   1.017  -0.929  -1.009 -0.1752 -0.4733  0.1883
   8923SM  H15S11952   0.915  -0.968  -1.025 -1.6221  0.8816  4.7164
   8923SM  H15T11953   1.012  -0.820  -1.029 -1.3868 -0.8565 -1.8603
   8923SM  C16S11954   1.043  -0.964  -0.859  0.2516 -0.2660  0.6233
   8923SM  H16S11955   1.144  -0.931  -0.830  0.2501  0.9198 -0.6259
   8923SM  H16T11956   1.033  -1.075  -0.856 -1.3940 -0.1964 -0.6285
   8923SM  C17S11957   0.953  -0.895  -0.768  0.0548 -0.1067  0.8929
   8923SM  H17S11958   0.847  -0.900  -0.798 -0.0648  3.2431  0.3100
   8923SM  H17T11959   0.978  -0.787  -0.759  1.6870 -0.4276  0.5378
   8923SM  C18S11960   0.967  -0.955  -0.630 -0.1874  0.5109  0.2462
   8923SM  H18S11961   1.075  -0.954  -0.605  0.4656 -1.9553 -1.9639
   8923SM  H18T11962   0.928  -1.059  -0.623  0.3891  0.3901  2.5115
   8923SM  H18U11963   0.910  -0.893  -0.558 -1.9996  0.4680 -1.0933
   8923SM   C1F11964   1.076  -0.372  -2.428 -0.4730 -0.2160 -0.0607
   8923SM    OF11965   0.967  -0.400  -2.484  0.2781 -0.5551  0.0255
   8923SM   C2F11966   1.114  -0.229  -2.399 -0.5258  0.0475  0.4488
   8923SM   H2F11967   1.116  -0.169  -2.492  1.0792  0.3754  0.6670
   8923SM   H2G11968   1.221  -0.224  -2.371 -0.7962 -1.5961  1.9587
   8923SM   C3F11969   1.018  -0.162  -2.287  0.5364  0.0354 -0.2839
   8923SM   H3F11970   0.916  -0.151  -2.328 -0.4713 -0.3251  1.9814
   8923SM   H3G11971   1.059  -0.059  -2.272  0.9065  0.1922 -2.1024
   8923SM   C4F11972   1.018  -0.229  -2.151 -0.1078  0.2997  0.4447
   8923SM   H4F11973   0.977  -0.328  -2.183 -0.5104  1.0972 -1.6799
   8923SM   H4G11974   0.950  -0.171  -2.085 -1.9671  0.4746 -1.4966
   8923SM   C5F11975   1.159  -0.242  -2.100 -0.0168  0.0984 -0.4027
   8923SM   H5F11976   1.197  -0.138  -2.101  1.5290 -0.4083 -2.1422
   8923SM   H5G11977   1.218  -0.304  -2.172 -0.4882 -3.7460  2.2265
   8923SM   C6F11978   1.163  -0.325  -1.969 -0.2422 -0.2673 -0.3868
   8923SM   H6F11979   1.263  -0.345  -1.924 -0.1641 -0.6419 -0.7230
   8923SM   H6G11980   1.108  -0.417  -1.998 -2.8601  1.6380 -1.8980
   8923SM   C7F11981   1.092  -0.259  -1.845 -0.0887 -1.2746 -0.1803
   8923SM   H7F11982   0.982  -0.255  -1.862 -0.1864  0.2561  0.6568
   8923SM   H7G11983   1.129  -0.157  -1.825 -1.7182 -0.3403 -1.7164
   8923SM   C8F11984   1.119  -0.347  -1.726  0.8391  0.1863  0.0162
   8923SM   H8F11985   1.228  -0.358  -1.709  1.4394 -0.1824 -3.3613
   8923SM   H8G11986   1.081  -0.448  -1.752 -0.1467  0.3688  0.6668
   8923SM   C9F11987   1.035  -0.308  -1.602  0.1017  0.0262 -0.9196
   8923SM   H9F11988   0.929  -0.338  -1.617 -0.5635  0.5306  2.0767
   8923SM   H9G11989   1.057  -0.202  -1.581  3.0700 -0.3844 -1.5809
   8923SM  C10F11990   1.080  -0.392  -1.485  0.6741 -0.2435 -0.9318
   8923SM  H10F11991   1.189  -0.392  -1.463  0.8215  1.2185 -1.5460
   8923SM  H10G11992   1.056  -0.500  -1.495  0.7377 -0.2127 -1.4621
   8923SM  C11F11993   1.005  -0.344  -1.358 -0.0073 -0.2791  0.3088
   8923SM  H11F11994   0.900  -0.375  -1.378 -1.3052  3.4892  0.4014
   8923SM  H11G11995   1.008  -0.233  -1.357 -0.8727 -0.2393 -0.4893
   8923SM  C12F11996   1.066  -0.415  -1.235 -0.0199 -0.3595 -0.1670
   8923SM  H12F11997   1.165  -0.367  -1.224 -0.2942  0.1201  0.2420
   8923SM  H12G11998   1.081  -0.524  -1.247  1.5511 -0.3443  1.2469
   8923SM  C13F11999   0.988  -0.394  -1.106 -0.2233  0.0966 -0.2073
   8923SM  H13F12000   0.889  -0.444  -1.100 -0.4468  0.6011  0.3703
   8923SM  H13G12001   0.969  -0.285  -1.101  0.2266  0.3487 -2.7647
   8923SM  C14F12002   1.060  -0.432  -0.975 -0.5475  0.6892  0.4534
   8923SM  H14F12003   1.153  -0.373  -0.982 -0.6249  0.7253 -0.4497
   8923SM  H14G12004   1.086  -0.540  -0.973  1.0697  1.0408 -0.4557
   8923SM  C15F12005   0.977  -0.390  -0.857  0.0106 -0.2604 -0.4753
   8923SM  H15F12006   0.883  -0.450  -0.864 -1.7195  2.0960  1.0067
   8923SM  H15G12007   0.955  -0.281  -0.863  0.3483 -0.1723 -0.0830
   8923SM  C16F12008   1.050  -0.414  -0.723  0.0164 -0.0784  0.1409
   8923SM  H16F12009   1.143  -0.355  -0.717  0.1636 -0.4227  1.6155
   8923SM  H16G12010   1.085  -0.518  -0.735  0.4243  0.2372 -1.6846
   8923SM  C17F12011   0.975  -0.387  -0.601  0.3359  0.1779 -0.9587
   8923SM  H17F12012   0.886  -0.453  -0.593 -0.3459  1.2493  1.0692
   8923SM  H17G12013   0.930  -0.287  -0.615  1.9574  1.2986  1.2205
   8923SM  C18F12014   1.058  -0.395  -0.469  0.7386  0.1489  0.4640
   8923SM  H18F12015   1.157  -0.361  -0.505  0.7333  0.2007  0.4972
   8923SM  H18G12016   1.061  -0.502  -0.440 -0.6215 -0.1760 -0.5023
   8923SM  C19F12017   1.015  -0.304  -0.355  1.3285  0.7519  0.6038
   8923SM  H19F12018   1.030  -0.197  -0.381  0.0502  1.1226  1.2940
   8923SM  H19G12019   1.074  -0.330  -0.264  0.0962 -0.4523  1.0833
   8923SM  C20F12020   0.871  -0.322  -0.313  0.3871 -0.5870  0.3090
   8923SM  H20F12021   0.848  -0.426  -0.281 -0.8334 -0.9399 -1.5250
   8923SM  H20G12022   0.811  -0.288  -0.401  1.5443  0.7807  0.0147
   8923SM  C21F12023   0.833  -0.219  -0.202 -0.7773 -0.5080  0.0315
   8923SM  H21F12024   0.725  -0.228  -0.179 -1.9925  1.6649 -3.8997
   8923SM  H21G12025   0.842  -0.121  -0.253 -2.8710 -1.8153 -3.1462
   8923SM  C22F12026   0.913  -0.225  -0.072  0.3990  0.5027 -0.0468
   8923SM  H22F12027   1.022  -0.208  -0.085  1.0775 -3.1721 -0.1236
   8923SM  H22G12028   0.915  -0.330  -0.035  1.3498 -0.1208 -1.7815
   8923SM  C23F12029   0.864  -0.131   0.045  0.8238 -0.2180  1.0602
   8923SM  H23F12030   0.760  -0.160   0.073  0.1682  1.0256  0.0363
   8923SM  H23G12031   0.868  -0.024   0.016  0.6422 -0.7431 -1.0471
   8923SM  H23H12032   0.935  -0.138   0.130  0.2004 -1.0640  1.5191
   9023SM     N12033   2.321  -0.545  -2.817  0.0558 -0.1668  0.3908
   9023SM   C1512034   2.251  -0.607  -2.937 -0.5570 -0.1237  0.2961
   9023SM  H15A12035   2.158  -0.558  -2.962 -0.5904 -0.6894 -0.7148
   9023SM  H15B12036   2.235  -0.708  -2.904  1.0522 -0.7017 -0.5995
   9023SM  H15C12037   2.311  -0.606  -3.027 -3.6072  1.2353 -1.9067
   9023SM   C1412038   2.442  -0.627  -2.795 -0.1632  0.0950  1.2287
   9023SM  H14A12039   2.416  -0.732  -2.788 -0.7819  0.0871 -0.5108
   9023SM  H14B12040   2.514  -0.598  -2.720  2.9347 -0.6481 -1.2131
   9023SM  H14C12041   2.501  -0.622  -2.886 -0.7448  0.5954  0.8774
   9023SM   C1312042   2.366  -0.402  -2.845 -0.5816 -0.0517  0.4448
   9023SM  H13A12043   2.430  -0.403  -2.932 -1.2590  3.2250 -0.2414
   9023SM  H13B12044   2.421  -0.354  -2.765 -0.8361 -0.1747  0.6931
   9023SM  H13C12045   2.279  -0.351  -2.883 -0.6323 -0.3120  0.2096
   9023SM   C1212046   2.232  -0.549  -2.687 -1.1352  0.2815  0.4646
   9023SM  H12A12047   2.144  -0.489  -2.701 -1.1367 -0.2714 -2.4836
   9023SM  H12B12048   2.287  -0.515  -2.600 -0.1353 -0.0512 -0.0123
   9023SM   C1112049   2.184  -0.689  -2.647 -1.3040  0.4174 -0.2854
   9023SM  H11A12050   2.148  -0.751  -2.732 -0.9226 -2.5467  1.5778
   9023SM  H11B12051   2.089  -0.679  -2.590 -1.2996 -1.0895  0.0211
   9023SM     P12052   2.327  -0.718  -2.438  0.3306 -0.0862  0.3388
   9023SM   O1312053   2.443  -0.797  -2.393 -0.0507  0.5500  0.6391
   9023SM   O1412054   2.344  -0.573  -2.438 -0.3080  0.2473 -0.6803
   9023SM   O1112055   2.221  -0.748  -2.339 -0.0978  0.2744  0.0187
   9023SM   O1212056   2.285  -0.765  -2.581  0.5537 -0.2514 -0.3311
   9023SM   C1S12057   2.175  -0.875  -2.306 -0.1153  0.1951  0.4456
   9023SM   H1S12058   2.248  -0.958  -2.299  0.2075  0.4142 -0.3208
   9023SM   H1T12059   2.094  -0.905  -2.376  0.5208  1.6718 -0.9892
   9023SM    NF12060   2.111  -1.018  -2.094  0.1701 -0.2875  0.0723
   9023SM   HNF12061   2.015  -1.047  -2.087  0.4625 -0.8046  3.5246
   9023SM   C2S12062   2.120  -0.883  -2.154 -0.0931  0.1522 -0.4158
   9023SM   H2S12063   2.192  -0.828  -2.091 -0.2540  0.7434 -0.7377
   9023SM   C3S12064   1.993  -0.798  -2.135  0.1535 -0.0279  0.0432
   9023SM   H3S12065   1.917  -0.855  -2.192  1.6938 -1.8373 -0.2739
   9023SM    O312066   1.991  -0.671  -2.201  0.1226 -0.2004 -0.3920
   9023SM   HO312067   2.055  -0.670  -2.272 -0.5849  0.8789 -1.0422
   9023SM   C4S12068   1.955  -0.776  -1.984 -0.1604 -0.7607  0.1487
   9023SM   H4S12069   2.018  -0.699  -1.936 -0.3755  0.5747 -1.6254
   9023SM   C5S12070   1.866  -0.840  -1.909  0.0564 -0.6533  0.0378
   9023SM   H5S12071   1.814  -0.926  -1.953  3.0269 -1.8925 -1.3576
   9023SM   C6S12072   1.833  -0.804  -1.773  0.6448  0.1641 -1.0058
   9023SM   H6S12073   1.724  -0.820  -1.758  0.8986  0.1830  1.1771
   9023SM   H6T12074   1.853  -0.694  -1.767 -1.0499  0.4391  0.7452
   9023SM   C7S12075   1.905  -0.863  -1.645 -0.2920 -0.0391 -0.4843
   9023SM   H7S12076   2.013  -0.875  -1.667  0.0650 -2.1573  1.9271
   9023SM   H7T12077   1.873  -0.969  -1.632  0.5538 -0.3296 -0.6925
   9023SM   C8S12078   1.876  -0.793  -1.506 -0.5465  0.1094  0.1289
   9023SM   H8S12079   1.773  -0.753  -1.503 -0.1921  1.0483  0.0617
   9023SM   H8T12080   1.934  -0.701  -1.486 -0.4590 -0.3053  2.0019
   9023SM   C9S12081   1.892  -0.889  -1.387  0.9716 -0.1208  0.5193
   9023SM   H9S12082   1.997  -0.925  -1.391  0.8235 -0.4771 -0.7034
   9023SM   H9T12083   1.828  -0.978  -1.409  2.4391 -1.4013  1.2384
   9023SM  C10S12084   1.850  -0.843  -1.251  0.9104 -0.6597  0.2944
   9023SM  H10S12085   1.739  -0.837  -1.251  0.8910 -0.6205 -0.8405
   9023SM  H10T12086   1.891  -0.740  -1.239  0.5459 -0.4332 -0.3130
   9023SM  C11S12087   1.907  -0.934  -1.142  0.4863  0.3804  0.5392
   9023SM  H11S12088   2.017  -0.946  -1.136  0.4915  0.4931  0.6751
   9023SM  H11T12089   1.858  -1.033  -1.157  0.7735  0.6220 -2.5563
   9023SM  C12S12090   1.868  -0.868  -1.009  0.0321  0.5420  0.0330
   9023SM  H12S12091   1.758  -0.854  -1.005  0.2033  1.9526  0.0785
   9023SM  H12T12092   1.900  -0.762  -1.006 -0.2669  0.6486 -0.4770
   9023SM  C13S12093   1.900  -0.946  -0.885 -0.0473 -0.8884  0.3556
   9023SM  H13S12094   2.008  -0.934  -0.860  0.4806  0.2099 -2.1233
   9023SM  H13T12095   1.888  -1.056  -0.899 -1.6679 -0.6987  0.0713
   9023SM  C14S12096   1.807  -0.891  -0.760 -0.6402 -0.4838 -0.1985
   9023SM  H14S12097   1.707  -0.933  -0.784 -0.9138  0.7224 -1.2986
   9023SM  H14T12098   1.811  -0.780  -0.764  0.8160 -0.5190 -0.5656
   9023SM  C15S12099   1.858  -0.928  -0.615 -0.6921  0.7352  0.6209
   9023SM  H15S12100   1.968  -0.918  -0.616 -0.6290  0.6824  2.6752
   9023SM  H15T12101   1.844  -1.038  -0.609 -1.9934  0.7158 -1.7404
   9023SM  C16S12102   1.790  -0.834  -0.513  0.2351  0.1021 -0.2432
   9023SM  H16S12103   1.684  -0.865  -0.496 -0.2865  0.1937 -2.8662
   9023SM  H16T12104   1.777  -0.735  -0.561 -3.5449 -0.3161 -0.4389
   9023SM  C17S12105   1.870  -0.818  -0.386 -0.1493 -0.3750 -0.1725
   9023SM  H17S12106   1.977  -0.839  -0.408 -0.3720 -0.2172 -1.5079
   9023SM  H17T12107   1.840  -0.887  -0.304  2.3698  0.1595  1.3090
   9023SM  C18S12108   1.861  -0.670  -0.330 -1.1820 -0.1786  0.0758
   9023SM  H18S12109   1.761  -0.641  -0.293 -2.9163 -2.1977 -2.6426
   9023SM  H18T12110   1.892  -0.596  -0.407 -1.1035 -0.4613 -0.1682
   9023SM  H18U12111   1.934  -0.663  -0.246 -0.6526  1.2002 -0.4580
   9023SM   C1F12112   2.214  -1.091  -2.078  0.0684 -0.4093 -0.5919
   9023SM    OF12113   2.323  -1.045  -2.104  0.4797  0.1457  0.4052
   9023SM   C2F12114   2.196  -1.227  -2.019  0.2623  0.9257 -0.1745
   9023SM   H2F12115   2.232  -1.298  -2.097 -2.3598  0.5149 -1.1260
   9023SM   H2G12116   2.087  -1.245  -2.009  0.4919 -0.2297  0.3861
   9023SM   C3F12117   2.275  -1.256  -1.886 -0.0174 -0.7019 -0.5232
   9023SM   H3F12118   2.383  -1.232  -1.903 -0.1512  0.3264  0.0209
   9023SM   H3G12119   2.258  -1.362  -1.858 -0.2893 -0.1428  1.5269
   9023SM   C4F12120   2.232  -1.179  -1.760 -0.7550 -0.6533 -0.3850
   9023SM   H4F12121   2.127  -1.169  -1.728 -0.2466  1.3867  0.8465
   9023SM   H4G12122   2.262  -1.074  -1.779  0.3382 -0.2755  2.7825
   9023SM   C5F12123   2.317  -1.214  -1.627 -0.4085  0.0384 -0.2956
   9023SM   H5F12124   2.424  -1.190  -1.644  0.0856 -1.4454  0.5309
   9023SM   H5G12125   2.308  -1.325  -1.625  1.0269 -0.0973  1.5696
   9023SM   C6F12126   2.260  -1.133  -1.509 -0.0454  0.1265 -0.3765
   9023SM   H6F12127   2.157  -1.162  -1.480  1.1241 -1.4348  2.6183
   9023SM   H6G12128   2.248  -1.027  -1.540  0.4782  2.2466  5.4642
   9023SM   C7F12129   2.350  -1.137  -1.391  0.0035 -0.4938 -0.5470
   9023SM   H7F12130   2.447  -1.086  -1.408  0.7299 -1.4715  0.4651
   9023SM   H7G12131   2.374  -1.240  -1.356  1.8646  0.4828  1.3520
   9023SM   C8F12132   2.271  -1.080  -1.266  0.2992  0.3993  0.2907
   9023SM   H8F12133   2.166  -1.118  -1.266  0.0005  1.1922  0.6592
   9023SM   H8G12134   2.270  -0.969  -1.263 -0.7655  0.4504 -0.7672
   9023SM   C9F12135   2.322  -1.132  -1.134 -0.6355  0.3274  0.5765
   9023SM   H9F12136   2.430  -1.104  -1.133 -1.1907  2.6390  1.9480
   9023SM   H9G12137   2.321  -1.243  -1.129  0.5084  0.1524 -1.7341
   9023SM  C10F12138   2.257  -1.066  -1.009 -0.1400  0.4092  0.5900
   9023SM  H10F12139   2.148  -1.086  -1.001 -0.5336  1.8672 -0.5535
   9023SM  H10G12140   2.274  -0.957  -1.023  1.3262  0.0542 -0.6784
   9023SM  C11F12141   2.321  -1.124  -0.883  0.2381 -0.9584 -0.3485
   9023SM  H11F12142   2.428  -1.095  -0.875 -0.3223  1.3968 -0.8365
   9023SM  H11G12143   2.329  -1.235  -0.887 -1.2139 -1.1146  0.3057
   9023SM  C12F12144   2.243  -1.069  -0.755 -0.1115  0.3802  0.5886
   9023SM  H12F12145   2.141  -1.112  -0.762  0.1758 -0.2205 -0.0220
   9023SM  H12G12146   2.234  -0.959  -0.768 -0.4273  0.1817 -1.1531
   9023SM  C13F12147   2.320  -1.109  -0.631 -0.0585 -0.4321  0.9104
   9023SM  H13F12148   2.425  -1.073  -0.620  0.5973 -1.5054 -1.3342
   9023SM  H13G12149   2.336  -1.219  -0.625  3.5889 -0.1931 -1.1345
   9023SM  C14F12150   2.240  -1.060  -0.513  0.1402  0.5830 -0.7528
   9023SM  H14F12151   2.144  -1.116  -0.511  0.8846 -0.8534 -2.4491
   9023SM  H14G12152   2.212  -0.952  -0.523 -2.7432  0.6659  4.4874
   9023SM  C15F12153   2.323  -1.058  -0.377  0.2051 -0.3913  0.6113
   9023SM  H15F12154   2.422  -1.009  -0.380  0.4057 -0.6459  2.0192
   9023SM  H15G12155   2.363  -1.157  -0.346 -0.3892 -0.5617  0.8556
   9023SM  C16F12156   2.250  -0.974  -0.273  0.5701  0.3097 -0.6037
   9023SM  H16F12157   2.215  -0.874  -0.306  0.1319  0.3020 -0.1779
   9023SM  H16G12158   2.331  -0.968  -0.198  1.3345 -2.1904 -1.1223
   9023SM  C17F12159   2.134  -1.058  -0.213 -0.7460 -0.3374  0.0790
   9023SM  H17F12160   2.167  -1.162  -0.190  0.0139 -0.4459 -1.4067
   9023SM  H17G12161   2.064  -1.074  -0.297 -1.5923  0.0544  0.6977
   9023SM  C18F12162   2.080  -0.987  -0.087  0.2260  0.1001 -0.8389
   9023SM  H18F12163   2.049  -0.881  -0.098 -1.1228  0.1377  2.3152
   9023SM  H18G12164   2.179  -0.975  -0.040  0.3674 -0.5304 -0.9580
   9023SM  C19F12165   1.980  -1.065   0.002  0.1154 -0.3441  0.0399
   9023SM  H19F12166   2.017  -1.169   0.017  2.2811  0.6362  2.2478
   9023SM  H19G12167   1.879  -1.057  -0.044 -0.8894  0.4985  2.2456
   9023SM  C20F12168   1.961  -1.001   0.144 -0.2921  0.1651  0.1888
   9023SM  H20F12169   1.906  -0.906   0.128 -0.2731  0.1846  0.2429
   9023SM  H20G12170   2.061  -0.972   0.180 -1.0338  3.4301 -0.0820
   9023SM  C21F12171   1.874  -1.074   0.241 -0.5029  0.2946 -0.6133
   9023SM  H21F12172   1.808  -1.141   0.181 -0.7443 -1.2135  1.2471
   9023SM  H21G12173   1.800  -1.011   0.295  0.3729 -0.0471  1.0401
   9023SM  C22F12174   1.960  -1.148   0.347  0.4890 -0.2515  0.2033
   9023SM  H22F12175   2.006  -1.077   0.419 -1.9968  1.1924  0.4792
   9023SM  H22G12176   2.033  -1.206   0.286  0.0859 -0.5779  0.0276
   9023SM  C23F12177   1.880  -1.246   0.437  0.2199  1.1928 -0.1972
   9023SM  H23F12178   1.806  -1.307   0.380 -0.6405  0.0937  1.9953
   9023SM  H23G12179   1.815  -1.199   0.513  0.6315  0.4997  0.5995
   9023SM  H23H12180   1.955  -1.317   0.479 -1.9462 -2.0545 -1.4246
   9123SM     N12181   0.432   0.744  -3.108 -0.3862 -0.3782 -0.5108
   9123SM   C1512182   0.400   0.875  -3.165  0.1228  0.2308  0.1688
   9123SM  H15A12183   0.299   0.900  -3.135  0.4055  1.8236 -0.1079
   9123SM  H15B12184   0.406   0.864  -3.272  2.4285 -1.4643  0.4057
   9123SM  H15C12185   0.460   0.954  -3.123  0.9807 -0.7891  0.8962
   9123SM   C1412186   0.330   0.645  -3.156 -0.5257  0.0615  1.0068
   9123SM  H14A12187   0.230   0.672  -3.124 -0.3776  3.2870 -0.7965
   9123SM  H14B12188   0.355   0.543  -3.132 -2.0772 -1.1884 -2.0645
   9123SM  H14C12189   0.328   0.645  -3.264  1.1619  2.4388  0.8843
   9123SM   C1312190   0.561   0.688  -3.152  0.0849 -0.1225 -0.3421
   9123SM  H13A12191   0.633   0.755  -3.108 -1.3332  0.1379  1.6693
   9123SM  H13B12192   0.566   0.680  -3.260 -2.8910 -0.7872 -0.5066
   9123SM  H13C12193   0.575   0.591  -3.107 -0.1363  0.1071  0.2221
   9123SM   C1212194   0.423   0.745  -2.958  0.0016  1.2440  0.1108
   9123SM  H12A12195   0.434   0.643  -2.923  3.2592  1.3028 -0.4258
   9123SM  H12B12196   0.319   0.766  -2.936  0.0183  0.0031  1.5384
   9123SM   C1112197   0.518   0.839  -2.876  0.3626 -0.1357  1.1067
   9123SM  H11A12198   0.623   0.812  -2.900  0.8588 -1.3573  4.2047
   9123SM  H11B12199   0.512   0.817  -2.768  0.9105 -2.2849  0.7505
   9123SM     P12200   0.363   1.032  -2.808 -0.1095 -0.1716 -0.4340
   9123SM   O1312201   0.351   1.179  -2.817  0.3335 -0.1315  0.0009
   9123SM   O1412202   0.235   0.957  -2.832  0.1064  0.2635  0.0060
   9123SM   O1112203   0.413   1.010  -2.654 -0.2612  0.4344  0.2739
   9123SM   O1212204   0.485   0.975  -2.905 -0.0781  0.1137  0.0952
   9123SM   C1S12205   0.539   1.035  -2.598 -0.4080 -0.5188  0.4359
   9123SM   H1S12206   0.535   1.146  -2.599 -0.6485 -0.4934 -2.0968
   9123SM   H1T12207   0.628   0.991  -2.649  0.0083  2.9754 -2.1987
   9123SM    NF12208   0.657   1.020  -2.366 -0.6127  0.1650 -0.1635
   9123SM   HNF12209   0.703   0.946  -2.319 -1.9668 -0.2732  0.5111
   9123SM   C2S12210   0.539   1.000  -2.445  0.1245  0.5260  0.6433
   9123SM   H2S12211   0.456   1.058  -2.399 -1.2322  1.9004 -3.1519
   9123SM   C3S12212   0.481   0.856  -2.418  1.2493 -0.0573 -0.1189
   9123SM   H3S12213   0.544   0.784  -2.475 -1.2245 -0.1495 -3.0140
   9123SM    O312214   0.357   0.825  -2.481  0.3724  0.1855  0.9220
   9123SM   HO312215   0.344   0.897  -2.543 -0.4061 -2.1112 -1.7471
   9123SM   C4S12216   0.466   0.812  -2.275 -0.0446  0.2326 -0.2717
   9123SM   H4S12217   0.535   0.732  -2.244  1.0917  1.1623 -0.3203
   9123SM   C5S12218   0.375   0.854  -2.190  0.8325  0.5366 -0.9166
   9123SM   H5S12219   0.305   0.937  -2.209 -0.2687  0.5642  2.5166
   9123SM   C6S12220   0.375   0.798  -2.048 -0.0995  0.6972 -1.0004
   9123SM   H6S12221   0.413   0.694  -2.050 -1.4117  0.1903 -0.9453
   9123SM   H6T12222   0.277   0.808  -1.995  1.4160  1.4496  1.8859
   9123SM   C7S12223   0.472   0.869  -1.950 -0.5100 -0.2958 -0.5026
   9123SM   H7S12224   0.441   0.976  -1.948 -1.2511 -0.5027  1.4262
   9123SM   H7T12225   0.576   0.862  -1.988  0.5774 -0.6931  2.3358
   9123SM   C8S12226   0.483   0.820  -1.802  0.4502  0.0467 -0.5210
   9123SM   H8S12227   0.573   0.866  -1.757  0.5658  0.3702 -1.0765
   9123SM   H8T12228   0.495   0.709  -1.799 -2.3854 -0.3386 -0.8866
   9123SM   C9S12229   0.359   0.846  -1.720 -0.4435  1.0455 -0.2579
   9123SM   H9S12230   0.278   0.784  -1.764  0.6303 -1.9022  1.5922
   9123SM   H9T12231   0.315   0.947  -1.735  1.7599  2.0859 -0.0838
   9123SM  C10S12232   0.362   0.816  -1.572 -0.4778 -0.6423 -0.0290
   9123SM  H10S12233   0.379   0.707  -1.563  1.4589 -0.2830  1.2404
   9123SM  H10T12234   0.257   0.837  -1.542 -1.3870 -0.6042 -2.9481
   9123SM  C11S12235   0.458   0.877  -1.470  0.8034  1.4253 -0.4767
   9123SM  H11S12236   0.450   0.988  -1.468  1.2057  1.4495 -0.2082
   9123SM  H11T12237   0.560   0.849  -1.502  0.9161  0.1339  0.9206
   9123SM  C12S12238   0.447   0.823  -1.328  0.8524 -0.8515 -0.7054
   9123SM  H12S12239   0.529   0.869  -1.268  0.8350 -0.5221 -0.9364
   9123SM  H12T12240   0.464   0.714  -1.316  0.7755 -0.7310  0.6730
   9123SM  C13S12241   0.310   0.862  -1.266  0.2065  0.2820 -0.5885
   9123SM  H13S12242   0.233   0.821  -1.336  1.1949 -0.0658 -1.5027
   9123SM  H13T12243   0.291   0.971  -1.255 -1.4235  0.1092 -1.4145
   9123SM  C14S12244   0.283   0.787  -1.132 -0.0099 -0.7473 -0.0311
   9123SM  H14S12245   0.265   0.678  -1.148 -1.4408 -0.3587 -1.2828
   9123SM  H14T12246   0.183   0.820  -1.096  0.8998  0.2481  1.6758
   9123SM  C15S12247   0.391   0.810  -1.023 -0.4224 -0.1385  0.4073
   9123SM  H15S12248   0.407   0.917  -0.997  1.8635 -0.7653  1.9131
   9123SM  H15T12249   0.490   0.766  -1.051  0.1205  0.9686  0.5371
   9123SM  C16S12250   0.357   0.743  -0.886 -0.2805  0.2443  0.8798
   9123SM  H16S12251   0.324   0.638  -0.903 -0.2203  0.3133  0.3089
   9123SM  H16T12252   0.272   0.805  -0.851 -0.3446  0.9291 -0.4329
   9123SM  C17S12253   0.482   0.743  -0.797  0.6015  0.3225 -0.4495
   9123SM  H17S12254   0.523   0.843  -0.772 -1.0173  0.8776  0.1311
   9123SM  H17T12255   0.558   0.691  -0.859 -1.0198 -1.6123 -0.9248
   9123SM  C18S12256   0.453   0.659  -0.668 -0.0489  0.0964  0.4351
   9123SM  H18S12257   0.404   0.712  -0.583  0.2079 -0.4212  0.9167
   9123SM  H18T12258   0.551   0.614  -0.638 -0.3276 -1.5789 -0.9816
   9123SM  H18U12259   0.392   0.574  -0.706 -1.9188  1.0664  1.1763
   9123SM   C1F12260   0.713   1.142  -2.360  0.2173  0.2874 -0.6696
   9123SM    OF12261   0.647   1.246  -2.384  0.0861 -0.3944 -0.1815
   9123SM   C2F12262   0.853   1.162  -2.309  0.5910  0.2698  0.4270
   9123SM   H2F12263   0.892   1.239  -2.379 -4.4231  3.0864  0.2190
   9123SM   H2G12264   0.909   1.068  -2.328 -2.3608 -1.5297 -0.0946
   9123SM   C3F12265   0.866   1.210  -2.157 -0.3475  0.0653 -0.5244
   9123SM   H3F12266   0.807   1.304  -2.147  1.0143  0.7991  1.0225
   9123SM   H3G12267   0.974   1.230  -2.146 -0.2547 -0.8086  0.2469
   9123SM   C4F12268   0.837   1.108  -2.044  0.0026  0.2254  0.4849
   9123SM   H4F12269   0.904   1.021  -2.058  1.4472  0.5046  4.4320
   9123SM   H4G12270   0.731   1.078  -2.057  0.0006 -0.0117  1.0516
   9123SM   C5F12271   0.852   1.174  -1.910  0.4309  0.2760 -0.4605
   9123SM   H5F12272   0.769   1.245  -1.894  0.4612  0.5918 -1.5710
   9123SM   H5G12273   0.946   1.234  -1.908  0.5304  0.2002  2.9351
   9123SM   C6F12274   0.849   1.065  -1.796  0.7673 -0.9921 -0.4752
   9123SM   H6F12275   0.950   1.020  -1.804  1.4709  0.0468  1.8013
   9123SM   H6G12276   0.771   0.990  -1.818 -0.0258 -0.4475  0.4095
   9123SM   C7F12277   0.822   1.138  -1.670  0.6153  0.3019  1.1701
   9123SM   H7F12278   0.718   1.176  -1.678  0.1718 -1.1979 -1.1477
   9123SM   H7G12279   0.891   1.222  -1.647  1.1751  0.2055 -0.0719
   9123SM   C8F12280   0.818   1.043  -1.541 -0.7303 -1.4301  0.0419
   9123SM   H8F12281   0.923   1.013  -1.521 -1.2013 -2.2581  1.3978
   9123SM   H8G12282   0.761   0.950  -1.560 -0.9277 -1.0327 -1.4468
   9123SM   C9F12283   0.754   1.117  -1.428  0.3525 -0.2313  0.0962
   9123SM   H9F12284   0.656   1.150  -1.469  0.7466  1.6867  0.6038
   9123SM   H9G12285   0.803   1.214  -1.406 -0.7354 -0.0571  1.9925
   9123SM  C10F12286   0.757   1.055  -1.289 -0.1213  0.2512  1.1421
   9123SM  H10F12287   0.866   1.051  -1.272  0.7049 -0.8427 -3.1404
   9123SM  H10G12288   0.717   0.951  -1.285 -0.8554  0.3943 -1.0840
   9123SM  C11F12289   0.704   1.141  -1.180  0.7311  0.2023 -0.4075
   9123SM  H11F12290   0.597   1.156  -1.205  0.5408  0.9660  0.8220
   9123SM  H11G12291   0.745   1.244  -1.180 -0.3368  0.6473  0.2336
   9123SM  C12F12292   0.722   1.082  -1.039  0.2040  0.4529  0.0669
   9123SM  H12F12293   0.830   1.055  -1.040  0.2886  0.6599  1.4933
   9123SM  H12G12294   0.663   0.989  -1.027  0.7419 -0.3364 -2.5611
   9123SM  C13F12295   0.697   1.176  -0.933  0.3071  0.1029 -0.0906
   9123SM  H13F12296   0.749   1.273  -0.935  0.4681  0.0113 -0.4413
   9123SM  H13G12297   0.745   1.127  -0.845  0.8891 -1.8900 -1.4428
   9123SM  C14F12298   0.552   1.185  -0.888 -0.2622 -0.5864  0.8154
   9123SM  H14F12299   0.512   1.087  -0.854  0.5295 -1.6057 -1.0125
   9123SM  H14G12300   0.484   1.206  -0.973  0.5139 -0.0618  0.3165
   9123SM  C15F12301   0.520   1.290  -0.780 -0.1716 -0.6351 -0.6720
   9123SM  H15F12302   0.410   1.298  -0.767 -0.3666 -3.8670  0.7861
   9123SM  H15G12303   0.560   1.392  -0.799  0.0941 -0.5668  0.2090
   9123SM  C16F12304   0.571   1.245  -0.644 -0.2086  0.4549  0.1028
   9123SM  H16F12305   0.584   1.337  -0.584  0.4549  1.0303 -0.8969
   9123SM  H16G12306   0.667   1.191  -0.650 -1.2000 -1.5750  1.4203
   9123SM  C17F12307   0.471   1.145  -0.574 -0.6363  0.2644 -0.3264
   9123SM  H17F12308   0.454   1.052  -0.632 -2.9218 -0.7829  1.8112
   9123SM  H17G12309   0.379   1.206  -0.563 -1.2671 -0.7875  0.4365
   9123SM  C18F12310   0.508   1.111  -0.431 -0.1411  0.5444  0.4991
   9123SM  H18F12311   0.483   1.193  -0.360 -2.1442  0.5571 -0.1625
   9123SM  H18G12312   0.619   1.110  -0.427 -0.0964 -0.4883 -0.5362
   9123SM  C19F12313   0.452   0.975  -0.375  1.0318 -0.2561  0.0379
   9123SM  H19F12314   0.493   0.891  -0.436 -0.0622 -0.6440 -0.1908
   9123SM  H19G12315   0.342   0.961  -0.385  1.2240 -1.0839 -1.2050
   9123SM  C20F12316   0.504   0.965  -0.231  0.4220  0.2012  0.0374
   9123SM  H20F12317   0.612   0.986  -0.217  0.3841  0.3949  0.0455
   9123SM  H20G12318   0.502   0.856  -0.210  0.1643  0.1207 -0.3974
   9123SM  C21F12319   0.425   1.043  -0.128  0.4349  0.0343  0.3157
   9123SM  H21F12320   0.317   1.014  -0.126  0.0126  1.5252  0.8180
   9123SM  H21G12321   0.431   1.151  -0.153 -2.3727  0.0331 -0.7913
   9123SM  C22F12322   0.473   1.025   0.016 -0.0875 -0.1683  1.1196
   9123SM  H22F12323   0.582   1.043   0.025  0.2210  0.0679 -1.9908
   9123SM  H22G12324   0.454   0.917   0.035  0.5505 -0.4970 -0.0076
   9123SM  C23F12325   0.399   1.096   0.129 -0.2650 -0.1603  0.9450
   9123SM  H23F12326   0.290   1.089   0.113 -0.3017 -0.1410  1.1815
   9123SM  H23G12327   0.424   1.205   0.133  1.2165 -0.5095  2.6417
   9123SM  H23H12328   0.415   1.045   0.226 -0.2271 -3.2320 -0.5522
   9223SM     N12329   1.535  -0.570  -3.052 -0.6345 -0.1496  0.1090
   9223SM   C1512330   1.643  -0.656  -3.111  0.7147  0.2656 -0.3463
   9223SM  H15A12331   1.634  -0.678  -3.216  1.2320  1.0095 -0.5495
   9223SM  H15B12332   1.645  -0.753  -3.063 -1.4093  0.8693  1.0893
   9223SM  H15C12333   1.741  -0.616  -3.094  1.0303 -1.0029  1.0629
   9223SM   C1412334   1.536  -0.442  -3.126 -0.4029  0.3700  0.7628
   9223SM  H14A12335   1.461  -0.374  -3.091 -0.1209  1.0345  0.0965
   9223SM  H14B12336   1.529  -0.457  -3.233 -0.6724  2.6659  0.4083
   9223SM  H14C12337   1.628  -0.391  -3.101  0.9626 -2.2264  1.4806
   9223SM   C1312338   1.406  -0.638  -3.082 -0.1960 -0.6692  0.1341
   9223SM  H13A12339   1.404  -0.686  -3.179  0.3047 -0.6419  0.1040
   9223SM  H13B12340   1.326  -0.566  -3.072 -0.5254 -1.0944  0.5914
   9223SM  H13C12341   1.387  -0.715  -3.009 -4.0226  0.4508  0.5436
   9223SM   C1212342   1.560  -0.535  -2.910  0.4745  0.3666 -0.5328
   9223SM  H12A12343   1.512  -0.445  -2.874  1.2479 -0.3439  2.6262
   9223SM  H12B12344   1.664  -0.508  -2.899  0.3211  1.0424 -0.7027
   9223SM   C1112345   1.532  -0.656  -2.813  0.3314  0.6112 -0.2200
   9223SM  H11A12346   1.428  -0.695  -2.811  1.2350 -1.9660  1.2512
   9223SM  H11B12347   1.532  -0.608  -2.713  0.4825  1.0800 -0.4389
   9223SM     P12348   1.779  -0.741  -2.773 -0.0874  0.1004 -0.6122
   9223SM   O1312349   1.857  -0.847  -2.832 -0.0700  0.1904 -0.1959
   9223SM   O1412350   1.815  -0.603  -2.811  0.3338  0.0329  0.1162
   9223SM   O1112351   1.786  -0.758  -2.624  0.2688 -0.2063  0.8844
   9223SM   O1212352   1.628  -0.763  -2.819 -0.3741 -0.5373  0.0635
   9223SM   C1S12353   1.679  -0.834  -2.558 -0.3407  0.1870  0.3037
   9223SM   H1S12354   1.702  -0.943  -2.565  0.6665  0.4513 -0.8967
   9223SM   H1T12355   1.576  -0.810  -2.593 -0.2754  0.4473  0.2890
   9223SM    NF12356   1.582  -0.876  -2.333  0.2093  0.2381  0.5296
   9223SM   HNF12357   1.497  -0.836  -2.298 -0.5394 -0.9474  0.1560
   9223SM   C2S12358   1.674  -0.795  -2.407 -0.5304 -0.3811  0.3212
   9223SM   H2S12359   1.777  -0.812  -2.369 -0.3803  2.8006  1.6745
   9223SM   C3S12360   1.657  -0.642  -2.391  0.2746  0.2968  0.1327
   9223SM   H3S12361   1.564  -0.619  -2.447  0.7197  1.5555 -0.1208
   9223SM    O312362   1.753  -0.557  -2.446  0.4279 -0.6702  0.2404
   9223SM   HO312363   1.804  -0.617  -2.501 -2.0029 -3.0681  0.3415
   9223SM   C4S12364   1.654  -0.599  -2.240  0.3976  0.5523  0.8679
   9223SM   H4S12365   1.732  -0.646  -2.178  0.6236 -1.2309 -0.6561
   9223SM   C5S12366   1.574  -0.503  -2.198  0.0133  0.1255  0.2860
   9223SM   H5S12367   1.502  -0.463  -2.271  0.4596 -0.5845 -0.5534
   9223SM   C6S12368   1.564  -0.455  -2.060  0.3154  0.2907 -0.2456
   9223SM   H6S12369   1.457  -0.428  -2.045  0.3390 -0.2645  1.0352
   9223SM   H6T12370   1.626  -0.368  -2.029  0.6407  0.0604 -0.2444
   9223SM   C7S12371   1.587  -0.555  -1.944  0.1859 -0.2186 -0.0472
   9223SM   H7S12372   1.693  -0.584  -1.928  0.5247  1.4344  0.9406
   9223SM   H7T12373   1.524  -0.645  -1.958  1.2407 -0.9075 -0.4844
   9223SM   C8S12374   1.530  -0.493  -1.811  0.0131  0.2451  0.2213
   9223SM   H8S12375   1.424  -0.463  -1.823 -0.4044 -1.1847  0.1773
   9223SM   H8T12376   1.592  -0.401  -1.804  0.4302 -0.0039 -0.0739
   9223SM   C9S12377   1.546  -0.587  -1.692  0.4534  0.2251 -0.2246
   9223SM   H9S12378   1.653  -0.601  -1.666 -0.2357 -1.3368  2.1808
   9223SM   H9T12379   1.488  -0.680  -1.710 -0.4022  0.3506  1.6114
   9223SM  C10S12380   1.481  -0.542  -1.561  0.1031 -0.3014  0.6989
   9223SM  H10S12381   1.371  -0.539  -1.573  0.1235  1.5709  0.7465
   9223SM  H10T12382   1.528  -0.445  -1.536 -0.0000 -0.3275  1.0099
   9223SM  C11S12383   1.503  -0.641  -1.441 -0.3459  0.2984  0.3022
   9223SM  H11S12384   1.613  -0.657  -1.435 -0.3679 -1.5920 -2.5911
   9223SM  H11T12385   1.455  -0.738  -1.464 -1.4099  1.3917 -2.5079
   9223SM  C12S12386   1.426  -0.599  -1.314 -0.0964  0.3048 -0.1435
   9223SM  H12S12387   1.316  -0.586  -1.325 -0.3795  0.1256  1.9263
   9223SM  H12T12388   1.454  -0.498  -1.278  1.0134  0.0227 -0.1987
   9223SM  C13S12389   1.461  -0.691  -1.199 -0.1773 -0.7212 -0.1815
   9223SM  H13S12390   1.569  -0.687  -1.173 -0.5053 -2.0733  1.6586
   9223SM  H13T12391   1.442  -0.796  -1.229 -0.0223 -1.7168  2.8034
   9223SM  C14S12392   1.379  -0.660  -1.075 -0.5772 -0.4094  0.3233
   9223SM  H14S12393   1.272  -0.667  -1.105 -0.7599 -0.2628  0.9186
   9223SM  H14T12394   1.401  -0.553  -1.054 -0.1717 -0.0297 -1.8583
   9223SM  C15S12395   1.399  -0.743  -0.951  0.1193 -0.5448 -0.2136
   9223SM  H15S12396   1.505  -0.735  -0.919 -0.2868 -0.2457  1.0936
   9223SM  H15T12397   1.374  -0.849  -0.973  1.5533 -0.7504 -0.9797
   9223SM  C16S12398   1.312  -0.683  -0.841 -0.5534 -0.3980  0.4179
   9223SM  H16S12399   1.206  -0.701  -0.869 -0.3629 -1.7369  0.4882
   9223SM  H16T12400   1.327  -0.573  -0.836  1.6480 -0.6339  0.0748
   9223SM  C17S12401   1.356  -0.733  -0.702  0.3750 -0.1799  0.2376
   9223SM  H17S12402   1.465  -0.713  -0.691  0.1714  0.9462  0.3750
   9223SM  H17T12403   1.341  -0.842  -0.695 -0.4708 -0.1573 -0.8484
   9223SM  C18S12404   1.281  -0.655  -0.588  0.1719  0.3538 -0.1766
   9223SM  H18S12405   1.247  -0.557  -0.629 -1.2634 -1.0683 -2.6158
   9223SM  H18T12406   1.347  -0.640  -0.500 -0.0316  0.3065 -0.0171
   9223SM  H18U12407   1.186  -0.711  -0.578 -0.1088  0.4033 -2.2057
   9223SM   C1F12408   1.591  -1.007  -2.321  0.3189  0.5471  0.1435
   9223SM    OF12409   1.689  -1.066  -2.360 -0.5913 -0.3534 -0.2012
   9223SM   C2F12410   1.466  -1.078  -2.277  0.2566  0.0232 -0.5572
   9223SM   H2F12411   1.434  -1.145  -2.360 -1.7994 -1.4653  1.3363
   9223SM   H2G12412   1.385  -1.003  -2.273  0.8256  0.7245 -1.6486
   9223SM   C3F12413   1.474  -1.160  -2.138  0.3633 -0.0540  0.3556
   9223SM   H3F12414   1.574  -1.208  -2.130  0.1495 -0.3906  1.1239
   9223SM   H3G12415   1.398  -1.240  -2.132 -1.2332  1.4721  1.2399
   9223SM   C4F12416   1.463  -1.062  -2.017  0.8889  0.2776  0.3367
   9223SM   H4F12417   1.370  -1.006  -2.040  1.7117  1.3182 -0.5503
   9223SM   H4G12418   1.548  -0.990  -2.017  3.6146 -2.5658 -2.7779
   9223SM   C5F12419   1.453  -1.140  -1.881  0.0707  0.2777  0.3115
   9223SM   H5F12420   1.550  -1.194  -1.889  0.9846  2.1402 -2.8586
   9223SM   H5G12421   1.368  -1.211  -1.880 -1.7982  2.3604  2.1983
   9223SM   C6F12422   1.462  -1.054  -1.756 -0.0227 -0.4157  0.5474
   9223SM   H6F12423   1.363  -1.007  -1.733  1.0088  3.4342 -1.8944
   9223SM   H6G12424   1.534  -0.970  -1.761 -2.0391  1.3517 -2.0258
   9223SM   C7F12425   1.526  -1.133  -1.640 -0.0234  0.0369  0.4936
   9223SM   H7F12426   1.631  -1.164  -1.656 -0.2716 -0.4394 -0.2569
   9223SM   H7G12427   1.461  -1.223  -1.638 -0.1682  0.1149  3.1627
   9223SM   C8F12428   1.507  -1.059  -1.502 -0.6799  0.3216 -0.1999
   9223SM   H8F12429   1.399  -1.034  -1.489 -1.1024 -2.1209  1.5899
   9223SM   H8G12430   1.567  -0.966  -1.511 -1.6738  0.9711 -0.3239
   9223SM   C9F12431   1.563  -1.144  -1.381 -0.3125  0.5534  0.0827
   9223SM   H9F12432   1.673  -1.151  -1.397 -0.6167 -0.9863 -1.7813
   9223SM   H9G12433   1.531  -1.250  -1.388 -0.0477  0.1770  3.2495
   9223SM  C10F12434   1.513  -1.097  -1.244  0.4445 -0.1423  0.5250
   9223SM  H10F12435   1.402  -1.100  -1.240  0.2818  3.0030  2.0173
   9223SM  H10G12436   1.534  -0.988  -1.238  0.0088  0.3184 -3.5083
   9223SM  C11F12437   1.576  -1.172  -1.121 -0.2931  0.7091  0.0694
   9223SM  H11F12438   1.686  -1.159  -1.122 -0.4293  2.0630 -1.3606
   9223SM  H11G12439   1.553  -1.281  -1.126  0.2431  0.4870  1.8376
   9223SM  C12F12440   1.525  -1.121  -0.987  0.5362 -0.6577 -0.6966
   9223SM  H12F12441   1.414  -1.114  -0.995  0.6805  0.4448 -2.0157
   9223SM  H12G12442   1.561  -1.016  -0.977 -0.5761 -0.0971 -2.2076
   9223SM  C13F12443   1.553  -1.214  -0.869 -0.6026 -0.2720  0.4045
   9223SM  H13F12444   1.662  -1.205  -0.849 -0.3582 -0.3645 -0.8277
   9223SM  H13G12445   1.526  -1.318  -0.898 -2.9369  0.6429 -0.9485
   9223SM  C14F12446   1.470  -1.175  -0.745 -0.1788 -0.7549  0.1477
   9223SM  H14F12447   1.364  -1.194  -0.772 -0.8911 -0.3962  2.4806
   9223SM  H14G12448   1.477  -1.067  -0.720 -0.8903 -0.2878 -1.5887
   9223SM  C15F12449   1.506  -1.256  -0.616  0.7342 -0.6538  0.8696
   9223SM  H15F12450   1.603  -1.220  -0.576  0.4756  1.6624 -0.4608
   9223SM  H15G12451   1.511  -1.365  -0.637 -1.3283 -1.1382  2.4794
   9223SM  C16F12452   1.398  -1.236  -0.504 -0.5615 -0.2830  0.1119
   9223SM  H16F12453   1.336  -1.328  -0.499  0.2629 -0.7968  3.0286
   9223SM  H16G12454   1.335  -1.146  -0.521  0.6623  0.2426 -2.0440
   9223SM  C17F12455   1.469  -1.217  -0.369 -0.2637  1.1624  0.3191
   9223SM  H17F12456   1.549  -1.140  -0.377  0.4993  0.2303 -1.6526
   9223SM  H17G12457   1.529  -1.307  -0.345 -1.1088  0.8423  1.2611
   9223SM  C18F12458   1.371  -1.176  -0.261 -0.0748  0.5987  0.1156
   9223SM  H18F12459   1.277  -1.235  -0.267 -0.5673  1.5273 -2.3076
   9223SM  H18G12460   1.345  -1.069  -0.276  2.4307  1.2086 -0.2409
   9223SM  C19F12461   1.427  -1.185  -0.120  0.0773  1.0282  0.2880
   9223SM  H19F12462   1.481  -1.281  -0.110 -1.0168  0.2649 -0.9346
   9223SM  H19G12463   1.340  -1.193  -0.052 -0.0068  1.3472  0.2211
   9223SM  C20F12464   1.524  -1.070  -0.080 -0.2484 -0.6707 -0.0401
   9223SM  H20F12465   1.596  -1.052  -0.163 -0.9858  1.7096 -0.2542
   9223SM  H20G12466   1.585  -1.104   0.006  0.9802  1.3288 -0.0506
   9223SM  C21F12467   1.456  -0.926  -0.059 -0.1156  0.5861  0.1897
   9223SM  H21F12468   1.384  -0.945   0.023 -1.2138  0.5248 -0.7716
   9223SM  H21G12469   1.396  -0.914  -0.152  2.2545  0.4082 -1.4606
   9223SM  C22F12470   1.547  -0.810  -0.046 -0.2409  0.3269  0.2638
   9223SM  H22F12471   1.499  -0.713  -0.072 -1.3675 -0.0572  0.8677
   9223SM  H22G12472   1.643  -0.820  -0.100 -1.0262 -0.3509 -1.0387
   9223SM  C23F12473   1.597  -0.794   0.104  0.3313 -0.0815  0.3121
   9223SM  H23F12474   1.665  -0.878   0.129  0.7455  0.3030  0.4755
   9223SM  H23G12475   1.510  -0.788   0.173 -1.2398  0.7448 -1.6219
   9223SM  H23H12476   1.659  -0.702   0.104  1.4622 -0.7095 -2.7109
   9323SM     N12477   1.955   1.041  -2.951 -0.1420 -0.2690 -0.2854
   9323SM   C1512478   1.944   0.933  -2.856  0.6509 -0.4023  0.1723
   9323SM  H15A12479   2.038   0.885  -2.832  0.3255 -0.8259  0.6464
   9323SM  H15B12480   1.874   0.855  -2.884 -1.4287  1.4945 -0.1981
   9323SM  H15C12481   1.902   0.972  -2.764  0.0268 -0.4988 -0.0623
   9323SM   C1412482   2.022   0.980  -3.073  0.4595 -0.9320 -0.1858
   9323SM  H14A12483   1.953   0.908  -3.113  0.5106 -1.1429  0.1023
   9323SM  H14B12484   2.124   0.948  -3.057  0.5452 -1.1806 -1.2150
   9323SM  H14C12485   2.018   1.058  -3.148  0.2645  0.0375  0.7986
   9323SM   C1312486   1.814   1.082  -2.991 -0.1726 -0.1595 -0.1867
   9323SM  H13A12487   1.750   0.998  -3.013 -1.1024  0.9681 -1.9903
   9323SM  H13B12488   1.820   1.142  -3.080 -0.3756  1.4039  0.8087
   9323SM  H13C12489   1.771   1.147  -2.916 -1.2769  0.1782 -1.0919
   9323SM   C1212490   2.034   1.162  -2.894 -0.3752 -0.4129 -0.6588
   9323SM  H12A12491   2.016   1.250  -2.954 -2.7984  0.3203  0.9765
   9323SM  H12B12492   2.138   1.137  -2.902 -0.8953 -2.2100 -2.5534
   9323SM   C1112493   1.994   1.222  -2.751  0.4110  0.4235  0.6308
   9323SM  H11A12494   2.074   1.287  -2.710  1.7146  0.0213 -1.1231
   9323SM  H11B12495   1.987   1.129  -2.690  1.2143 -0.6407 -0.8316
   9323SM     P12496   1.838   1.420  -2.812  0.1114  0.4645 -0.0431
   9323SM   O1312497   1.935   1.448  -2.920 -0.1697 -0.3912 -0.3277
   9323SM   O1412498   1.690   1.441  -2.829  0.2154 -0.2680  0.1303
   9323SM   O1112499   1.889   1.499  -2.690  0.4527  0.1514  0.7100
   9323SM   O1212500   1.862   1.273  -2.761  0.1316 -0.6078  0.3140
   9323SM   C1S12501   1.847   1.491  -2.553  0.3244  0.4126 -0.1227
   9323SM   H1S12502   1.770   1.413  -2.533  2.5593 -2.7690 -2.8784
   9323SM   H1T12503   1.813   1.592  -2.523  0.5745  1.7026 -3.8022
   9323SM    NF12504   1.893   1.455  -2.319  0.0339  0.3931  0.0085
   9323SM   HNF12505   1.917   1.534  -2.263 -0.3169  0.0072  0.7314
   9323SM   C2S12506   1.956   1.447  -2.453 -0.1362 -0.1521 -0.2731
   9323SM   H2S12507   1.980   1.343  -2.481  2.0300 -0.2868  1.7850
   9323SM   C3S12508   2.077   1.538  -2.467 -0.3040  0.0120  0.1793
   9323SM   H3S12509   2.032   1.638  -2.448 -1.8035 -0.6539  0.2586
   9323SM    O312510   2.138   1.540  -2.597 -0.2903 -0.0319  0.3235
   9323SM   HO312511   2.064   1.515  -2.652  0.3437  0.4496 -0.7803
   9323SM   C4S12512   2.176   1.505  -2.358 -0.0065  0.4490 -0.3869
   9323SM   H4S12513   2.200   1.398  -2.360  0.9612  0.6635 -1.5081
   9323SM   C5S12514   2.242   1.583  -2.275  0.6685  0.1561 -0.4898
   9323SM   H5S12515   2.227   1.691  -2.285  3.0899  0.4443 -1.6885
   9323SM   C6S12516   2.329   1.540  -2.161 -0.1245  0.0387  0.0361
   9323SM   H6S12517   2.316   1.597  -2.066 -0.5615 -0.0524  0.0360
   9323SM   H6T12518   2.430   1.566  -2.197 -0.3695 -0.6465 -1.2049
   9323SM   C7S12519   2.317   1.398  -2.103 -0.2546 -0.2056 -0.2393
   9323SM   H7S12520   2.347   1.328  -2.184 -1.8276  0.3975 -1.3867
   9323SM   H7T12521   2.208   1.376  -2.094 -0.1432 -1.5033 -1.6839
   9323SM   C8S12522   2.406   1.373  -1.983  0.6492 -0.4763  0.0927
   9323SM   H8S12523   2.507   1.404  -2.019  0.7604  0.7852  1.3931
   9323SM   H8T12524   2.412   1.265  -1.958 -0.3690 -0.7777 -0.8718
   9323SM   C9S12525   2.360   1.442  -1.851 -0.0381 -0.5297  0.1474
   9323SM   H9S12526   2.249   1.443  -1.843 -0.2030 -1.0983 -1.6200
   9323SM   H9T12527   2.383   1.549  -1.874  2.6020 -0.5594  2.1100
   9323SM  C10S12528   2.432   1.387  -1.731  0.1345 -0.0633 -0.5372
   9323SM  H10S12529   2.542   1.401  -1.737  0.0767 -0.1960 -3.0155
   9323SM  H10T12530   2.404   1.280  -1.732  1.3336 -0.4073  0.6176
   9323SM  C11S12531   2.373   1.452  -1.610 -0.4998 -0.3188  0.1232
   9323SM  H11S12532   2.263   1.458  -1.621 -0.3110  0.5037 -1.9226
   9323SM  H11T12533   2.413   1.556  -1.614 -0.0542 -0.5179 -2.2328
   9323SM  C12S12534   2.412   1.387  -1.478 -0.2943  0.7327  0.0054
   9323SM  H12S12535   2.522   1.387  -1.462 -0.3133 -1.1996  0.3397
   9323SM  H12T12536   2.368   1.285  -1.479 -1.8756  1.3787 -0.0911
   9323SM  C13S12537   2.339   1.459  -1.362  0.0869  0.6874 -0.3712
   9323SM  H13S12538   2.336   1.394  -1.272  0.0662  2.1448  0.7262
   9323SM  H13T12539   2.232   1.485  -1.378 -0.2899 -0.9698 -0.7524
   9323SM  C14S12540   2.415   1.591  -1.321 -0.0492  0.2532  0.2555
   9323SM  H14S12541   2.451   1.655  -1.405  0.7913  0.4582  0.7605
   9323SM  H14T12542   2.509   1.566  -1.267 -0.3935  0.5485  1.0034
   9323SM  C15S12543   2.337   1.679  -1.230  0.7577  1.0576  0.1099
   9323SM  H15S12544   2.400   1.770  -1.218  0.1480  1.4043  0.7963
   9323SM  H15T12545   2.252   1.699  -1.298  2.4645  0.8791 -2.1940
   9323SM  C16S12546   2.301   1.630  -1.097  0.1452  0.1336 -0.3124
   9323SM  H16S12547   2.275   1.522  -1.106  2.1357 -0.3323 -0.9278
   9323SM  H16T12548   2.213   1.677  -1.047  1.4042  0.1887  2.0012
   9323SM  C17S12549   2.413   1.652  -0.994 -0.1597  0.1908 -0.1340
   9323SM  H17S12550   2.430   1.761  -0.991  0.4287  0.1239 -0.8660
   9323SM  H17T12551   2.510   1.602  -1.013  0.6182  1.7051 -0.3012
   9323SM  C18S12552   2.355   1.601  -0.858  0.2527 -0.2216  0.1974
   9323SM  H18S12553   2.322   1.495  -0.858 -0.6811  0.0355  1.4965
   9323SM  H18T12554   2.273   1.666  -0.820 -0.8502 -1.4964  0.0864
   9323SM  H18U12555   2.434   1.606  -0.780 -1.4506 -0.4144  2.0085
   9323SM   C1F12556   1.792   1.376  -2.276 -1.1156  0.6582  0.5246
   9323SM    OF12557   1.763   1.280  -2.345  0.9450  0.6421 -0.6416
   9323SM   C2F12558   1.721   1.408  -2.146 -0.8960 -0.2592 -0.3211
   9323SM   H2F12559   1.752   1.511  -2.117  0.8670 -0.3076 -1.8252
   9323SM   H2G12560   1.759   1.335  -2.071 -3.9552 -0.6080  1.0272
   9323SM   C3F12561   1.573   1.396  -2.166 -0.0557 -0.5448  0.5050
   9323SM   H3F12562   1.548   1.288  -2.161  0.5409 -0.8132 -1.4059
   9323SM   H3G12563   1.540   1.431  -2.266 -0.3803  1.1780  1.1816
   9323SM   C4F12564   1.486   1.468  -2.064 -0.4396  0.2318 -1.1654
   9323SM   H4F12565   1.380   1.469  -2.097 -0.0710 -0.0507 -2.4058
   9323SM   H4G12566   1.522   1.573  -2.069  1.1395 -0.2472 -0.5812
   9323SM   C5F12567   1.499   1.412  -1.922  0.8409  0.5455  0.0596
   9323SM   H5F12568   1.514   1.302  -1.928 -1.3684  0.1659  0.5355
   9323SM   H5G12569   1.408   1.431  -1.862  1.7632  0.2008  1.6331
   9323SM   C6F12570   1.621   1.472  -1.844  0.5517  0.5285 -0.1626
   9323SM   H6F12571   1.674   1.539  -1.916  2.4291  0.6355  1.2244
   9323SM   H6G12572   1.695   1.397  -1.809  0.7247  1.0634  0.6298
   9323SM   C7F12573   1.567   1.546  -1.721  0.2360  0.4117  0.6517
   9323SM   H7F12574   1.484   1.608  -1.760 -0.2712 -0.0194  1.0439
   9323SM   H7G12575   1.651   1.606  -1.679  1.3934 -0.4960 -0.2975
   9323SM   C8F12576   1.517   1.454  -1.607 -0.1162  0.2009 -0.0809
   9323SM   H8F12577   1.591   1.371  -1.600  0.7379  0.9747  0.2848
   9323SM   H8G12578   1.420   1.415  -1.645 -0.0253  0.6338 -0.7758
   9323SM   C9F12579   1.500   1.535  -1.480 -0.1199 -0.0090 -0.2277
   9323SM   H9F12580   1.407   1.596  -1.477  0.0825  0.2990 -0.1843
   9323SM   H9G12581   1.591   1.594  -1.458 -1.7676  2.1371  1.3424
   9323SM  C10F12582   1.487   1.443  -1.363 -0.0749  0.1914 -0.1944
   9323SM  H10F12583   1.574   1.374  -1.360 -0.8496 -0.9705  4.6081
   9323SM  H10G12584   1.395   1.379  -1.362 -0.7553  1.1155 -1.3987
   9323SM  C11F12585   1.510   1.519  -1.244  0.2190 -0.3112 -0.0215
   9323SM  H11F12586   1.417   1.579  -1.243  0.2321 -0.2905  1.6217
   9323SM  H11G12587   1.602   1.582  -1.251  0.3079 -0.4395 -0.0246
   9323SM  C12F12588   1.516   1.427  -1.124  0.0329 -0.4258 -0.4202
   9323SM  H12F12589   1.600   1.355  -1.139 -1.5639 -2.0839 -2.0997
   9323SM  H12G12590   1.430   1.357  -1.124  0.0691 -0.5574 -2.7132
   9323SM  C13F12591   1.527   1.497  -0.992  0.6025 -0.0066  0.1525
   9323SM  H13F12592   1.437   1.557  -0.966 -0.0604 -1.0110  0.2644
   9323SM  H13G12593   1.610   1.570  -0.986  0.8990 -0.1888 -1.3657
   9323SM  C14F12594   1.545   1.395  -0.877 -0.1684  0.2809 -0.4787
   9323SM  H14F12595   1.650   1.358  -0.881 -0.3772 -0.4355  0.3859
   9323SM  H14G12596   1.483   1.304  -0.887  1.2268 -0.5549 -1.9666
   9323SM  C15F12597   1.517   1.449  -0.735  0.4895 -0.0602  0.8350
   9323SM  H15F12598   1.410   1.478  -0.725  0.5924 -0.2183  2.9574
   9323SM  H15G12599   1.577   1.541  -0.719  1.2985 -0.6595  1.3534
   9323SM  C16F12600   1.538   1.339  -0.631 -0.2186  0.2174  0.5700
   9323SM  H16F12601   1.647   1.319  -0.634 -0.1262  0.7440  0.2924
   9323SM  H16G12602   1.478   1.254  -0.670  0.6407 -0.6825  1.1466
   9323SM  C17F12603   1.513   1.381  -0.487 -0.4606 -0.5970  0.4030
   9323SM  H17F12604   1.553   1.484  -0.473 -1.0850  0.0057 -1.7488
   9323SM  H17G12605   1.569   1.319  -0.414  1.4582  1.8815  1.1771
   9323SM  C18F12606   1.365   1.383  -0.459 -0.7613  0.3616 -0.1937
   9323SM  H18F12607   1.337   1.275  -0.463 -0.8541  0.3359  0.9208
   9323SM  H18G12608   1.314   1.454  -0.527 -1.4389 -0.9667 -1.1163
   9323SM  C19F12609   1.329   1.435  -0.316  0.0128 -0.8055  0.0602
   9323SM  H19F12610   1.359   1.541  -0.304 -1.7896  0.0084 -2.0224
   9323SM  H19G12611   1.379   1.375  -0.236 -2.1451 -1.6424  0.8510
   9323SM  C20F12612   1.180   1.425  -0.280  0.5704  0.7343 -0.1535
   9323SM  H20F12613   1.160   1.316  -0.291  2.7215  0.1223  1.2891
   9323SM  H20G12614   1.114   1.479  -0.351 -2.2764 -0.7337  1.2476
   9323SM  C21F12615   1.151   1.463  -0.140  0.2323  0.2884  0.7125
   9323SM  H21F12616   1.202   1.394  -0.070 -0.5349 -1.2215 -0.1836
   9323SM  H21G12617   1.046   1.455  -0.104 -0.2383  2.7854  0.0936
   9323SM  C22F12618   1.201   1.603  -0.095 -0.0752  0.1621 -0.5151
   9323SM  H22F12619   1.157   1.671  -0.171  3.0869  2.5836 -0.3556
   9323SM  H22G12620   1.308   1.602  -0.125 -0.4905 -1.2380 -2.0980
   9323SM  C23F12621   1.164   1.641   0.043 -0.2513  0.0322 -0.4124
   9323SM  H23F12622   1.190   1.565   0.119 -1.8443 -1.1217 -0.9653
   9323SM  H23G12623   1.053   1.650   0.051 -0.2472  0.9796 -1.2113
   9323SM  H23H12624   1.199   1.744   0.066 -1.6859  0.0743  1.9310
   9423SM     N12625   0.175  -3.221  -2.536 -0.3900  0.3916 -0.4703
   9423SM   C1512626   0.041  -3.167  -2.513 -0.4147  0.3309 -0.1942
   9423SM  H15A12627   0.048  -3.089  -2.438  2.5936  0.5595 -0.5957
   9423SM  H15B12628  -0.029  -3.240  -2.476 -0.5568  0.4809 -0.1637
   9423SM  H15C12629   0.002  -3.126  -2.606  2.1520  0.0271 -1.4918
   9423SM   C1412630   0.182  -3.317  -2.656  0.1022 -0.3971 -0.3015
   9423SM  H14A12631   0.173  -3.258  -2.746  1.6678  1.3434  0.6177
   9423SM  H14B12632   0.105  -3.392  -2.646 -0.7398  0.6839  2.3347
   9423SM  H14C12633   0.284  -3.353  -2.657 -0.2006 -1.2738 -0.5414
   9423SM   C1312634   0.265  -3.109  -2.569  0.6190 -0.2874  0.3727
   9423SM  H13A12635   0.230  -3.047  -2.650  1.4983  2.3585  1.9157
   9423SM  H13B12636   0.365  -3.144  -2.589  0.2824 -0.4079 -1.2460
   9423SM  H13C12637   0.279  -3.039  -2.488  0.4311 -1.9519  1.9149
   9423SM   C1212638   0.220  -3.297  -2.407 -0.2544 -0.2338 -0.1468
   9423SM  H12A12639   0.170  -3.393  -2.404 -1.2539  0.2740 -0.1033
   9423SM  H12B12640   0.179  -3.235  -2.329 -1.7374 -0.5535 -0.6510
   9423SM   C1112641   0.366  -3.316  -2.378  0.1269  0.2652 -0.4376
   9423SM  H11A12642   0.391  -3.360  -2.279  0.6869 -2.2283 -1.5979
   9423SM  H11B12643   0.409  -3.213  -2.377  0.5844  0.0781  0.1756
   9423SM     P12644   0.454  -3.548  -2.460  0.0912  0.0697 -0.6191
   9423SM   O1312645   0.328  -3.621  -2.454  0.6021  0.1187  0.5021
   9423SM   O1412646   0.547  -3.595  -2.560  0.6011 -0.0520  0.0096
   9423SM   O1112647   0.520  -3.557  -2.315 -0.4716 -0.5406 -0.3247
   9423SM   O1212648   0.431  -3.394  -2.483 -0.4611 -0.2736  0.3022
   9423SM   C1S12649   0.569  -3.685  -2.269  0.0875  0.2010  0.1210
   9423SM   H1S12650   0.679  -3.684  -2.279  0.0521 -0.1572 -0.2972
   9423SM   H1T12651   0.524  -3.773  -2.319 -0.6702 -0.4422  1.8524
   9423SM    NF12652   0.619  -3.837  -2.072  0.3323  0.3085  0.3566
   9423SM   HNF12653   0.560  -3.918  -2.073  0.6547 -0.0700  3.1576
   9423SM   C2S12654   0.547  -3.713  -2.106 -0.4945  0.0747  1.0487
   9423SM   H2S12655   0.593  -3.633  -2.046  0.9057  0.7333 -0.8037
   9423SM   C3S12656   0.398  -3.720  -2.075  0.1697 -0.1049  0.5010
   9423SM   H3S12657   0.369  -3.815  -2.125 -0.4019  0.2229  0.1857
   9423SM    O312658   0.314  -3.622  -2.136  0.6880 -0.1687  0.4465
   9423SM   HO312659   0.374  -3.575  -2.194 -0.3987  2.6670  1.4458
   9423SM   C4S12660   0.368  -3.723  -1.931 -0.6049  0.3290  0.3249
   9423SM   H4S12661   0.344  -3.823  -1.892  0.7658  0.4799  1.6639
   9423SM   C5S12662   0.372  -3.615  -1.847 -0.2356  1.0208 -0.6769
   9423SM   H5S12663   0.416  -3.519  -1.878  1.1958  0.6261  0.0572
   9423SM   C6S12664   0.346  -3.595  -1.705 -0.2896  0.4079 -0.2247
   9423SM   H6S12665   0.320  -3.487  -1.694  0.1215  0.2380  3.5325
   9423SM   H6T12666   0.439  -3.622  -1.652 -1.3453 -0.6876  1.1521
   9423SM   C7S12667   0.226  -3.672  -1.629 -0.7516  0.0829 -0.1467
   9423SM   H7S12668   0.243  -3.779  -1.653 -2.2749 -0.9516  2.8502
   9423SM   H7T12669   0.120  -3.644  -1.650 -0.6358  1.0734  0.5148
   9423SM   C8S12670   0.246  -3.677  -1.475  0.2454  0.0832 -0.1322
   9423SM   H8S12671   0.295  -3.586  -1.435 -0.7487  0.1238  1.0471
   9423SM   H8T12672   0.312  -3.761  -1.447  1.1476  1.6153  2.7306
   9423SM   C9S12673   0.119  -3.682  -1.396 -0.0580  0.4312 -0.4708
   9423SM   H9S12674   0.049  -3.757  -1.440  0.5463 -1.6987  1.9643
   9423SM   H9T12675   0.070  -3.583  -1.408  1.8835  1.6896  1.4072
   9423SM  C10S12676   0.144  -3.720  -1.252  0.3090 -0.1647  0.1039
   9423SM  H10S12677   0.211  -3.809  -1.256  1.1446  0.4629 -0.0079
   9423SM  H10T12678   0.054  -3.749  -1.194  1.5892 -0.0278  2.3008
   9423SM  C11S12679   0.212  -3.609  -1.171 -0.5679  0.1858  0.0860
   9423SM  H11S12680   0.145  -3.521  -1.177  0.4652  1.2324  2.3838
   9423SM  H11T12681   0.314  -3.597  -1.214 -1.0698  0.6776 -1.0021
   9423SM  C12S12682   0.219  -3.644  -1.022 -0.0088  0.1115 -0.3888
   9423SM  H12S12683   0.120  -3.648  -0.970  0.7719  1.8773  1.3816
   9423SM  H12T12684   0.257  -3.556  -0.967 -0.4864  0.4717 -0.6309
   9423SM  C13S12685   0.306  -3.764  -0.989 -0.6873 -0.3184  0.4584
   9423SM  H13S12686   0.397  -3.744  -1.050  0.3458 -2.0180  1.3637
   9423SM  H13T12687   0.269  -3.856  -1.037 -0.5166  0.4379 -1.2064
   9423SM  C14S12688   0.365  -3.775  -0.847  0.4423  0.2677 -0.1583
   9423SM  H14S12689   0.401  -3.675  -0.813  0.3328 -0.0054  0.7857
   9423SM  H14T12690   0.452  -3.843  -0.854  0.3870  0.2512 -0.7771
   9423SM  C15S12691   0.259  -3.839  -0.754  0.0097 -0.3656  0.1499
   9423SM  H15S12692   0.230  -3.941  -0.789 -0.6963 -0.9661  2.3114
   9423SM  H15T12693   0.166  -3.780  -0.769  0.3052  0.0107 -0.1911
   9423SM  C16S12694   0.295  -3.823  -0.609  0.0273 -0.2999  0.4010
   9423SM  H16S12695   0.213  -3.861  -0.544 -2.9078  1.3904 -2.0039
   9423SM  H16T12696   0.311  -3.716  -0.582  0.2328  0.1062 -1.2365
   9423SM  C17S12697   0.424  -3.910  -0.572  0.0441  0.0788  0.9308
   9423SM  H17S12698   0.512  -3.859  -0.617 -0.0615 -0.2578  0.3401
   9423SM  H17T12699   0.413  -4.008  -0.622  2.5469  0.0833  0.2692
   9423SM  C18S12700   0.453  -3.927  -0.416 -0.8020  0.1994  0.1287
   9423SM  H18S12701   0.372  -3.985  -0.366 -0.1582 -0.8937 -0.0592
   9423SM  H18T12702   0.485  -3.829  -0.376  1.5658  0.0748 -1.2646
   9423SM  H18U12703   0.543  -3.991  -0.405 -0.6310  0.2973 -0.6405
   9423SM   C1F12704   0.753  -3.862  -2.080  0.2751  0.0486 -0.2567
   9423SM    OF12705   0.829  -3.767  -2.095  0.0370 -0.2958 -0.2125
   9423SM   C2F12706   0.802  -4.005  -2.091 -0.0447 -0.3302  0.1021
   9423SM   H2F12707   0.876  -4.015  -2.174  1.4426  1.4415  1.1366
   9423SM   H2G12708   0.720  -4.077  -2.111  0.2520 -0.0263 -2.5542
   9423SM   C3F12709   0.881  -4.053  -1.966  0.4450 -1.1147  0.1350
   9423SM   H3F12710   0.804  -4.064  -1.886  1.6107 -0.6790  1.3337
   9423SM   H3G12711   0.945  -3.970  -1.933 -2.7746  1.4139  0.5030
   9423SM   C4F12712   0.948  -4.196  -1.978  0.4819 -0.1703  0.2952
   9423SM   H4F12713   1.017  -4.193  -2.065 -1.1296 -0.2695 -1.0402
   9423SM   H4G12714   0.864  -4.263  -2.008 -0.8923  0.8206  1.7364
   9423SM   C5F12715   1.014  -4.249  -1.850 -0.9062  0.6037  0.1833
   9423SM   H5F12716   1.092  -4.174  -1.824  1.0445 -1.6985  1.3646
   9423SM   H5G12717   1.070  -4.341  -1.876 -2.0191  0.1102 -0.5151
   9423SM   C6F12718   0.923  -4.267  -1.729 -0.4996  0.3142 -0.0469
   9423SM   H6F12719   0.835  -4.329  -1.759 -0.6538 -1.0480  2.8549
   9423SM   H6G12720   0.884  -4.164  -1.713 -1.1016  0.0378  0.3120
   9423SM   C7F12721   1.010  -4.322  -1.623  0.3869 -0.6939 -0.0522
   9423SM   H7F12722   1.101  -4.261  -1.607 -0.1998  0.5773 -1.3181
   9423SM   H7G12723   1.050  -4.416  -1.667 -0.1117 -0.4671 -1.0161
   9423SM   C8F12724   0.946  -4.354  -1.493  0.5487 -0.5782  0.3292
   9423SM   H8F12725   0.869  -4.433  -1.503  0.1467  0.0998 -2.9256
   9423SM   H8G12726   0.884  -4.271  -1.452  0.1635 -0.9728  0.5545
   9423SM   C9F12727   1.041  -4.385  -1.375  0.0927 -0.2417  0.5907
   9423SM   H9F12728   1.127  -4.316  -1.363  0.6012 -0.5869 -0.8353
   9423SM   H9G12729   1.096  -4.478  -1.403 -0.1767 -0.4401  0.7151
   9423SM  C10F12730   0.966  -4.394  -1.244 -0.6238 -0.1847  0.4765
   9423SM  H10F12731   0.868  -4.444  -1.265  0.3205 -2.2919  0.8311
   9423SM  H10G12732   0.933  -4.293  -1.210 -0.4059 -0.4098  1.3985
   9423SM  C11F12733   1.039  -4.477  -1.136  0.0602 -0.4345 -0.1743
   9423SM  H11F12734   1.137  -4.432  -1.108  0.3663  0.1941 -2.1189
   9423SM  H11G12735   1.055  -4.582  -1.169 -1.2969 -0.4176 -0.9500
   9423SM  C12F12736   0.958  -4.493  -1.011 -0.1579 -0.0246 -0.1930
   9423SM  H12F12737   0.863  -4.543  -1.039 -1.8976  2.9043 -0.0442
   9423SM  H12G12738   0.935  -4.389  -0.979 -0.3990  0.0445 -0.5875
   9423SM  C13F12739   1.023  -4.577  -0.897  0.0836 -0.3598 -0.2218
   9423SM  H13F12740   1.122  -4.532  -0.872 -0.3494  0.1377  0.6926
   9423SM  H13G12741   1.043  -4.681  -0.928  0.9795 -0.1760 -0.2747
   9423SM  C14F12742   0.934  -4.577  -0.774 -0.4028 -0.1150 -0.4813
   9423SM  H14F12743   0.833  -4.614  -0.800 -0.8310  0.2776  0.5631
   9423SM  H14G12744   0.928  -4.471  -0.740 -2.0891  0.4980 -2.4601
   9423SM  C15F12745   0.978  -4.670  -0.659  0.1378  0.8448 -0.0570
   9423SM  H15F12746   1.077  -4.630  -0.626  0.7129 -0.5867  0.0054
   9423SM  H15G12747   0.998  -4.773  -0.693 -0.7344  0.7859 -0.4064
   9423SM  C16F12748   0.871  -4.667  -0.544 -0.2676 -0.6165 -0.2278
   9423SM  H16F12749   0.780  -4.724  -0.573 -0.6222 -0.5896  0.8030
   9423SM  H16G12750   0.840  -4.561  -0.533  0.8014  0.1128 -3.1766
   9423SM  C17F12751   0.936  -4.728  -0.421  0.2638 -0.3331 -1.0819
   9423SM  H17F12752   1.033  -4.678  -0.401 -0.9798  2.0120 -0.4759
   9423SM  H17G12753   0.959  -4.832  -0.453  2.2247 -0.1590 -0.3364
   9423SM  C18F12754   0.839  -4.707  -0.294  0.4802 -0.3036  0.4958
   9423SM  H18F12755   0.748  -4.767  -0.315  1.9292 -2.2710 -0.4432
   9423SM  H18G12756   0.810  -4.600  -0.286  0.2771 -0.1892 -1.3176
   9423SM  C19F12757   0.893  -4.765  -0.167  0.3915 -0.4116 -0.0167
   9423SM  H19F12758   0.979  -4.706  -0.131  1.8586 -1.6436 -1.3696
   9423SM  H19G12759   0.940  -4.863  -0.188 -0.0055 -0.5915 -0.0897
   9423SM  C20F12760   0.786  -4.776  -0.059 -0.1114 -0.2258  0.5051
   9423SM  H20F12761   0.694  -4.803  -0.114  0.1821  3.1776 -2.0229
   9423SM  H20G12762   0.757  -4.676  -0.018 -0.1702  1.0135 -2.3201
   9423SM  C21F12763   0.803  -4.875   0.054 -0.1610 -0.1523 -0.3861
   9423SM  H21F12764   0.871  -4.957   0.021  1.9081  1.4786 -0.3611
   9423SM  H21G12765   0.709  -4.919   0.094  0.6431 -0.7949  0.8729
   9423SM  C22F12766   0.866  -4.809   0.175  0.1561  0.5656 -0.7133
   9423SM  H22F12767   0.808  -4.719   0.202 -1.3198 -0.9456  1.4767
   9423SM  H22G12768   0.961  -4.755   0.153  0.2334  0.1891 -1.3543
   9423SM  C23F12769   0.877  -4.905   0.298  0.5699 -0.1958 -0.3450
   9423SM  H23F12770   0.958  -4.979   0.279  1.1479 -0.0337  1.3144
   9423SM  H23G12771   0.779  -4.957   0.300 -0.1287  1.0094 -1.7949
   9423SM  H23H12772   0.909  -4.851   0.390  1.9172 -1.5552  0.0268
   9523SM     N12773  -1.921  -1.104  -3.009 -0.2562  0.5594  0.3082
   9523SM   C1512774  -1.857  -1.193  -3.108  0.2323 -0.2133  0.1572
   9523SM  H15A12775  -1.813  -1.287  -3.077  0.6708  0.0133  0.2374
   9523SM  H15B12776  -1.770  -1.149  -3.155 -0.6511 -1.2580 -2.6553
   9523SM  H15C12777  -1.926  -1.193  -3.190 -1.2444  1.7347  1.3084
   9523SM   C1412778  -1.967  -0.985  -3.086 -0.1423  0.2640 -0.2791
   9523SM  H14A12779  -2.026  -0.918  -3.026  0.1333  2.5722 -2.4371
   9523SM  H14B12780  -2.028  -1.009  -3.172  2.8509  1.9521 -3.0933
   9523SM  H14C12781  -1.877  -0.939  -3.124 -0.8623 -0.1163 -2.5855
   9523SM   C1312782  -2.042  -1.185  -2.955 -0.4906 -0.7408 -0.7686
   9523SM  H13A12783  -2.010  -1.281  -2.917  2.1786  0.0783 -0.7772
   9523SM  H13B12784  -2.120  -1.189  -3.030  1.2210  0.0051 -2.6805
   9523SM  H13C12785  -2.083  -1.128  -2.874 -2.1250 -2.9848  0.0854
   9523SM   C1212786  -1.838  -1.068  -2.886 -0.1661 -0.3176  0.9174
   9523SM  H12A12787  -1.759  -1.004  -2.921 -2.2719  2.1739  0.4058
   9523SM  H12B12788  -1.793  -1.158  -2.848  2.1912  0.8561  1.0378
   9523SM   C1112789  -1.908  -0.994  -2.775  0.0719 -0.2996 -0.4541
   9523SM  H11A12790  -1.835  -0.984  -2.692 -0.4174  0.7870 -0.1391
   9523SM  H11B12791  -1.988  -1.056  -2.730  2.0594 -0.2455  3.5991
   9523SM     P12792  -2.093  -0.807  -2.760 -0.0703 -0.0636 -0.0461
   9523SM   O1312793  -2.090  -0.666  -2.786 -0.1037 -0.7049 -0.5556
   9523SM   O1412794  -2.196  -0.884  -2.824 -0.0369 -0.4321 -0.5443
   9523SM   O1112795  -2.098  -0.829  -2.602  0.0884  0.6298 -0.4675
   9523SM   O1212796  -1.959  -0.863  -2.809  0.2189  0.2040 -0.2706
   9523SM   C1S12797  -1.994  -0.774  -2.526  0.4953 -0.1914 -0.5627
   9523SM   H1S12798  -1.995  -0.663  -2.527 -2.0026 -0.1550  0.1959
   9523SM   H1T12799  -1.894  -0.811  -2.558  0.7165  0.9200 -1.2193
   9523SM    NF12800  -1.905  -0.760  -2.292 -0.1388 -0.7743 -0.1621
   9523SM   HNF12801  -1.825  -0.815  -2.266  1.0958  0.3500 -1.3986
   9523SM   C2S12802  -2.005  -0.822  -2.378  0.5648 -0.5229 -0.2419
   9523SM   H2S12803  -2.105  -0.793  -2.340  1.3737  0.9675  0.8770
   9523SM   C3S12804  -1.997  -0.978  -2.375 -0.5653  0.0307 -0.3082
   9523SM   H3S12805  -1.895  -1.014  -2.399 -0.6807 -0.3818 -0.1905
   9523SM    O312806  -2.070  -1.051  -2.469  0.3587  0.5386 -0.1470
   9523SM   HO312807  -2.092  -0.988  -2.539  1.3883  1.4389  0.3124
   9523SM   C4S12808  -2.025  -1.027  -2.234  0.4912 -0.0407 -0.1961
   9523SM   H4S12809  -1.962  -0.977  -2.159  0.6002 -0.0838 -0.2587
   9523SM   C5S12810  -2.115  -1.107  -2.188 -0.5460  1.2015 -0.1254
   9523SM   H5S12811  -2.193  -1.148  -2.254 -1.5979 -1.2185  2.4283
   9523SM   C6S12812  -2.127  -1.152  -2.043 -0.2001 -0.0670  0.3205
   9523SM   H6S12813  -2.058  -1.235  -2.017 -0.7344  0.2367  3.0866
   9523SM   H6T12814  -2.233  -1.186  -2.042 -1.0881  2.4327  1.5752
   9523SM   C7S12815  -2.109  -1.037  -1.940 -0.6766 -0.4185 -0.0725
   9523SM   H7S12816  -2.191  -0.963  -1.956 -1.0593 -0.9403 -0.5547
   9523SM   H7T12817  -2.004  -1.003  -1.954 -0.6562 -0.4557 -0.0086
   9523SM   C8S12818  -2.122  -1.092  -1.798 -0.2800 -0.6941  1.0505
   9523SM   H8S12819  -2.050  -1.175  -1.788  0.7791  0.1532  0.6317
   9523SM   H8T12820  -2.223  -1.137  -1.785 -0.9512  0.9538  1.9362
   9523SM   C9S12821  -2.099  -1.002  -1.677 -0.1354 -0.0471 -0.5134
   9523SM   H9S12822  -2.176  -0.922  -1.681 -0.5305 -0.4414 -0.9872
   9523SM   H9T12823  -1.997  -0.960  -1.681 -1.0979  2.6357  0.7499
   9523SM  C10S12824  -2.117  -1.082  -1.544 -0.5319 -0.1483 -0.8109
   9523SM  H10S12825  -2.063  -1.177  -1.563  1.2616  0.3555  1.2228
   9523SM  H10T12826  -2.222  -1.110  -1.522  0.1786 -0.8593  2.2930
   9523SM  C11S12827  -2.052  -1.017  -1.418 -0.0238  0.3345 -0.3882
   9523SM  H11S12828  -2.095  -0.915  -1.409 -0.6207  0.0201  0.5201
   9523SM  H11T12829  -1.942  -1.013  -1.435 -0.2439  3.0337 -1.6766
   9523SM  C12S12830  -2.085  -1.105  -1.295 -0.0015 -0.4681  0.1354
   9523SM  H12S12831  -2.019  -1.192  -1.314 -0.4264 -0.3439 -2.1844
   9523SM  H12T12832  -2.191  -1.138  -1.291 -1.2735  2.8285 -1.9607
   9523SM  C13S12833  -2.038  -1.031  -1.170 -0.2066 -0.9396 -0.2869
   9523SM  H13S12834  -2.087  -0.931  -1.171 -1.1199 -1.3489  1.3448
   9523SM  H13T12835  -1.929  -1.017  -1.180 -0.1111 -1.2100  0.3487
   9523SM  C14S12836  -2.066  -1.107  -1.043  0.4896  0.2838  0.6356
   9523SM  H14S12837  -2.010  -1.203  -1.046  0.1447  0.0073 -3.5087
   9523SM  H14T12838  -2.175  -1.129  -1.042  0.2654  1.2717 -0.3415
   9523SM  C15S12839  -2.021  -1.030  -0.919  0.3845 -0.1476 -0.7701
   9523SM  H15S12840  -2.060  -0.926  -0.915  1.7996  0.4292 -1.2642
   9523SM  H15T12841  -1.911  -1.017  -0.925  0.4502  0.4626  1.1112
   9523SM  C16S12842  -2.068  -1.102  -0.791 -0.3849 -0.1305  0.3190
   9523SM  H16S12843  -2.050  -1.209  -0.818  2.5544  0.6544 -1.2032
   9523SM  H16T12844  -2.175  -1.079  -0.774 -0.1778  0.4380  0.9211
   9523SM  C17S12845  -1.987  -1.052  -0.665  0.6364  0.7487 -0.1131
   9523SM  H17S12846  -2.013  -0.946  -0.645  1.7480  0.8073  1.1270
   9523SM  H17T12847  -1.879  -1.055  -0.689  0.4422  0.7372 -1.0635
   9523SM  C18S12848  -2.011  -1.135  -0.542 -0.7386 -0.4754 -0.1450
   9523SM  H18S12849  -2.116  -1.125  -0.507 -0.7990  0.9001 -0.6633
   9523SM  H18T12850  -1.942  -1.128  -0.456 -1.0421 -1.1478  0.1649
   9523SM  H18U12851  -1.997  -1.238  -0.580  1.9439 -0.1189 -0.3177
   9523SM   C1F12852  -1.908  -0.630  -2.252 -0.3611 -0.0164 -0.6834
   9523SM    OF12853  -1.994  -0.551  -2.293 -0.1911  0.1492  0.2834
   9523SM   C2F12854  -1.793  -0.592  -2.160  0.1084 -0.0135  0.1752
   9523SM   H2F12855  -1.706  -0.563  -2.223  0.1384 -2.3562 -0.9529
   9523SM   H2G12856  -1.752  -0.682  -2.110 -0.6403  0.8561  2.5293
   9523SM   C3F12857  -1.822  -0.485  -2.056  0.5369 -0.3189  0.0817
   9523SM   H3F12858  -1.855  -0.385  -2.094  0.8807 -0.4665 -0.6318
   9523SM   H3G12859  -1.719  -0.470  -2.019  0.2959  0.6637  0.3852
   9523SM   C4F12860  -1.926  -0.523  -1.947 -0.1921 -0.1067  0.0222
   9523SM   H4F12861  -2.025  -0.540  -1.995 -0.3608  1.0909 -0.0905
   9523SM   H4G12862  -1.931  -0.439  -1.875  2.3973 -1.3080  1.7631
   9523SM   C5F12863  -1.873  -0.644  -1.874 -0.2414  0.5975 -0.4058
   9523SM   H5F12864  -1.771  -0.621  -1.835  0.6854 -3.2093 -0.2048
   9523SM   H5G12865  -1.856  -0.728  -1.944 -0.8945 -1.2066  1.5132
   9523SM   C6F12866  -1.951  -0.690  -1.752 -0.0242 -0.3334  0.4125
   9523SM   H6F12867  -1.895  -0.776  -1.711  1.6259 -0.6455 -2.2596
   9523SM   H6G12868  -2.050  -0.732  -1.780  0.3607 -0.9619 -0.0256
   9523SM   C7F12869  -1.953  -0.589  -1.637 -0.3905 -0.1018  0.3333
   9523SM   H7F12870  -2.023  -0.507  -1.664 -0.3585 -0.4409 -0.8587
   9523SM   H7G12871  -1.851  -0.547  -1.627 -1.2276  1.6017  2.3807
   9523SM   C8F12872  -2.003  -0.651  -1.504  0.0895  0.3052  0.1647
   9523SM   H8F12873  -1.932  -0.728  -1.464 -0.3952  1.0526  2.6338
   9523SM   H8G12874  -2.103  -0.697  -1.516  0.3300 -0.2779  0.3222
   9523SM   C9F12875  -1.998  -0.547  -1.394 -0.1796  1.3056 -0.1237
   9523SM   H9F12876  -2.092  -0.489  -1.405 -1.4571 -0.2276  1.9475
   9523SM   H9G12877  -1.910  -0.481  -1.401  0.1726  1.0981  1.8867
   9523SM  C10F12878  -1.995  -0.607  -1.251 -0.0038 -0.0712  0.3597
   9523SM  H10F12879  -2.085  -0.671  -1.241 -0.0372 -0.2672 -0.9808
   9523SM  H10G12880  -2.004  -0.524  -1.178  0.1290  0.2897 -0.0266
   9523SM  C11F12881  -1.878  -0.696  -1.207  0.0554 -0.0077 -0.5939
   9523SM  H11F12882  -1.786  -0.642  -1.236 -1.1365  1.9525 -0.8779
   9523SM  H11G12883  -1.877  -0.794  -1.259 -2.3838 -0.0473 -0.6674
   9523SM  C12F12884  -1.874  -0.705  -1.050  0.1172  0.3065 -0.0457
   9523SM  H12F12885  -1.823  -0.800  -1.020 -2.5138 -1.4833 -0.9019
   9523SM  H12G12886  -1.976  -0.707  -1.005  0.8520  2.6956  1.9295
   9523SM  C13F12887  -1.785  -0.593  -0.996  0.1538  0.9282 -0.1751
   9523SM  H13F12888  -1.849  -0.506  -0.970 -1.5627  0.3964 -2.2710
   9523SM  H13G12889  -1.711  -0.558  -1.070 -0.3841  1.1997 -0.5912
   9523SM  C14F12890  -1.705  -0.639  -0.867 -0.2949 -0.7767  0.2765
   9523SM  H14F12891  -1.613  -0.580  -0.848 -0.6071 -0.5593  1.1655
   9523SM  H14G12892  -1.680  -0.747  -0.877  1.3600 -0.3651 -0.3698
   9523SM  C15F12893  -1.797  -0.633  -0.740  0.5025  0.5602  0.3930
   9523SM  H15F12894  -1.890  -0.693  -0.753  0.1222  1.5922 -2.3453
   9523SM  H15G12895  -1.849  -0.535  -0.737 -0.3288  0.1639 -0.4742
   9523SM  C16F12896  -1.735  -0.677  -0.613 -0.0858  0.3204  0.2863
   9523SM  H16F12897  -1.668  -0.596  -0.578 -0.7917  1.6593 -1.3171
   9523SM  H16G12898  -1.679  -0.772  -0.627  0.8820  1.3097 -3.9978
   9523SM  C17F12899  -1.843  -0.713  -0.506 -0.0249  0.2665  0.3308
   9523SM  H17F12900  -1.918  -0.787  -0.543 -0.9062  1.1790  0.2665
   9523SM  H17G12901  -1.890  -0.618  -0.474  2.5295  0.4984  3.9364
   9523SM  C18F12902  -1.778  -0.782  -0.391  0.1395  0.0223  0.3452
   9523SM  H18F12903  -1.707  -0.716  -0.337  1.0477 -0.6247 -0.0366
   9523SM  H18G12904  -1.718  -0.862  -0.441 -1.0309  0.6147 -2.1765
   9523SM  C19F12905  -1.880  -0.862  -0.301 -1.1159  0.3182 -0.5980
   9523SM  H19F12906  -1.825  -0.933  -0.237 -1.2147  0.8039  0.0313
   9523SM  H19G12907  -1.950  -0.912  -0.371 -0.8347  1.2297 -1.5657
   9523SM  C20F12908  -1.974  -0.776  -0.214 -0.4604  0.2514  0.1049
   9523SM  H20F12909  -2.012  -0.697  -0.283  1.7867  1.2942 -0.0269
   9523SM  H20G12910  -1.914  -0.743  -0.127  0.4831 -0.3450 -0.3013
   9523SM  C21F12911  -2.094  -0.844  -0.153 -0.0731  0.2269 -0.2755
   9523SM  H21F12912  -2.049  -0.939  -0.116 -0.1916  0.3463  0.1789
   9523SM  H21G12913  -2.171  -0.874  -0.227  1.5993 -1.4425 -1.4358
   9523SM  C22F12914  -2.156  -0.765  -0.039  0.3713 -0.0212 -0.5698
   9523SM  H22F12915  -2.085  -0.708   0.025 -0.0235  1.0498 -1.0796
   9523SM  H22G12916  -2.215  -0.834   0.025  0.0041  0.8018 -0.0041
   9523SM  C23F12917  -2.254  -0.657  -0.083 -0.2582 -0.1212  0.2504
   9523SM  H23F12918  -2.314  -0.618   0.002  1.1530  3.5393 -0.2079
   9523SM  H23G12919  -2.310  -0.687  -0.175 -1.5936  0.4107  0.8634
   9523SM  H23H12920  -2.204  -0.562  -0.114 -0.0604  0.4650  2.2583
   9623SM     N12921  -2.548  -2.543  -2.875 -0.6980 -0.6232  0.3898
   9623SM   C1512922  -2.473  -2.657  -2.936  0.5312 -0.0854 -0.6292
   9623SM  H15A12923  -2.520  -2.694  -3.026  1.2973 -1.2327 -0.5795
   9623SM  H15B12924  -2.481  -2.736  -2.863 -0.1450 -0.2620 -0.8861
   9623SM  H15C12925  -2.371  -2.636  -2.964  0.2234  0.2829 -1.4986
   9623SM   C1412926  -2.536  -2.441  -2.981  0.0193 -0.2221 -0.0244
   9623SM  H14A12927  -2.559  -2.477  -3.080 -0.1042 -1.2636  0.3660
   9623SM  H14B12928  -2.434  -2.404  -2.984 -0.4807  1.3429  1.0975
   9623SM  H14C12929  -2.598  -2.357  -2.956  1.1893  0.5816  0.2851
   9623SM   C1312930  -2.689  -2.580  -2.861 -0.0259 -0.3600  0.4439
   9623SM  H13A12931  -2.752  -2.495  -2.841 -1.9489 -1.6193  0.0869
   9623SM  H13B12932  -2.699  -2.651  -2.780  1.4508  0.6945  1.5915
   9623SM  H13C12933  -2.725  -2.629  -2.951 -0.6618 -0.0794  0.5359
   9623SM   C1212934  -2.472  -2.502  -2.747  0.0255 -0.0969  0.4795
   9623SM  H12A12935  -2.529  -2.418  -2.710  1.9490  1.5294 -0.0700
   9623SM  H12B12936  -2.375  -2.465  -2.776 -0.5097  2.1432  1.3119
   9623SM   C1112937  -2.446  -2.597  -2.634 -0.4729 -0.3020  0.1335
   9623SM  H11A12938  -2.398  -2.542  -2.551  0.3322 -0.9723  0.1328
   9623SM  H11B12939  -2.371  -2.673  -2.667 -0.9542 -0.1019 -1.5271
   9623SM     P12940  -2.570  -2.758  -2.474  0.4000 -0.2989  0.3842
   9623SM   O1312941  -2.708  -2.796  -2.443 -0.6702 -0.3279  0.4622
   9623SM   O1412942  -2.485  -2.871  -2.509  0.1180 -0.2010  0.3211
   9623SM   O1112943  -2.507  -2.676  -2.346  0.0794  0.0236 -0.3917
   9623SM   O1212944  -2.572  -2.651  -2.595 -0.2141  0.7803 -0.1502
   9623SM   C1S12945  -2.582  -2.571  -2.293  0.8953  0.0656 -0.0262
   9623SM   H1S12946  -2.691  -2.570  -2.317  0.8901  1.2788 -0.0373
   9623SM   H1T12947  -2.547  -2.479  -2.346 -1.0881  0.6016 -0.5045
   9623SM    NF12948  -2.656  -2.440  -2.079  0.4503  0.0793 -0.0664
   9623SM   HNF12949  -2.612  -2.351  -2.067  0.5597  0.5652 -3.1881
   9623SM   C2S12950  -2.568  -2.542  -2.136 -0.0966  0.0304 -0.6304
   9623SM   H2S12951  -2.597  -2.636  -2.085 -0.0453  0.5701  0.4138
   9623SM   C3S12952  -2.415  -2.521  -2.096  0.1297 -1.1350  0.1301
   9623SM   H3S12953  -2.372  -2.435  -2.152 -1.1671  0.5076  1.5416
   9623SM    O312954  -2.340  -2.631  -2.137 -0.4715  0.1472 -0.1499
   9623SM   HO312955  -2.402  -2.669  -2.201  0.0764  2.4720 -2.2400
   9623SM   C4S12956  -2.399  -2.478  -1.954 -0.1542 -0.1138  0.3876
   9623SM   H4S12957  -2.456  -2.388  -1.927  2.4998  1.2918  1.7613
   9623SM   C5S12958  -2.328  -2.539  -1.854  0.2336 -0.3929  0.1010
   9623SM   H5S12959  -2.265  -2.626  -1.875  0.0622  0.1505 -3.1442
   9623SM   C6S12960  -2.326  -2.491  -1.712 -0.4669 -0.1366 -0.0394
   9623SM   H6S12961  -2.223  -2.455  -1.695 -0.1693 -0.5720 -0.8714
   9623SM   H6T12962  -2.366  -2.571  -1.647  0.6711 -1.6865 -1.1708
   9623SM   C7S12963  -2.432  -2.376  -1.668 -0.2529  0.0041  0.0292
   9623SM   H7S12964  -2.536  -2.398  -1.702  0.2464  1.9652 -3.2196
   9623SM   H7T12965  -2.398  -2.283  -1.718  1.8292 -0.0231  1.2789
   9623SM   C8S12966  -2.446  -2.357  -1.520 -0.8375 -0.4131 -0.4123
   9623SM   H8S12967  -2.492  -2.446  -1.473  1.1330  0.3053  3.2128
   9623SM   H8T12968  -2.507  -2.268  -1.494  1.0120  0.7486  0.1022
   9623SM   C9S12969  -2.314  -2.317  -1.445 -1.0535 -0.8765  0.4175
   9623SM   H9S12970  -2.280  -2.215  -1.471 -0.4449 -1.0020  0.7129
   9623SM   H9T12971  -2.237  -2.392  -1.474  1.4675  0.7287  2.5746
   9623SM  C10S12972  -2.320  -2.335  -1.293 -0.2259  0.0439  0.3359
   9623SM  H10S12973  -2.339  -2.445  -1.292  2.7940 -0.6842 -2.4918
   9623SM  H10T12974  -2.410  -2.280  -1.258 -1.6351 -0.2838 -2.4610
   9623SM  C11S12975  -2.179  -2.310  -1.224  0.1229 -0.3184 -0.9207
   9623SM  H11S12976  -2.161  -2.204  -1.249  3.2014 -0.5298 -0.1361
   9623SM  H11T12977  -2.102  -2.384  -1.256 -1.2786 -2.3665  0.1698
   9623SM  C12S12978  -2.191  -2.321  -1.069  0.2265 -0.2638  0.1576
   9623SM  H12S12979  -2.269  -2.252  -1.032  1.1977  1.2176 -0.4578
   9623SM  H12T12980  -2.094  -2.299  -1.019  0.0196  3.5725 -0.8095
   9623SM  C13S12981  -2.241  -2.460  -1.018  0.1355 -0.0193  0.0432
   9623SM  H13S12982  -2.194  -2.542  -1.076 -2.6065 -2.2490  0.7557
   9623SM  H13T12983  -2.351  -2.473  -1.025  0.2194 -0.7087 -0.0773
   9623SM  C14S12984  -2.211  -2.477  -0.870  0.5213  0.1422  0.0654
   9623SM  H14S12985  -2.102  -2.499  -0.864  0.7439  0.2382 -2.5523
   9623SM  H14T12986  -2.269  -2.565  -0.833  0.0974 -0.6816 -2.3719
   9623SM  C15S12987  -2.229  -2.358  -0.776 -0.8658  0.0468 -0.8052
   9623SM  H15S12988  -2.331  -2.314  -0.773 -0.2602  1.4561  0.8196
   9623SM  H15T12989  -2.157  -2.280  -0.808  0.3413 -1.1032 -0.9871
   9623SM  C16S12990  -2.201  -2.392  -0.629  0.5609 -0.3034 -0.4666
   9623SM  H16S12991  -2.103  -2.443  -0.619  1.2111  1.1531  0.9641
   9623SM  H16T12992  -2.284  -2.444  -0.577 -0.1140 -2.0969 -3.1243
   9623SM  C17S12993  -2.168  -2.258  -0.559 -0.2277  0.2425  0.0691
   9623SM  H17S12994  -2.247  -2.186  -0.587  1.4375  2.7771  1.4362
   9623SM  H17T12995  -2.064  -2.234  -0.590  0.7589 -2.8567  0.6298
   9623SM  C18S12996  -2.152  -2.284  -0.411  0.4437 -0.5691 -0.5138
   9623SM  H18S12997  -2.252  -2.297  -0.364  1.1525  1.8889  1.9446
   9623SM  H18T12998  -2.114  -2.191  -0.364 -1.2409 -0.7561  1.3679
   9623SM  H18U12999  -2.081  -2.366  -0.388  1.3785  0.5082  0.5350
   9623SM   C1F13000  -2.788  -2.451  -2.074  0.8762  0.3893  0.5959
   9623SM    OF13001  -2.847  -2.554  -2.098 -0.0571 -0.2186 -0.4566
   9623SM   C2F13002  -2.866  -2.336  -2.025  0.8413  0.2412  0.6029
   9623SM   H2F13003  -2.945  -2.322  -2.102 -0.2827 -3.2115  0.9861
   9623SM   H2G13004  -2.798  -2.248  -2.032  2.4608 -1.0557 -1.4020
   9623SM   C3F13005  -2.938  -2.369  -1.894 -0.3606  0.0155 -0.1867
   9623SM   H3F13006  -2.983  -2.469  -1.908  1.2484 -0.5541 -1.6405
   9623SM   H3G13007  -3.016  -2.291  -1.883  0.3806  0.4955  2.8305
   9623SM   C4F13008  -2.844  -2.365  -1.775 -0.8677  0.3688 -0.0845
   9623SM   H4F13009  -2.773  -2.280  -1.777 -0.6402  0.1821 -0.1076
   9623SM   H4G13010  -2.801  -2.468  -1.782 -0.3923  0.6102 -0.9758
   9623SM   C5F13011  -2.914  -2.359  -1.636  0.4884  0.5100 -0.1796
   9623SM   H5F13012  -2.981  -2.447  -1.623  0.8444  0.1879 -0.5103
   9623SM   H5G13013  -2.975  -2.267  -1.621  1.0971  0.8979 -0.0808
   9623SM   C6F13014  -2.816  -2.360  -1.514  0.6456 -0.0879 -0.0962
   9623SM   H6F13015  -2.762  -2.263  -1.513 -0.5361  0.6154 -0.9811
   9623SM   H6G13016  -2.743  -2.442  -1.529  0.0536 -0.4674 -1.0263
   9623SM   C7F13017  -2.893  -2.381  -1.382  0.0949 -0.1328 -0.4596
   9623SM   H7F13018  -2.964  -2.465  -1.396  0.9326 -0.7950 -0.7919
   9623SM   H7G13019  -2.965  -2.298  -1.364 -0.0213 -0.2476 -0.3941
   9623SM   C8F13020  -2.795  -2.404  -1.263 -0.5653 -0.2830  0.1331
   9623SM   H8F13021  -2.719  -2.485  -1.266 -0.9127 -0.6227  0.4385
   9623SM   H8G13022  -2.857  -2.438  -1.178  0.4722 -0.2090  0.9512
   9623SM   C9F13023  -2.722  -2.275  -1.225  0.1943  0.0746  0.3641
   9623SM   H9F13024  -2.794  -2.204  -1.179 -1.6751 -0.7671 -1.1087
   9623SM   H9G13025  -2.663  -2.242  -1.314  0.9860 -0.5595  0.6427
   9623SM  C10F13026  -2.620  -2.305  -1.109 -0.3316 -0.1783  0.2122
   9623SM  H10F13027  -2.546  -2.221  -1.110  0.1965 -0.5792  2.0092
   9623SM  H10G13028  -2.563  -2.400  -1.122 -0.1019  0.2212 -2.1556
   9623SM  C11F13029  -2.684  -2.323  -0.971 -0.3245 -0.7215  0.4816
   9623SM  H11F13030  -2.728  -2.424  -0.982  1.3590 -1.5442  0.9354
   9623SM  H11G13031  -2.760  -2.244  -0.953  2.3926  2.0470  0.6676
   9623SM  C12F13032  -2.582  -2.322  -0.852  0.1840 -0.1489 -0.3250
   9623SM  H12F13033  -2.510  -2.239  -0.868  0.6644 -0.5426 -0.2247
   9623SM  H12G13034  -2.517  -2.411  -0.866  1.3439  1.1092 -4.3451
   9623SM  C13F13035  -2.640  -2.304  -0.711  0.0184  0.2766 -0.0760
   9623SM  H13F13036  -2.696  -2.397  -0.685 -1.1963  0.5241 -1.6694
   9623SM  H13G13037  -2.716  -2.224  -0.722 -1.0683 -0.4171  1.8833
   9623SM  C14F13038  -2.536  -2.270  -0.608 -0.3846 -0.1308 -0.3470
   9623SM  H14F13039  -2.463  -2.197  -0.647 -1.1019  1.0472  0.4436
   9623SM  H14G13040  -2.485  -2.368  -0.595 -0.3350 -0.0274  0.2688
   9623SM  C15F13041  -2.602  -2.221  -0.483  0.2261 -0.3935  0.2272
   9623SM  H15F13042  -2.683  -2.286  -0.443  0.5768  0.1983  1.9760
   9623SM  H15G13043  -2.639  -2.118  -0.503  1.9141  0.4735  1.3422
   9623SM  C16F13044  -2.505  -2.194  -0.370  0.1267 -0.6872 -0.3873
   9623SM  H16F13045  -2.435  -2.115  -0.404  1.1820 -1.4043  0.0650
   9623SM  H16G13046  -2.436  -2.274  -0.337  2.1204  1.6553  1.4992
   9623SM  C17F13047  -2.581  -2.137  -0.244 -0.5160 -0.0643  0.2404
   9623SM  H17F13048  -2.673  -2.089  -0.283  0.9546  1.8161 -1.0696
   9623SM  H17G13049  -2.519  -2.056  -0.199  0.6109 -0.2187 -0.9892
   9623SM  C18F13050  -2.607  -2.235  -0.134 -0.8362  0.2325  0.3634
   9623SM  H18F13051  -2.515  -2.285  -0.097  0.3426  1.4044 -0.8578
   9623SM  H18G13052  -2.681  -2.308  -0.173 -1.7089  0.6113  1.2695
   9623SM  C19F13053  -2.670  -2.169  -0.004  0.1782  0.6215 -0.1989
   9623SM  H19F13054  -2.755  -2.103  -0.032 -2.3081 -2.4252 -0.3104
   9623SM  H19G13055  -2.593  -2.104   0.044  0.4632  0.2844 -0.1981
   9623SM  C20F13056  -2.706  -2.279   0.103 -0.2292 -0.6045 -0.1713
   9623SM  H20F13057  -2.729  -2.238   0.203 -0.3139  0.7869 -0.7415
   9623SM  H20G13058  -2.626  -2.356   0.101 -1.7793 -2.3298  0.2877
   9623SM  C21F13059  -2.839  -2.357   0.089  0.0362 -0.6210 -0.0338
   9623SM  H21F13060  -2.839  -2.422  -0.002 -0.4005  0.4041 -0.7894
   9623SM  H21G13061  -2.921  -2.283   0.081 -0.3089 -1.0370 -0.4408
   9623SM  C22F13062  -2.870  -2.433   0.218 -0.1344 -0.5984  0.7111
   9623SM  H22F13063  -2.878  -2.354   0.296  2.2100  0.1501  0.2735
   9623SM  H22G13064  -2.788  -2.501   0.253  0.3111 -1.0585 -1.1435
   9623SM  C23F13065  -3.002  -2.508   0.200  0.1074 -0.0563  0.3044
   9623SM  H23F13066  -3.045  -2.553   0.292  0.3539  0.5500  0.7304
   9623SM  H23G13067  -2.981  -2.590   0.129 -0.5096 -0.8748  1.0524
   9623SM  H23H13068  -3.085  -2.449   0.155  0.2658  0.7102  0.9899
   9723SM     N13069  -0.595  -2.305  -2.182 -0.1062  0.5043 -0.3074
   9723SM   C1513070  -0.652  -2.421  -2.264 -0.1842 -0.4410  0.4507
   9723SM  H15A13071  -0.586  -2.452  -2.343  1.0606  0.6673  1.0201
   9723SM  H15B13072  -0.752  -2.393  -2.295 -0.0686 -1.2936 -0.7450
   9723SM  H15C13073  -0.653  -2.503  -2.194 -1.4144 -1.9883 -1.2830
   9723SM   C1413074  -0.585  -2.185  -2.275 -0.5553 -0.0676  0.3157
   9723SM  H14A13075  -0.513  -2.193  -2.355 -1.2490 -0.6178 -0.2599
   9723SM  H14B13076  -0.561  -2.093  -2.222  0.4924  1.0387 -1.9564
   9723SM  H14C13077  -0.678  -2.171  -2.327  0.8872  0.3304 -2.2826
   9723SM   C1313078  -0.691  -2.268  -2.073 -0.4908  0.6122 -0.4395
   9723SM  H13A13079  -0.647  -2.185  -2.020  1.5371 -0.2106 -0.7201
   9723SM  H13B13080  -0.712  -2.355  -2.013  0.6154  0.8237  0.2869
   9723SM  H13C13081  -0.787  -2.232  -2.105 -1.2723 -0.0263  1.0536
   9723SM   C1213082  -0.474  -2.339  -2.108 -0.4815  0.4422 -0.4319
   9723SM  H12A13083  -0.434  -2.251  -2.060 -1.0270  1.2039 -1.3166
   9723SM  H12B13084  -0.396  -2.366  -2.177  1.9193  1.5243  1.7333
   9723SM   C1113085  -0.481  -2.452  -2.007 -0.4702  0.3907  0.2626
   9723SM  H11A13086  -0.556  -2.442  -1.926 -1.4142 -1.2159 -0.3691
   9723SM  H11B13087  -0.387  -2.445  -1.947 -0.3661  1.4807 -0.0191
   9723SM     P13088  -0.391  -2.655  -2.130 -0.1171  0.3623 -0.0587
   9723SM   O1313089  -0.443  -2.746  -2.236  0.0098 -0.1546 -0.4648
   9723SM   O1413090  -0.275  -2.567  -2.155  0.1438 -0.9731 -0.0195
   9723SM   O1113091  -0.360  -2.758  -2.011  0.4562 -0.0757  0.1503
   9723SM   O1213092  -0.513  -2.578  -2.071 -0.2031  0.0207  0.1713
   9723SM   C1S13093  -0.282  -2.713  -1.908  0.5180  0.3285 -0.6590
   9723SM   H1S13094  -0.244  -2.609  -1.908  3.4062 -0.6301  0.4712
   9723SM   H1T13095  -0.190  -2.776  -1.910  0.7541  0.6514 -0.3124
   9723SM    NF13096  -0.267  -2.659  -1.658  0.4153  0.3921 -0.5214
   9723SM   HNF13097  -0.234  -2.709  -1.579 -1.8497 -1.3025 -0.5293
   9723SM   C2S13098  -0.344  -2.729  -1.768  0.5297  0.6202 -0.5888
   9723SM   H2S13099  -0.441  -2.677  -1.781 -1.3502 -2.7512 -1.2032
   9723SM   C3S13100  -0.390  -2.867  -1.737 -0.1840  1.0055 -0.1578
   9723SM   H3S13101  -0.302  -2.933  -1.720 -0.5358  0.1882 -1.3438
   9723SM    O313102  -0.471  -2.934  -1.830  0.2403  0.0835  0.0196
   9723SM   HO313103  -0.474  -2.880  -1.908  0.5650  0.1258  0.0360
   9723SM   C4S13104  -0.476  -2.855  -1.615 -0.4783  0.0434 -0.1834
   9723SM   H4S13105  -0.574  -2.807  -1.632  0.1875  1.4621 -0.1108
   9723SM   C5S13106  -0.447  -2.915  -1.496 -0.4926  0.4248  0.0110
   9723SM   H5S13107  -0.355  -2.971  -1.477 -0.2199  1.7840  3.3558
   9723SM   C6S13108  -0.547  -2.912  -1.382  0.1955 -0.2078 -0.6740
   9723SM   H6S13109  -0.634  -2.980  -1.388 -0.6892  0.9205 -0.9591
   9723SM   H6T13110  -0.595  -2.812  -1.376 -1.5056 -1.0071 -0.6239
   9723SM   C7S13111  -0.478  -2.924  -1.246 -0.5761 -0.2138 -0.0832
   9723SM   H7S13112  -0.433  -3.025  -1.255 -2.3840 -1.0545 -0.3609
   9723SM   H7T13113  -0.557  -2.920  -1.168 -1.7243  0.2632 -1.2126
   9723SM   C8S13114  -0.376  -2.824  -1.219  0.2872 -1.1220 -1.0767
   9723SM   H8S13115  -0.425  -2.729  -1.248 -1.1817 -1.0863  1.2419
   9723SM   H8T13116  -0.294  -2.845  -1.291  0.3778  1.5754 -1.8550
   9723SM   C9S13117  -0.343  -2.823  -1.068 -0.1589 -0.4725  0.4798
   9723SM   H9S13118  -0.314  -2.925  -1.035 -1.7693 -1.4107 -0.8411
   9723SM   H9T13119  -0.436  -2.787  -1.019 -0.1816 -0.1058  0.1717
   9723SM  C10S13120  -0.224  -2.722  -1.056 -0.0790 -0.2955  0.2077
   9723SM  H10S13121  -0.244  -2.624  -1.105 -0.9029  0.1140  1.3161
   9723SM  H10T13122  -0.135  -2.761  -1.110  0.9135  0.0133  1.5711
   9723SM  C11S13123  -0.181  -2.718  -0.913 -0.6954  0.9895  0.5636
   9723SM  H11S13124  -0.082  -2.668  -0.907 -0.2273  0.3478 -1.2916
   9723SM  H11T13125  -0.179  -2.819  -0.865 -0.6617  0.9265  0.4303
   9723SM  C12S13126  -0.272  -2.639  -0.821  0.0366 -0.4151 -0.1425
   9723SM  H12S13127  -0.373  -2.686  -0.823 -0.1724 -0.5570  4.3082
   9723SM  H12T13128  -0.280  -2.532  -0.849  1.2028 -0.1369  0.5198
   9723SM  C13S13129  -0.233  -2.653  -0.671 -0.1086  0.5197 -0.4914
   9723SM  H13S13130  -0.134  -2.603  -0.659  0.4160 -0.5115 -0.3947
   9723SM  H13T13131  -0.199  -2.759  -0.667  0.4404  0.7045 -0.2546
   9723SM  C14S13132  -0.346  -2.621  -0.577 -0.1846 -0.8783 -0.1901
   9723SM  H14S13133  -0.430  -2.689  -0.605  0.4195 -1.4851 -0.5677
   9723SM  H14T13134  -0.383  -2.517  -0.583  1.6921 -0.1002  0.7912
   9723SM  C15S13135  -0.290  -2.622  -0.436 -0.4498  0.4415 -0.1568
   9723SM  H15S13136  -0.224  -2.533  -0.425 -1.2600  0.9879  0.4785
   9723SM  H15T13137  -0.218  -2.705  -0.423  0.7223  1.3732 -0.5860
   9723SM  C16S13138  -0.384  -2.604  -0.319 -0.2597  1.0939 -0.0113
   9723SM  H16S13139  -0.450  -2.515  -0.330 -2.2485 -0.3193 -0.1086
   9723SM  H16T13140  -0.324  -2.584  -0.229 -0.4901  0.3147  0.3270
   9723SM  C17S13141  -0.462  -2.730  -0.276  0.0477 -0.4036 -0.1317
   9723SM  H17S13142  -0.525  -2.762  -0.362  0.8442 -0.1353 -0.8251
   9723SM  H17T13143  -0.529  -2.699  -0.193 -1.2303 -1.4419 -0.7269
   9723SM  C18S13144  -0.367  -2.845  -0.251  0.5597  0.1101 -0.3260
   9723SM  H18S13145  -0.311  -2.886  -0.338  0.6770 -1.1634  0.3278
   9723SM  H18T13146  -0.427  -2.929  -0.210  0.0772  0.3945 -0.4409
   9723SM  H18U13147  -0.289  -2.811  -0.179  2.1584  2.6117 -3.0232
   9723SM   C1F13148  -0.239  -2.530  -1.670 -0.1974  0.2700 -0.3476
   9723SM    OF13149  -0.309  -2.452  -1.721  0.4668  0.1781  0.6963
   9723SM   C2F13150  -0.111  -2.487  -1.612 -0.1539  0.6654 -0.6570
   9723SM   H2F13151  -0.064  -2.412  -1.679  0.1257  1.7731  0.7257
   9723SM   H2G13152  -0.046  -2.577  -1.602  0.0429  0.9540  1.0196
   9723SM   C3F13153  -0.115  -2.448  -1.458 -0.4492 -0.4707 -0.1483
   9723SM   H3F13154  -0.144  -2.545  -1.413 -2.9477  0.9964  1.6339
   9723SM   H3G13155  -0.191  -2.371  -1.432  1.1043  0.9002  0.4429
   9723SM   C4F13156   0.027  -2.412  -1.407 -0.8712 -0.0324  0.0088
   9723SM   H4F13157   0.056  -2.312  -1.444  1.2130  0.7319  3.2915
   9723SM   H4G13158   0.106  -2.484  -1.438 -0.1913  0.0773  1.4009
   9723SM   C5F13159   0.027  -2.388  -1.252  0.1438 -0.2945  0.4373
   9723SM   H5F13160   0.126  -2.349  -1.220  0.2880  0.1777 -0.5588
   9723SM   H5G13161   0.014  -2.485  -1.198  2.1663 -2.1413 -2.1321
   9723SM   C6F13162  -0.082  -2.284  -1.212 -0.0961 -0.1982  0.1880
   9723SM   H6F13163  -0.183  -2.330  -1.217 -0.3173 -0.3263  3.3472
   9723SM   H6G13164  -0.075  -2.202  -1.287 -2.2083 -1.1020 -1.0701
   9723SM   C7F13165  -0.067  -2.234  -1.068 -0.1102 -0.4937  0.1628
   9723SM   H7F13166  -0.132  -2.144  -1.057  0.2325 -0.1046 -0.8681
   9723SM   H7G13167   0.038  -2.199  -1.063  0.2089 -1.4089 -0.1408
   9723SM   C8F13168  -0.124  -2.330  -0.959  0.2351 -0.2927 -0.0877
   9723SM   H8F13169  -0.082  -2.431  -0.980 -0.4446 -0.4287 -0.8437
   9723SM   H8G13170  -0.233  -2.339  -0.978  0.4462 -3.4952 -0.3656
   9723SM   C9F13171  -0.096  -2.274  -0.819  0.1902  0.2875  0.2954
   9723SM   H9F13172  -0.155  -2.338  -0.749  1.7049 -1.9195 -0.3203
   9723SM   H9G13173  -0.137  -2.171  -0.814  2.7708  1.4046 -0.0129
   9723SM  C10F13174   0.056  -2.286  -0.777  0.3563 -0.3493  0.6200
   9723SM  H10F13175   0.111  -2.205  -0.831  0.6256  0.2281  1.7437
   9723SM  H10G13176   0.084  -2.389  -0.808 -0.8074 -0.7544  0.8762
   9723SM  C11F13177   0.091  -2.249  -0.637 -0.6703 -0.4117 -0.0890
   9723SM  H11F13178   0.027  -2.160  -0.619  0.4125  0.3994 -0.1209
   9723SM  H11G13179   0.199  -2.222  -0.638 -0.7161 -0.2469 -0.7139
   9723SM  C12F13180   0.056  -2.356  -0.535 -0.1115 -0.1219 -0.6508
   9723SM  H12F13181   0.100  -2.451  -0.572 -0.7498 -0.3780 -0.7780
   9723SM  H12G13182  -0.053  -2.364  -0.515 -0.5606  0.8116 -2.5558
   9723SM  C13F13183   0.131  -2.332  -0.405  0.2997  0.4189 -0.3853
   9723SM  H13F13184   0.235  -2.298  -0.422  0.8319 -1.7062 -1.7949
   9723SM  H13G13185   0.150  -2.430  -0.357  0.5728  0.8203  0.3367
   9723SM  C14F13186   0.053  -2.240  -0.314  0.0462  0.3181  0.3093
   9723SM  H14F13187  -0.044  -2.286  -0.287 -1.7126  1.2442 -3.6346
   9723SM  H14G13188   0.028  -2.146  -0.367  3.2773  0.2320 -1.6812
   9723SM  C15F13189   0.127  -2.193  -0.188 -0.0590  0.1867  0.9849
   9723SM  H15F13190   0.219  -2.136  -0.212 -0.8082  1.3616  0.8218
   9723SM  H15G13191   0.165  -2.282  -0.133  1.2874 -0.1900 -0.4507
   9723SM  C16F13192   0.035  -2.112  -0.092  0.4865  0.4520  0.1302
   9723SM  H16F13193  -0.007  -2.029  -0.153 -0.1141  1.8410  2.3035
   9723SM  H16G13194   0.097  -2.064  -0.013 -0.2599 -1.5791  2.0407
   9723SM  C17F13195  -0.081  -2.191  -0.018 -0.4115  0.2902 -0.0528
   9723SM  H17F13196  -0.107  -2.126   0.067 -0.0732 -0.4019  0.5917
   9723SM  H17G13197  -0.044  -2.288   0.022 -0.6658 -0.8141 -2.2816
   9723SM  C18F13198  -0.210  -2.223  -0.098  0.8225  0.3641  0.2120
   9723SM  H18F13199  -0.199  -2.302  -0.176 -1.1035  1.0623 -0.8238
   9723SM  H18G13200  -0.242  -2.140  -0.165  2.5310  1.3373  0.5413
   9723SM  C19F13201  -0.331  -2.275  -0.012  0.7271  0.2141  0.3298
   9723SM  H19F13202  -0.412  -2.268  -0.088  1.3873  0.6178 -0.3596
   9723SM  H19G13203  -0.348  -2.202   0.069  2.6113 -0.7012  1.6213
   9723SM  C20F13204  -0.325  -2.415   0.043 -0.0526 -0.6246 -0.9944
   9723SM  H20F13205  -0.224  -2.437   0.082 -0.8441 -0.3182  1.3608
   9723SM  H20G13206  -0.347  -2.481  -0.044 -2.7387  0.0786 -0.9567
   9723SM  C21F13207  -0.434  -2.453   0.149 -0.4275 -0.2597  0.0788
   9723SM  H21F13208  -0.423  -2.371   0.222 -2.0053  0.0514  0.0048
   9723SM  H21G13209  -0.413  -2.548   0.202 -1.8021 -1.1734 -0.9199
   9723SM  C22F13210  -0.571  -2.447   0.085  0.0785  0.0197  0.4185
   9723SM  H22F13211  -0.584  -2.525   0.008  1.1867  1.0992 -0.9132
   9723SM  H22G13212  -0.581  -2.355   0.025 -3.1958  0.9193  2.1208
   9723SM  C23F13213  -0.672  -2.446   0.205  0.4320  0.3829 -0.5952
   9723SM  H23F13214  -0.652  -2.530   0.275  0.6616  0.3873 -0.6527
   9723SM  H23G13215  -0.771  -2.450   0.155 -0.5943 -1.5662  1.4187
   9723SM  H23H13216  -0.662  -2.351   0.261  2.2235  1.4776 -2.6306
   9823SM     N13217   1.987   3.143  -2.518  0.3467  0.4941  0.7698
   9823SM   C1513218   2.092   3.201  -2.425  0.3958  0.2390 -0.2362
   9823SM  H15A13219   2.187   3.200  -2.477  0.2898 -1.4456 -0.4423
   9823SM  H15B13220   2.098   3.139  -2.337 -2.0080 -1.9092 -1.4628
   9823SM  H15C13221   2.064   3.299  -2.388  2.0919  0.8550 -0.4993
   9823SM   C1413222   1.964   3.228  -2.643 -0.0348 -0.1198  0.8317
   9823SM  H14A13223   2.054   3.257  -2.694 -0.2200  0.1566  0.6586
   9823SM  H14B13224   1.912   3.322  -2.628  0.5266  0.8083 -2.2846
   9823SM  H14C13225   1.902   3.178  -2.716  2.9178 -3.0598  0.1335
   9823SM   C1313226   2.056   3.013  -2.568  0.0597 -0.5877  0.0320
   9823SM  H13A13227   2.090   2.955  -2.484 -0.5184 -2.3582 -0.9068
   9823SM  H13B13228   2.144   3.036  -2.625  0.5245  4.3020  2.2099
   9823SM  H13C13229   1.975   2.958  -2.614  0.0819  0.3940 -1.2405
   9823SM   C1213230   1.859   3.115  -2.439  0.1301  0.4418  0.4039
   9823SM  H12A13231   1.816   3.210  -2.411 -0.0333  0.5644 -0.2540
   9823SM  H12B13232   1.878   3.066  -2.344 -2.5185 -1.0341  0.2697
   9823SM   C1113233   1.745   3.029  -2.509 -0.3257  0.3722 -0.6971
   9823SM  H11A13234   1.704   3.069  -2.604  0.0324  0.3760 -0.8515
   9823SM  H11B13235   1.649   3.024  -2.453 -0.1199  1.4063 -0.2360
   9823SM     P13236   1.834   2.781  -2.447  0.2574  0.1502 -0.0507
   9823SM   O1313237   1.720   2.691  -2.415  0.2855  0.2358  0.3893
   9823SM   O1413238   1.957   2.716  -2.503  0.3212 -0.3823 -0.4008
   9823SM   O1113239   1.877   2.860  -2.305 -0.4113 -0.3128 -0.2320
   9823SM   O1213240   1.779   2.893  -2.543 -0.2196  0.1379  0.0243
   9823SM   C1S13241   1.774   2.882  -2.205 -0.5525  0.7087  0.7308
   9823SM   H1S13242   1.685   2.815  -2.209 -0.7070  0.8817  1.2540
   9823SM   H1T13243   1.726   2.980  -2.228  1.6255  1.5070 -0.8088
   9823SM    NF13244   1.732   2.876  -1.956  0.6476 -0.0912  0.0469
   9823SM   HNF13245   1.713   2.963  -1.911 -1.3326  0.3273 -1.4755
   9823SM   C2S13246   1.836   2.882  -2.060 -0.1515 -0.3102  0.0794
   9823SM   H2S13247   1.888   2.784  -2.058 -0.2575 -0.5182 -3.0188
   9823SM   C3S13248   1.937   2.998  -2.037  0.1473 -0.6923  0.2045
   9823SM   H3S13249   1.881   3.095  -2.038  1.4326  0.0768  0.6259
   9823SM    O313250   2.026   3.017  -2.144  0.0816  0.1460 -0.4865
   9823SM   HO313251   2.017   2.956  -2.218  1.9512 -1.6088  0.6136
   9823SM   C4S13252   2.001   2.983  -1.899  0.1032 -1.0193 -0.1885
   9823SM   H4S13253   1.939   3.025  -1.818  1.8164 -0.6183  0.9657
   9823SM   C5S13254   2.117   2.928  -1.875  0.4601 -1.2491  0.2924
   9823SM   H5S13255   2.166   2.882  -1.962  0.2657 -1.1476  0.1290
   9823SM   C6S13256   2.189   2.916  -1.746  0.3188 -0.2341 -0.0206
   9823SM   H6S13257   2.296   2.895  -1.768  0.3082 -0.1012 -0.1984
   9823SM   H6T13258   2.153   2.820  -1.705  0.5332 -0.7693 -1.0404
   9823SM   C7S13259   2.174   3.023  -1.638 -0.4827  0.6967  0.2436
   9823SM   H7S13260   2.069   3.040  -1.606 -1.6409 -1.4061 -2.1087
   9823SM   H7T13261   2.201   3.114  -1.696  1.5193 -0.3839 -0.6012
   9823SM   C8S13262   2.267   3.001  -1.518 -0.3653  0.2308  0.2780
   9823SM   H8S13263   2.265   3.087  -1.448  1.3560  0.5002  0.0402
   9823SM   H8T13264   2.370   2.995  -1.557  0.6400  0.7365  2.6595
   9823SM   C9S13265   2.227   2.878  -1.434 -0.6210 -0.4053 -0.6314
   9823SM   H9S13266   2.253   2.773  -1.461 -2.8885 -1.0358 -0.5082
   9823SM   H9T13267   2.117   2.882  -1.424 -0.5799  3.0041 -0.6308
   9823SM  C10S13268   2.273   2.891  -1.284 -0.2796  0.0002  0.0874
   9823SM  H10S13269   2.284   2.998  -1.257 -0.1645  0.2701 -0.9935
   9823SM  H10T13270   2.371   2.839  -1.277 -0.0040  0.2515 -1.5988
   9823SM  C11S13271   2.178   2.810  -1.187  0.5479 -0.1454  0.7614
   9823SM  H11S13272   2.175   2.706  -1.227 -0.8478 -1.2223  3.3926
   9823SM  H11T13273   2.073   2.844  -1.194  0.7761  0.9684  2.1829
   9823SM  C12S13274   2.233   2.816  -1.042 -0.1872 -0.1846 -0.5963
   9823SM  H12S13275   2.234   2.919  -0.999  0.9286  0.2231 -1.5338
   9823SM  H12T13276   2.339   2.785  -1.055 -0.7659 -2.3460 -0.5065
   9823SM  C13S13277   2.160   2.723  -0.951 -0.2751 -0.0821  0.7388
   9823SM  H13S13278   2.139   2.626  -1.001  0.5817  0.1702 -0.1398
   9823SM  H13T13279   2.060   2.768  -0.935 -0.7148 -0.0734 -1.6386
   9823SM  C14S13280   2.235   2.696  -0.821 -0.2469 -0.2458 -0.2184
   9823SM  H14S13281   2.273   2.794  -0.787 -0.9766 -0.3078  0.8259
   9823SM  H14T13282   2.331   2.649  -0.852 -0.5347 -1.1187  0.1762
   9823SM  C15S13283   2.157   2.623  -0.718  0.0109  0.4302 -0.3757
   9823SM  H15S13284   2.150   2.516  -0.749  1.4884  0.6941 -1.7813
   9823SM  H15T13285   2.053   2.659  -0.701 -0.0328 -0.5083  1.5825
   9823SM  C16S13286   2.235   2.610  -0.579  0.0323  0.0910 -0.4750
   9823SM  H16S13287   2.244   2.713  -0.540  2.1788  0.1600 -1.0444
   9823SM  H16T13288   2.335   2.563  -0.588 -0.1247 -0.3116 -0.1520
   9823SM  C17S13289   2.152   2.528  -0.473  0.5403  0.2738 -0.4853
   9823SM  H17S13290   2.048   2.567  -0.482  0.2655 -0.7385 -1.9734
   9823SM  H17T13291   2.194   2.562  -0.376  2.8673 -0.9950 -0.9877
   9823SM  C18S13292   2.141   2.375  -0.487  0.1978  0.0638  0.1175
   9823SM  H18S13293   2.096   2.318  -0.402 -2.1426 -0.5463 -1.4361
   9823SM  H18T13294   2.243   2.334  -0.503  0.8409  0.7708  2.0890
   9823SM  H18U13295   2.079   2.352  -0.576 -0.0994 -1.1596  0.6166
   9823SM   C1F13296   1.654   2.770  -1.929 -0.1274 -0.7571 -0.1219
   9823SM    OF13297   1.686   2.664  -1.979  0.2733  0.1530  0.5819
   9823SM   C2F13298   1.537   2.789  -1.851  0.1410  0.4726  0.1272
   9823SM   H2F13299   1.512   2.897  -1.849 -0.3159  0.3593  1.1579
   9823SM   H2G13300   1.560   2.756  -1.748  0.8118 -0.3621 -0.2806
   9823SM   C3F13301   1.416   2.724  -1.904  0.3484 -0.1455  0.0350
   9823SM   H3F13302   1.428   2.614  -1.911 -2.9721 -0.5748 -1.2605
   9823SM   H3G13303   1.398   2.758  -2.009  0.6798  1.4808  0.4748
   9823SM   C4F13304   1.283   2.767  -1.828  0.5219 -0.1351  0.6481
   9823SM   H4F13305   1.203   2.715  -1.884  1.4686 -0.8270 -0.0974
   9823SM   H4G13306   1.282   2.878  -1.837 -0.9007 -0.2334 -0.8950
   9823SM   C5F13307   1.259   2.742  -1.674  0.0748 -0.9927  0.1897
   9823SM   H5F13308   1.346   2.770  -1.612 -0.7574 -1.8804  1.8114
   9823SM   H5G13309   1.238   2.636  -1.651 -0.8954 -0.5694  1.3549
   9823SM   C6F13310   1.138   2.826  -1.633 -0.2045  0.1419  0.0253
   9823SM   H6F13311   1.053   2.817  -1.705 -0.4294  1.6078  0.0775
   9823SM   H6G13312   1.178   2.929  -1.622  0.5321  0.1808 -2.4506
   9823SM   C7F13313   1.078   2.759  -1.505 -0.2315 -0.7887  0.0310
   9823SM   H7F13314   1.085   2.648  -1.503  1.6614 -0.7052 -0.0122
   9823SM   H7G13315   0.975   2.799  -1.505 -0.2578 -0.7615  2.0952
   9823SM   C8F13316   1.144   2.802  -1.371 -0.0865  0.2854 -0.6961
   9823SM   H8F13317   1.134   2.913  -1.363  1.9651  0.6379 -2.1084
   9823SM   H8G13318   1.252   2.776  -1.373  0.2441  1.4165  0.6173
   9823SM   C9F13319   1.081   2.732  -1.255 -0.0521  0.0485 -0.1461
   9823SM   H9F13320   1.086   2.623  -1.273  0.4205  0.0617 -0.0995
   9823SM   H9G13321   0.972   2.757  -1.257 -0.0087  0.3054  0.4727
   9823SM  C10F13322   1.144   2.767  -1.119 -0.5495 -0.2989  0.3851
   9823SM  H10F13323   1.082   2.853  -1.087 -0.7173  0.2174 -1.2168
   9823SM  H10G13324   1.248   2.808  -1.127 -1.3272  2.0052  1.2692
   9823SM  C11F13325   1.128   2.642  -1.037 -0.4776 -0.0588  0.1459
   9823SM  H11F13326   1.190   2.562  -1.083 -0.5573  0.6994 -1.3160
   9823SM  H11G13327   1.020   2.616  -1.037 -1.4057  3.2944 -0.6248
   9823SM  C12F13328   1.159   2.660  -0.886 -0.1618 -0.4407  0.4615
   9823SM  H12F13329   1.083   2.723  -0.836 -1.3993 -0.8724 -0.8192
   9823SM  H12G13330   1.258   2.711  -0.881 -0.0144 -0.4950 -1.3929
   9823SM  C13F13331   1.170   2.522  -0.825 -0.0696 -0.4898 -0.7014
   9823SM  H13F13332   1.241   2.461  -0.884 -0.8164 -0.6852 -1.4271
   9823SM  H13G13333   1.081   2.456  -0.830  0.7542 -1.5556 -2.0926
   9823SM  C14F13334   1.226   2.531  -0.685  0.1511  0.3503  0.1301
   9823SM  H14F13335   1.182   2.611  -0.622 -2.1306 -1.5057  1.0446
   9823SM  H14G13336   1.332   2.564  -0.695  0.9711 -2.1335 -0.0584
   9823SM  C15F13337   1.218   2.401  -0.611 -0.3656 -0.2997 -0.5536
   9823SM  H15F13338   1.243   2.308  -0.666 -0.2499 -0.1299 -0.7880
   9823SM  H15G13339   1.111   2.387  -0.582 -0.2144  1.8850  1.3274
   9823SM  C16F13340   1.298   2.405  -0.480 -0.3881 -0.0448  0.9136
   9823SM  H16F13341   1.274   2.495  -0.418 -0.2738  1.7673 -1.5133
   9823SM  H16G13342   1.407   2.401  -0.501 -0.5624 -1.5701  0.1632
   9823SM  C17F13343   1.269   2.275  -0.396  0.0673  0.3788 -0.3797
   9823SM  H17F13344   1.314   2.185  -0.444  1.0421  0.0490  1.0690
   9823SM  H17G13345   1.158   2.268  -0.391  0.1708 -0.8456  1.1012
   9823SM  C18F13346   1.313   2.286  -0.247 -0.1498 -0.0090 -0.5339
   9823SM  H18F13347   1.269   2.369  -0.188  0.1684 -1.1341  1.3759
   9823SM  H18G13348   1.422   2.303  -0.247 -0.1434 -0.0511 -0.6616
   9823SM  C19F13349   1.295   2.154  -0.178 -0.5155 -0.4907 -0.5157
   9823SM  H19F13350   1.363   2.081  -0.226 -0.1978 -1.0802  0.7713
   9823SM  H19G13351   1.189   2.120  -0.188 -0.5074 -0.9722  0.7444
   9823SM  C20F13352   1.330   2.150  -0.026 -0.8306 -0.1302  0.0986
   9823SM  H20F13353   1.237   2.159   0.036  0.2047 -2.7823  2.2607
   9823SM  H20G13354   1.409   2.224  -0.002 -0.8596 -0.0637 -0.0144
   9823SM  C21F13355   1.402   2.020   0.016  0.7250 -0.4399  0.2726
   9823SM  H21F13356   1.350   1.936  -0.036  0.8612  0.3723 -1.2244
   9823SM  H21G13357   1.388   2.003   0.125  0.0316 -1.2790  0.0677
   9823SM  C22F13358   1.548   2.019  -0.015 -0.6218  0.7069 -0.0844
   9823SM  H22F13359   1.595   2.113   0.020  1.3520  0.2273 -1.2601
   9823SM  H22G13360   1.576   2.009  -0.123  1.2258 -1.5517  0.5240
   9823SM  C23F13361   1.604   1.900   0.070 -0.7614  1.0844  0.0889
   9823SM  H23F13362   1.566   1.912   0.174  1.1267  1.0395  0.8220
   9823SM  H23G13363   1.715   1.903   0.076 -0.5628 -1.0543 -1.5670
   9823SM  H23H13364   1.575   1.803   0.026 -3.2607  1.0907  1.4866
   9923SM     N13365  -3.078  -2.569  -2.383 -0.7876  0.1537  0.9810
   9923SM   C1513366  -2.963  -2.661  -2.349 -0.5907 -0.0098 -0.1092
   9923SM  H15A13367  -2.870  -2.655  -2.404  1.6761 -2.5752  3.0537
   9923SM  H15B13368  -3.009  -2.759  -2.356 -0.8632  0.0293  1.0715
   9923SM  H15C13369  -2.934  -2.658  -2.246 -0.5142 -4.2855  0.1786
   9923SM   C1413370  -3.047  -2.440  -2.318  0.4460  0.2044 -0.3648
   9923SM  H14A13371  -3.031  -2.453  -2.212 -0.1242 -0.3925 -0.3509
   9923SM  H14B13372  -3.127  -2.369  -2.333 -0.3142 -0.3724  0.7985
   9923SM  H14C13373  -2.954  -2.402  -2.359  0.2297  0.3720 -0.6988
   9923SM   C1313374  -3.065  -2.545  -2.531  0.2551  0.1647  1.1148
   9923SM  H13A13375  -3.131  -2.463  -2.554  0.4568  0.4933  1.6768
   9923SM  H13B13376  -3.087  -2.638  -2.582  1.5660  0.5461 -0.1999
   9923SM  H13C13377  -2.964  -2.520  -2.559 -0.1348 -0.0705 -0.6294
   9923SM   C1213378  -3.214  -2.619  -2.340 -0.0890 -0.6553 -0.8188
   9923SM  H12A13379  -3.288  -2.544  -2.362  0.7629 -0.2795 -2.6394
   9923SM  H12B13380  -3.207  -2.612  -2.233 -1.3832 -1.6742 -0.6439
   9923SM   C1113381  -3.261  -2.760  -2.383  0.0900  0.2594  0.3904
   9923SM  H11A13382  -3.189  -2.841  -2.358 -1.8424 -0.7896  2.9827
   9923SM  H11B13383  -3.260  -2.760  -2.495  1.3875 -1.1887  0.3567
   9923SM     P13384  -3.459  -2.923  -2.308 -0.0871  0.0575  0.4893
   9923SM   O1313385  -3.610  -2.917  -2.315  0.4495  0.2952 -0.5074
   9923SM   O1413386  -3.398  -3.025  -2.391 -0.4484  0.2227  0.2376
   9923SM   O1113387  -3.413  -2.954  -2.158  0.5787  0.2482 -0.5403
   9923SM   O1213388  -3.389  -2.779  -2.335 -0.0249  0.4898 -1.0482
   9923SM   C1S13389  -3.375  -2.846  -2.071 -0.9844  1.0091 -0.8747
   9923SM   H1S13390  -3.457  -2.772  -2.061 -1.0126  0.8680  0.0138
   9923SM   H1T13391  -3.287  -2.793  -2.114  0.7365 -1.9043 -1.1835
   9923SM    NF13392  -3.285  -2.769  -1.858 -0.4201  0.5599  0.0656
   9923SM   HNF13393  -3.185  -2.765  -1.857 -0.4234  1.6634  2.0426
   9923SM   C2S13394  -3.328  -2.888  -1.928 -0.0739  0.0349 -0.1904
   9923SM   H2S13395  -3.413  -2.924  -1.867  1.4947 -0.3975  1.8515
   9923SM   C3S13396  -3.227  -3.005  -1.947  0.5804  0.5083  0.3483
   9923SM   H3S13397  -3.152  -2.959  -2.015 -2.0905  4.4095 -0.2816
   9923SM    O313398  -3.277  -3.122  -2.012 -0.0935 -0.0695  0.4478
   9923SM   HO313399  -3.355  -3.084  -2.055 -0.6361  0.9533  2.2291
   9923SM   C4S13400  -3.158  -3.046  -1.825  0.6792  0.0591  0.1493
   9923SM   H4S13401  -3.060  -2.997  -1.817  0.8555 -0.3175  0.3050
   9923SM   C5S13402  -3.204  -3.121  -1.728 -0.2777  0.7997 -0.2703
   9923SM   H5S13403  -3.303  -3.170  -1.732  0.1629 -0.0550 -0.9947
   9923SM   C6S13404  -3.124  -3.134  -1.600  1.0392  0.1939 -0.2300
   9923SM   H6S13405  -3.026  -3.080  -1.603  0.5196  1.2810  1.4419
   9923SM   H6T13406  -3.118  -3.242  -1.577  0.2423  0.0411 -0.7101
   9923SM   C7S13407  -3.211  -3.081  -1.475 -0.1255 -0.5847  0.8864
   9923SM   H7S13408  -3.319  -3.102  -1.492 -0.4994  2.4486 -1.1611
   9923SM   H7T13409  -3.211  -2.970  -1.478  0.3541 -0.5684  1.4301
   9923SM   C8S13410  -3.167  -3.128  -1.340 -0.0816  0.0604  0.5097
   9923SM   H8S13411  -3.060  -3.105  -1.318  0.1397 -1.7207  1.5341
   9923SM   H8T13412  -3.170  -3.239  -1.334  0.4176  0.1112  1.9179
   9923SM   C9S13413  -3.240  -3.078  -1.214 -0.0779 -0.0128  0.0754
   9923SM   H9S13414  -3.350  -3.084  -1.225  0.0665  1.0831 -2.5842
   9923SM   H9T13415  -3.222  -2.969  -1.201 -0.2454  0.6185 -3.9070
   9923SM  C10S13416  -3.212  -3.164  -1.092  0.5766  0.5287 -0.8374
   9923SM  H10S13417  -3.102  -3.180  -1.096  0.2518 -2.0315 -1.8887
   9923SM  H10T13418  -3.249  -3.268  -1.107 -0.2417  0.2338  2.4399
   9923SM  C11S13419  -3.280  -3.119  -0.957  0.1659  0.1372  0.1200
   9923SM  H11S13420  -3.249  -3.192  -0.880  0.1888 -0.7931 -0.7352
   9923SM  H11T13421  -3.390  -3.140  -0.960  0.2820 -0.4456 -0.6861
   9923SM  C12S13422  -3.242  -2.971  -0.917 -0.0058 -0.2420  0.1683
   9923SM  H12S13423  -3.263  -2.900  -0.999  0.8239  0.9624  0.9760
   9923SM  H12T13424  -3.135  -2.964  -0.892  0.0845  1.8854 -0.5905
   9923SM  C13S13425  -3.332  -2.934  -0.795  0.7096  0.5785  0.1358
   9923SM  H13S13426  -3.314  -3.004  -0.711 -1.4488  0.4221  0.5151
   9923SM  H13T13427  -3.438  -2.951  -0.823  0.9877 -0.7168 -0.1743
   9923SM  C14S13428  -3.320  -2.792  -0.748  0.2303  0.1649 -0.9499
   9923SM  H14S13429  -3.359  -2.713  -0.816 -4.7805 -0.6554  0.5253
   9923SM  H14T13430  -3.212  -2.783  -0.725  0.4504 -2.5895 -0.5285
   9923SM  C15S13431  -3.418  -2.764  -0.627 -0.1847 -0.5677  0.1334
   9923SM  H15S13432  -3.384  -2.819  -0.536 -1.5992 -1.6998  0.0204
   9923SM  H15T13433  -3.522  -2.789  -0.659 -0.4579 -0.4243  0.8830
   9923SM  C16S13434  -3.419  -2.616  -0.579  0.7100 -0.1724  0.8434
   9923SM  H16S13435  -3.448  -2.544  -0.659 -2.2033 -2.3127 -0.1989
   9923SM  H16T13436  -3.328  -2.584  -0.524 -0.4567 -0.7364  3.2546
   9923SM  C17S13437  -3.535  -2.602  -0.476  0.6545  0.2418  0.4004
   9923SM  H17S13438  -3.522  -2.678  -0.397 -0.3476 -0.2274  0.1317
   9923SM  H17T13439  -3.627  -2.633  -0.531  1.4083 -1.4370  0.0257
   9923SM  C18S13440  -3.556  -2.457  -0.427 -0.2899  0.0393 -0.0356
   9923SM  H18S13441  -3.462  -2.414  -0.387 -0.4347  1.6296 -1.2726
   9923SM  H18T13442  -3.640  -2.441  -0.356 -0.7458  0.1519 -0.5950
   9923SM  H18U13443  -3.578  -2.395  -0.517 -1.1055  1.6354  1.1904
   9923SM   C1F13444  -3.356  -2.669  -1.821  0.2294  0.1160 -0.5276
   9923SM    OF13445  -3.477  -2.675  -1.848 -0.4365 -0.3013 -0.1380
   9923SM   C2F13446  -3.288  -2.566  -1.737  0.0988 -0.3410 -0.1221
   9923SM   H2F13447  -3.214  -2.516  -1.804  1.4840 -1.5606  0.4432
   9923SM   H2G13448  -3.239  -2.624  -1.656 -0.0486 -0.8666 -0.4053
   9923SM   C3F13449  -3.381  -2.455  -1.675  0.6250  0.2583 -0.2567
   9923SM   H3F13450  -3.479  -2.499  -1.647  1.4755 -0.5778  1.5609
   9923SM   H3G13451  -3.404  -2.375  -1.748 -1.4617  0.3630  0.4321
   9923SM   C4F13452  -3.322  -2.386  -1.554  0.2140  0.2781 -0.3864
   9923SM   H4F13453  -3.382  -2.296  -1.528  0.9729  1.2621 -1.8344
   9923SM   H4G13454  -3.217  -2.351  -1.568 -0.1558  2.0829  1.0185
   9923SM   C5F13455  -3.336  -2.471  -1.424  0.3056  0.6742 -0.6732
   9923SM   H5F13456  -3.273  -2.563  -1.431  0.0390  0.5107 -0.9613
   9923SM   H5G13457  -3.437  -2.502  -1.390  1.6278 -1.6194  1.6114
   9923SM   C6F13458  -3.281  -2.401  -1.298  0.1831 -0.0697 -0.0375
   9923SM   H6F13459  -3.304  -2.293  -1.295  0.7340  0.0228  1.7494
   9923SM   H6G13460  -3.170  -2.407  -1.310  0.2303 -2.8524  0.9570
   9923SM   C7F13461  -3.315  -2.465  -1.159 -0.3216 -0.5523  0.8462
   9923SM   H7F13462  -3.265  -2.565  -1.160  0.3710 -0.2134 -0.2040
   9923SM   H7G13463  -3.426  -2.476  -1.158 -0.5868  1.5258 -0.5449
   9923SM   C8F13464  -3.258  -2.381  -1.043  0.7124 -0.2848  0.4316
   9923SM   H8F13465  -3.341  -2.313  -1.015 -1.3046 -1.6006 -1.9043
   9923SM   H8G13466  -3.175  -2.320  -1.085 -0.4512  0.7893 -0.3751
   9923SM   C9F13467  -3.201  -2.464  -0.925  0.3417 -0.0758  0.0426
   9923SM   H9F13468  -3.112  -2.523  -0.954 -0.2269 -0.6325 -0.6050
   9923SM   H9G13469  -3.289  -2.526  -0.896 -0.4697  0.2262 -1.6279
   9923SM  C10F13470  -3.167  -2.363  -0.814 -0.0409  0.6321 -0.1421
   9923SM  H10F13471  -3.241  -2.286  -0.785  0.1221  1.0463 -0.8049
   9923SM  H10G13472  -3.089  -2.300  -0.860 -0.7222  1.0483 -0.7584
   9923SM  C11F13473  -3.100  -2.433  -0.698 -0.0655  0.4735  0.1214
   9923SM  H11F13474  -3.040  -2.520  -0.733  0.5916  0.5819  0.9693
   9923SM  H11G13475  -3.171  -2.483  -0.629  0.3884  2.5936  2.2463
   9923SM  C12F13476  -3.001  -2.344  -0.621 -0.5921  1.1078  0.1366
   9923SM  H12F13477  -2.944  -2.285  -0.696  1.6393 -0.6413  0.3588
   9923SM  H12G13478  -2.924  -2.402  -0.566 -1.0674 -2.2692 -2.4002
   9923SM  C13F13479  -3.069  -2.261  -0.507 -0.1861  0.2708 -0.9597
   9923SM  H13F13480  -3.156  -2.205  -0.549 -0.5461  1.9358  1.8059
   9923SM  H13G13481  -2.980  -2.197  -0.489  0.1687 -0.8035  1.4719
   9923SM  C14F13482  -3.097  -2.351  -0.383  0.6923 -0.0164  0.0309
   9923SM  H14F13483  -3.017  -2.427  -0.366 -0.5032 -0.8272  2.6866
   9923SM  H14G13484  -3.187  -2.406  -0.418 -1.3228  2.4978  0.9721
   9923SM  C15F13485  -3.124  -2.278  -0.253 -0.7155  0.2178  0.0620
   9923SM  H15F13486  -3.216  -2.218  -0.266 -1.1469 -0.2565  0.8516
   9923SM  H15G13487  -3.038  -2.214  -0.223 -0.0304 -0.7906  0.3195
   9923SM  C16F13488  -3.133  -2.380  -0.144  0.2120  0.2421 -0.4008
   9923SM  H16F13489  -3.157  -2.332  -0.046  2.3448  0.5436  0.0112
   9923SM  H16G13490  -3.035  -2.427  -0.123 -0.3223 -1.7642 -2.0833
   9923SM  C17F13491  -3.260  -2.466  -0.152 -0.0962  0.1823  0.4627
   9923SM  H17F13492  -3.285  -2.496  -0.256 -2.7554  1.2580  0.7257
   9923SM  H17G13493  -3.351  -2.410  -0.124  1.6379  4.2532 -1.3706
   9923SM  C18F13494  -3.243  -2.593  -0.060  0.0429 -0.0606 -0.2866
   9923SM  H18F13495  -3.255  -2.553   0.043 -1.3298  3.0694 -1.5514
   9923SM  H18G13496  -3.142  -2.639  -0.064  0.1565 -0.0505  1.5330
   9923SM  C19F13497  -3.344  -2.707  -0.085  1.0084  0.1715 -0.3013
   9923SM  H19F13498  -3.318  -2.798  -0.027  0.5652  1.1628  1.5331
   9923SM  H19G13499  -3.337  -2.747  -0.188 -1.1072 -1.3416  0.0612
   9923SM  C20F13500  -3.503  -2.677  -0.070 -0.1562  0.7405 -0.4658
   9923SM  H20F13501  -3.528  -2.596  -0.142 -0.5954  0.3509 -0.7665
   9923SM  H20G13502  -3.510  -2.629   0.030 -0.2671 -0.6666  0.2276
   9923SM  C21F13503  -3.591  -2.804  -0.083  0.3286 -0.3542 -0.2523
   9923SM  H21F13504  -3.562  -2.862   0.007 -1.2180 -1.4035 -0.3958
   9923SM  H21G13505  -3.569  -2.871  -0.169 -0.3167 -0.2447 -0.5090
   9923SM  C22F13506  -3.737  -2.766  -0.074 -0.6083  0.0599 -0.2821
   9923SM  H22F13507  -3.755  -2.725   0.028  1.8464  0.3679  0.0879
   9923SM  H22G13508  -3.798  -2.858  -0.087  0.0245 -0.1614 -1.8350
   9923SM  C23F13509  -3.778  -2.669  -0.183  0.4619 -0.4210  0.5786
   9923SM  H23F13510  -3.764  -2.719  -0.281 -0.8123  1.5153 -0.6488
   9923SM  H23G13511  -3.719  -2.575  -0.179  1.7676 -0.9997 -2.6133
   9923SM  H23H13512  -3.886  -2.643  -0.185  0.6477  0.3729  0.6154
  10023SM     N13513   2.456  -2.949  -2.643 -0.2112  0.3928  0.0657
  10023SM   C1513514   2.552  -2.834  -2.629  0.8080 -0.4939  0.4493
  10023SM  H15A13515   2.599  -2.811  -2.723  0.3109 -0.7443  0.1351
  10023SM  H15B13516   2.632  -2.864  -2.563  0.1041 -1.8330  0.7263
  10023SM  H15C13517   2.495  -2.749  -2.593  1.6509  1.6520 -2.8397
  10023SM   C1413518   2.349  -2.899  -2.733 -0.2701  0.0277  0.3413
  10023SM  H14A13519   2.281  -2.980  -2.753  0.9130 -1.2541  1.2742
  10023SM  H14B13520   2.390  -2.851  -2.821 -1.8687  0.0620 -0.4198
  10023SM  H14C13521   2.294  -2.821  -2.683  1.3615  2.0453 -0.8313
  10023SM   C1313522   2.522  -3.066  -2.710 -0.1669  0.5698 -0.1915
  10023SM  H13A13523   2.578  -3.044  -2.800 -0.0475  0.9652 -0.0217
  10023SM  H13B13524   2.451  -3.145  -2.729  0.2130 -1.5171  5.3018
  10023SM  H13C13525   2.588  -3.110  -2.637  1.2186  1.2790 -0.9825
  10023SM   C1213526   2.405  -2.992  -2.510  0.5710  0.5580  0.3391
  10023SM  H12A13527   2.487  -3.032  -2.452 -0.2302 -1.0394  0.4414
  10023SM  H12B13528   2.337  -3.075  -2.525  1.7744 -0.1305 -1.6892
  10023SM   C1113529   2.332  -2.885  -2.425  0.8252  0.0463 -0.2150
  10023SM  H11A13530   2.268  -2.933  -2.348  0.2764  1.4057  0.2081
  10023SM  H11B13531   2.252  -2.834  -2.483  0.1445  2.1193  2.3692
  10023SM     P13532   2.540  -2.841  -2.274 -0.0662 -0.5266 -0.1376
  10023SM   O1313533   2.582  -2.983  -2.299  0.3996 -0.4810  0.2965
  10023SM   O1413534   2.648  -2.743  -2.279  0.0470 -0.1599  0.0647
  10023SM   O1113535   2.459  -2.838  -2.143  0.1745  0.7759 -0.3890
  10023SM   O1213536   2.421  -2.795  -2.364  0.3652 -0.1481 -0.7010
  10023SM   C1S13537   2.393  -2.716  -2.103 -0.3704 -0.4815  0.2073
  10023SM   H1S13538   2.293  -2.730  -2.149  0.6690 -3.4751 -1.4730
  10023SM   H1T13539   2.436  -2.624  -2.147  2.9501 -2.0169 -0.0484
  10023SM    NF13540   2.290  -2.596  -1.908  0.6237  0.8675  0.3678
  10023SM   HNF13541   2.334  -2.512  -1.878  2.0743  0.2365  0.0729
  10023SM   C2S13542   2.385  -2.701  -1.948  0.1933 -0.2141  0.8659
  10023SM   H2S13543   2.338  -2.799  -1.923  0.4815 -0.5020  0.2946
  10023SM   C3S13544   2.527  -2.687  -1.892 -0.0144  0.2791  0.8297
  10023SM   H3S13545   2.572  -2.590  -1.923 -0.5140  0.2257 -0.0800
  10023SM    O313546   2.627  -2.772  -1.954 -0.9201 -0.0787  0.1420
  10023SM   HO313547   2.570  -2.809  -2.022 -0.3344  0.4929 -0.6797
  10023SM   C4S13548   2.534  -2.685  -1.733  0.0216 -0.4350  0.7179
  10023SM   H4S13549   2.544  -2.587  -1.684  2.3265 -0.9024  1.3219
  10023SM   C5S13550   2.573  -2.787  -1.650 -0.3318  0.3737  0.0531
  10023SM   H5S13551   2.592  -2.888  -1.690  1.3255  0.9549 -0.7285
  10023SM   C6S13552   2.602  -2.780  -1.505  0.0517  0.9522 -0.4324
  10023SM   H6S13553   2.707  -2.812  -1.489  0.5290  2.4088 -0.4393
  10023SM   H6T13554   2.526  -2.844  -1.456  1.3841 -0.9904 -0.7950
  10023SM   C7S13555   2.587  -2.635  -1.452 -0.7005  0.4704 -0.0407
  10023SM   H7S13556   2.479  -2.611  -1.449 -0.6659  0.6220 -0.0359
  10023SM   H7T13557   2.642  -2.562  -1.515  0.4259 -1.0199 -0.8544
  10023SM   C8S13558   2.653  -2.614  -1.313  0.7274  0.0945  0.8234
  10023SM   H8S13559   2.639  -2.506  -1.294 -0.3182 -0.0373  0.8380
  10023SM   H8T13560   2.762  -2.638  -1.312  0.7424  0.0969 -0.0449
  10023SM   C9S13561   2.587  -2.690  -1.195  0.4599 -0.0592  0.8721
  10023SM   H9S13562   2.599  -2.800  -1.198 -0.2009 -0.1099 -0.8907
  10023SM   H9T13563   2.478  -2.671  -1.206  0.2560 -0.3024  2.2583
  10023SM  C10S13564   2.646  -2.633  -1.058 -0.2801  0.3360 -0.2409
  10023SM  H10S13565   2.691  -2.532  -1.073  0.0498  0.2639  0.2487
  10023SM  H10T13566   2.731  -2.701  -1.036 -0.9394 -0.2954  0.3737
  10023SM  C11S13567   2.551  -2.644  -0.936  0.7765  0.2975  0.2705
  10023SM  H11S13568   2.533  -2.752  -0.917  2.0139 -0.1843 -1.0421
  10023SM  H11T13569   2.464  -2.581  -0.965  2.0328  0.9096 -2.5530
  10023SM  C12S13570   2.621  -2.604  -0.801  0.1406 -0.4606  0.0884
  10023SM  H12S13571   2.645  -2.495  -0.799 -1.6017 -0.0414  2.4541
  10023SM  H12T13572   2.711  -2.669  -0.798 -0.5530 -1.6333 -2.1823
  10023SM  C13S13573   2.539  -2.633  -0.675 -0.6355 -0.0961 -0.2428
  10023SM  H13S13574   2.519  -2.742  -0.673 -0.6819 -0.1353 -1.7835
  10023SM  H13T13575   2.439  -2.585  -0.671 -0.1848  0.7879  1.3412
  10023SM  C14S13576   2.632  -2.605  -0.562 -0.2536  0.3626  0.2739
  10023SM  H14S13577   2.722  -2.669  -0.569  0.2081  0.9513  0.6759
  10023SM  H14T13578   2.581  -2.635  -0.468 -1.7972  0.7822 -0.4004
  10023SM  C15S13579   2.671  -2.451  -0.545  0.1981  0.5919  0.3934
  10023SM  H15S13580   2.583  -2.390  -0.575 -0.1297  1.1228  2.3068
  10023SM  H15T13581   2.755  -2.435  -0.617  0.9894 -0.9004  0.9458
  10023SM  C16S13582   2.688  -2.416  -0.399  0.5031 -0.5828  0.3174
  10023SM  H16S13583   2.753  -2.490  -0.347  2.1801  0.7911  0.2768
  10023SM  H16T13584   2.590  -2.411  -0.347 -0.8115 -1.2458 -1.9777
  10023SM  C17S13585   2.746  -2.271  -0.388 -0.1650 -0.2021 -0.1383
  10023SM  H17S13586   2.658  -2.203  -0.393 -0.3257 -0.1143  2.3911
  10023SM  H17T13587   2.823  -2.259  -0.468  0.0313 -0.6276 -0.0147
  10023SM  C18S13588   2.803  -2.238  -0.251  0.4167 -1.2085 -0.1401
  10023SM  H18S13589   2.850  -2.138  -0.255 -0.9420 -0.5036  0.7450
  10023SM  H18T13590   2.888  -2.305  -0.227 -0.9024 -3.3333 -1.1509
  10023SM  H18U13591   2.723  -2.240  -0.173 -0.3294 -2.9907 -0.8862
  10023SM   C1F13592   2.157  -2.606  -1.941 -0.0762 -0.0316  0.4616
  10023SM    OF13593   2.109  -2.719  -1.958 -0.8467 -0.5550 -0.2442
  10023SM   C2F13594   2.079  -2.475  -1.968  0.0587 -0.2063 -0.4339
  10023SM   H2F13595   2.052  -2.476  -2.075 -1.5456  3.0477 -0.1740
  10023SM   H2G13596   2.145  -2.387  -1.952  0.0987 -0.4951  1.2404
  10023SM   C3F13597   1.941  -2.476  -1.891 -0.3298  0.1795  0.0386
  10023SM   H3F13598   1.895  -2.577  -1.891 -0.4054  0.1561  2.2129
  10023SM   H3G13599   1.868  -2.404  -1.934  1.3483  1.8681 -0.1164
  10023SM   C4F13600   1.966  -2.461  -1.738 -0.2885 -0.1933  0.8141
  10023SM   H4F13601   1.983  -2.353  -1.721 -2.6158  0.3075  0.2608
  10023SM   H4G13602   2.060  -2.515  -1.713  0.1928 -1.3783 -2.8321
  10023SM   C5F13603   1.863  -2.517  -1.646  0.4494 -0.3004  0.3289
  10023SM   H5F13604   1.828  -2.619  -1.672  0.1703  0.1323 -1.0829
  10023SM   H5G13605   1.773  -2.452  -1.659 -0.3499 -1.0747  1.7663
  10023SM   C6F13606   1.891  -2.495  -1.497  0.2504 -0.2234  0.6899
  10023SM   H6F13607   1.901  -2.386  -1.478  0.1003 -0.1590  0.4147
  10023SM   H6G13608   1.985  -2.550  -1.474 -0.4474 -1.3946  0.8495
  10023SM   C7F13609   1.789  -2.561  -1.408  0.4867 -0.6039 -0.0427
  10023SM   H7F13610   1.777  -2.668  -1.436 -0.7283 -0.3071 -0.7457
  10023SM   H7G13611   1.690  -2.516  -1.430  1.8615  2.9769  0.4205
  10023SM   C8F13612   1.818  -2.561  -1.257 -0.0088  0.3417 -0.0292
  10023SM   H8F13613   1.926  -2.585  -1.248  0.2213  0.6589 -1.6239
  10023SM   H8G13614   1.744  -2.636  -1.221 -1.4858  0.6934 -2.1519
  10023SM   C9F13615   1.788  -2.416  -1.201 -0.3184 -0.3950 -0.1950
  10023SM   H9F13616   1.686  -2.390  -1.235 -0.2421  1.2292  0.7093
  10023SM   H9G13617   1.861  -2.350  -1.251  0.3114  0.1914  1.4177
  10023SM  C10F13618   1.815  -2.393  -1.048 -0.2446 -0.0299 -0.1582
  10023SM  H10F13619   1.798  -2.288  -1.018 -0.6709  0.2950 -1.4931
  10023SM  H10G13620   1.924  -2.399  -1.025 -0.5846  1.6131  2.3081
  10023SM  C11F13621   1.753  -2.486  -0.944 -0.6765  0.3169 -0.5038
  10023SM  H11F13622   1.777  -2.592  -0.966  1.2784  1.0518 -2.2355
  10023SM  H11G13623   1.642  -2.473  -0.948 -0.7830 -0.0059  0.9939
  10023SM  C12F13624   1.807  -2.438  -0.806 -0.3376 -0.2335 -0.2029
  10023SM  H12F13625   1.750  -2.344  -0.793 -2.9803 -1.4606 -1.8876
  10023SM  H12G13626   1.916  -2.417  -0.805 -0.3663  0.0400 -1.3742
  10023SM  C13F13627   1.761  -2.528  -0.690 -0.4077  0.4263 -0.1965
  10023SM  H13F13628   1.814  -2.626  -0.692  1.5447  1.3771 -3.5814
  10023SM  H13G13629   1.650  -2.531  -0.691 -0.4464  1.4464 -0.7986
  10023SM  C14F13630   1.811  -2.477  -0.557  0.0056  0.5713  0.1880
  10023SM  H14F13631   1.826  -2.367  -0.565  3.5404  0.2801  1.1087
  10023SM  H14G13632   1.911  -2.522  -0.539  0.9664  2.8562  0.9668
  10023SM  C15F13633   1.707  -2.511  -0.448 -0.0704 -0.7012  0.5174
  10023SM  H15F13634   1.711  -2.621  -0.431  0.6791 -0.5746  1.2160
  10023SM  H15G13635   1.604  -2.488  -0.483 -0.8796 -1.3327  2.3658
  10023SM  C16F13636   1.735  -2.448  -0.311  0.3010  0.0654  0.6784
  10023SM  H16F13637   1.723  -2.339  -0.328  0.0760 -0.1726 -0.8872
  10023SM  H16G13638   1.843  -2.464  -0.291  1.5366  2.4487 -3.0240
  10023SM  C17F13639   1.643  -2.506  -0.204 -0.0021  0.4832 -0.2692
  10023SM  H17F13640   1.598  -2.606  -0.226  1.2222 -0.2168  0.3229
  10023SM  H17G13641   1.552  -2.442  -0.195 -1.2111 -1.4293  2.3537
  10023SM  C18F13642   1.717  -2.521  -0.071 -0.1664 -0.2515  0.2622
  10023SM  H18F13643   1.790  -2.602  -0.091 -0.8710 -0.8471  0.0548
  10023SM  H18G13644   1.646  -2.554   0.008 -1.8711  1.8515 -0.2902
  10023SM  C19F13645   1.793  -2.400  -0.012 -0.0385 -0.4987  0.2613
  10023SM  H19F13646   1.872  -2.362  -0.080 -1.5626  0.3229 -1.1304
  10023SM  H19G13647   1.842  -2.434   0.082 -1.0829  1.6080  1.6476
  10023SM  C20F13648   1.702  -2.280   0.020  0.8282  0.7293  0.0563
  10023SM  H20F13649   1.616  -2.300   0.087  0.2529  0.5367 -0.7281
  10023SM  H20G13650   1.650  -2.258  -0.076 -0.1540 -3.2874 -0.5286
  10023SM  C21F13651   1.767  -2.152   0.072 -0.6658 -0.7411  0.5633
  10023SM  H21F13652   1.695  -2.071   0.095  2.0966  2.2810 -0.5760
  10023SM  H21G13653   1.823  -2.091  -0.002 -0.4999 -1.6253 -0.0598
  10023SM  C22F13654   1.847  -2.162   0.208  0.5925  0.1176  0.2547
  10023SM  H22F13655   1.920  -2.246   0.206  1.4717  0.8590  0.5135
  10023SM  H22G13656   1.770  -2.192   0.282  1.2435 -0.0649  0.8796
  10023SM  C23F13657   1.924  -2.037   0.242 -0.0187  0.7779 -0.1504
  10023SM  H23F13658   2.003  -2.028   0.164  1.3647 -2.6146  0.6808
  10023SM  H23G13659   1.980  -2.046   0.338 -0.9107  0.1948  0.3192
  10023SM  H23H13660   1.863  -1.945   0.252 -0.3442  0.4941  0.4891
  101CHL1    C313661   0.432   1.873   1.781 -0.8146  0.2154 -0.7256
  101CHL1    H313662   0.389   1.973   1.756  0.1963  1.3722  1.7435
  101CHL1    O313663   0.441   1.899   1.920 -0.5620  0.1694  0.1319
  101CHL1   H3'13664   0.471   1.991   1.922  0.0639 -0.0068 -0.7034
  101CHL1    C413665   0.329   1.761   1.759  0.5522  0.8822  0.8339
  101CHL1   H4A13666   0.373   1.673   1.811 -0.2591  1.0970  1.9452
  101CHL1   H4B13667   0.238   1.793   1.815  0.3043  1.2755  0.2123
  101CHL1    C513668   0.311   1.746   1.611  0.5362 -0.3684  0.8555
  101CHL1    C613669   0.187   1.772   1.564  0.0335  0.4622 -0.1046
  101CHL1    H613670   0.100   1.790   1.629 -0.4426 -0.3358 -0.5034
  101CHL1    C713671   0.153   1.767   1.415 -0.5538  0.4524 -0.5858
  101CHL1   H7A13672   0.059   1.712   1.393 -1.2614  1.4538 -0.1908
  101CHL1   H7B13673   0.125   1.867   1.374 -2.4379 -0.2791 -1.2217
  101CHL1    C813674   0.267   1.703   1.333 -0.1759  0.0671  0.1916
  101CHL1    H813675   0.257   1.597   1.364  0.2918  0.0760  0.3795
  101CHL1   C1413676   0.243   1.723   1.182 -0.7326  0.0540  0.4747
  101CHL1   H1413677   0.248   1.833   1.169 -0.0041  0.0366  0.5606
  101CHL1   C1513678   0.112   1.693   1.127  0.5557  0.2652 -0.2917
  101CHL1  H15A13679   0.062   1.600   1.161  0.9036 -0.0065 -0.5160
  101CHL1  H15B13680   0.033   1.768   1.149 -2.3877 -2.7655  0.2036
  101CHL1   C1613681   0.138   1.677   0.981 -0.8826  0.3725  0.5407
  101CHL1  H16A13682   0.098   1.585   0.933  0.6881 -0.7866  1.3614
  101CHL1  H16B13683   0.094   1.767   0.934 -0.5815  2.3514  3.7822
  101CHL1   C1713684   0.287   1.694   0.954 -0.1163  0.8345 -0.5430
  101CHL1   H1713685   0.315   1.801   0.946 -0.6880  0.9167 -1.7204
  101CHL1   C1313686   0.350   1.662   1.089  0.5315 -0.2783 -0.2724
  101CHL1   C1813687   0.349   1.513   1.110 -0.2916  0.4550  0.2201
  101CHL1  H18A13688   0.263   1.453   1.074  0.0823  0.3999 -0.5926
  101CHL1  H18B13689   0.435   1.469   1.055  0.9007  2.4410  0.3596
  101CHL1  H18C13690   0.374   1.480   1.213  2.2626  0.1604 -0.4134
  101CHL1   C1213691   0.477   1.731   1.132 -1.0744  0.0711  0.5815
  101CHL1  H12A13692   0.566   1.695   1.076 -1.3772  0.3263 -0.0620
  101CHL1  H12B13693   0.485   1.839   1.107  1.2353 -0.6463 -2.4554
  101CHL1   C1113694   0.519   1.704   1.279  0.1669 -0.4552 -0.2711
  101CHL1  H11A13695   0.531   1.594   1.295  0.2234 -0.4151 -0.0305
  101CHL1  H11B13696   0.607   1.768   1.299  0.9152 -1.2136 -1.0726
  101CHL1    C913697   0.406   1.750   1.371  0.9513  0.1359 -0.4814
  101CHL1    H913698   0.399   1.861   1.360  3.3646  0.3974  0.0076
  101CHL1   C1013699   0.437   1.724   1.525 -0.1324  0.4826  0.8897
  101CHL1   C1913700   0.476   1.574   1.544  0.4242 -0.4687  0.0753
  101CHL1  H19A13701   0.441   1.535   1.642 -1.9231 -0.0254 -0.5233
  101CHL1  H19B13702   0.412   1.508   1.482  1.2582 -2.9920  1.7151
  101CHL1  H19C13703   0.577   1.543   1.510  0.2469 -2.3838  1.1509
  101CHL1    C113704   0.551   1.819   1.568 -0.5798 -0.0063  0.2931
  101CHL1   H1A13705   0.644   1.777   1.524 -0.1669  0.6725  0.4973
  101CHL1   H1B13706   0.550   1.920   1.521 -0.8384  0.4325  1.2166
  101CHL1    C213707   0.562   1.831   1.722 -0.2446 -0.3095 -0.3222
  101CHL1   H2A13708   0.635   1.912   1.742 -0.9561  0.5212 -1.0706
  101CHL1   H2B13709   0.603   1.732   1.753  1.5485  0.0490 -1.4345
  101CHL1   C2013710   0.336   1.615   0.829  0.3293 -0.3913  0.2482
  101CHL1   H2013711   0.328   1.506   0.849  0.3501 -0.0510  2.2444
  101CHL1   C2113712   0.484   1.655   0.794  0.0747 -0.0804 -0.1530
  101CHL1  H21A13713   0.507   1.601   0.700 -2.1050 -0.7455 -0.3517
  101CHL1  H21B13714   0.554   1.605   0.863 -0.0557 -0.7901 -0.5204
  101CHL1  H21C13715   0.496   1.765   0.788 -2.1746  0.1691 -1.3840
  101CHL1   C2213716   0.247   1.643   0.710 -0.4636  0.1899 -0.6783
  101CHL1  H22A13717   0.293   1.590   0.624 -2.9167 -0.0828 -1.9036
  101CHL1  H22B13718   0.145   1.601   0.720 -2.4694  4.7657  0.5350
  101CHL1   C2313719   0.232   1.796   0.673  0.1596  0.5525 -0.8905
  101CHL1  H23A13720   0.182   1.843   0.761  0.0099  1.6325 -1.5408
  101CHL1  H23B13721   0.333   1.842   0.663  0.0896  0.5617 -1.5778
  101CHL1   C2413722   0.143   1.817   0.548  0.5005 -0.4038 -0.1888
  101CHL1  H24A13723   0.176   1.754   0.463 -0.8612  1.0159 -1.8477
  101CHL1  H24B13724   0.045   1.774   0.580 -0.0642 -0.0198 -1.3702
  101CHL1   C2513725   0.128   1.964   0.490  0.1029  0.8002 -0.3150
  101CHL1   H2513726   0.230   2.005   0.501 -0.3960  1.3649  3.9995
  101CHL1   C2613727   0.071   1.960   0.341 -0.1420  0.2257 -0.5789
  101CHL1  H26A13728  -0.040   1.958   0.337 -0.1483 -1.9382 -0.3820
  101CHL1  H26B13729   0.111   2.049   0.287  1.9577 -1.9073 -2.8224
  101CHL1  H26C13730   0.103   1.867   0.289  2.3872 -0.4210  1.8828
  101CHL1   C2713731   0.046   2.060   0.575  0.4655  0.3224 -0.4466
  101CHL1  H27A13732  -0.062   2.035   0.571 -0.1039  2.5751 -0.3245
  101CHL1  H27B13733   0.060   2.043   0.684  0.1331 -2.6886 -0.7867
  101CHL1  H27C13734   0.056   2.167   0.548  1.3347  0.5647  0.7477
  102CHL1    C313735  -2.540   1.668   1.491 -0.6059 -0.0317  0.0498
  102CHL1    H313736  -2.436   1.701   1.470 -0.8313  0.8484  0.2780
  102CHL1    O313737  -2.567   1.666   1.629 -0.1664  0.2170 -0.0352
  102CHL1   H3'13738  -2.644   1.610   1.641 -0.5174  0.1633 -2.2420
  102CHL1    C413739  -2.640   1.765   1.418 -0.0409  0.0426 -0.4347
  102CHL1   H4A13740  -2.736   1.718   1.447  1.2189 -2.1518  0.4684
  102CHL1   H4B13741  -2.632   1.868   1.458  0.1514 -0.1903  0.1417
  102CHL1    C513742  -2.618   1.764   1.271  0.3032 -0.1980  0.3587
  102CHL1    C613743  -2.602   1.876   1.199 -0.1937  0.0384  0.3924
  102CHL1    H613744  -2.613   1.976   1.242 -3.0108  0.1630 -0.4667
  102CHL1    C713745  -2.594   1.878   1.045 -0.0342 -0.4246 -0.3193
  102CHL1   H7A13746  -2.665   1.954   1.006 -3.5470 -1.6698  2.9922
  102CHL1   H7B13747  -2.492   1.911   1.016  0.8187 -0.2275  2.5719
  102CHL1    C813748  -2.629   1.743   0.976  0.3288 -0.4255 -0.2548
  102CHL1    H813749  -2.740   1.735   0.981  0.2548  0.9197  1.7597
  102CHL1   C1413750  -2.581   1.746   0.832 -1.4810  0.6039  0.4449
  102CHL1   H1413751  -2.471   1.757   0.840 -1.3032 -0.1525 -0.8215
  102CHL1   C1513752  -2.630   1.865   0.753 -0.6007  0.3347  0.3294
  102CHL1  H15A13753  -2.740   1.869   0.771 -0.4807  3.6453  0.9507
  102CHL1  H15B13754  -2.581   1.961   0.780  0.2932  0.3536 -1.1999
  102CHL1   C1613755  -2.590   1.825   0.606  0.4453  0.1277 -0.5792
  102CHL1  H16A13756  -2.682   1.830   0.545  0.5615  1.1294 -0.6835
  102CHL1  H16B13757  -2.515   1.897   0.567  0.0476  0.1935 -1.2428
  102CHL1   C1713758  -2.539   1.673   0.616  0.0422  0.0202 -0.0672
  102CHL1   H1713759  -2.429   1.681   0.627  0.1769  2.4070 -2.2654
  102CHL1   C1313760  -2.597   1.620   0.749 -0.8853  0.6452  0.3488
  102CHL1   C1813761  -2.743   1.583   0.734  1.2281 -0.6392  0.1414
  102CHL1  H18A13762  -2.802   1.593   0.827  1.3673  0.9755  0.0851
  102CHL1  H18B13763  -2.795   1.638   0.653  1.8696 -1.6787 -1.0070
  102CHL1  H18C13764  -2.746   1.476   0.707  1.0557 -0.8987  1.1470
  102CHL1   C1213765  -2.527   1.513   0.822 -0.2402 -0.0593 -0.8293
  102CHL1  H12A13766  -2.551   1.409   0.790 -1.0242 -0.3763  0.7229
  102CHL1  H12B13767  -2.418   1.522   0.803 -0.1501  1.0390  0.0893
  102CHL1   C1113768  -2.552   1.507   0.979  0.4791  0.3674  0.3695
  102CHL1  H11A13769  -2.641   1.443   0.999 -0.1141  0.9080 -0.4683
  102CHL1  H11B13770  -2.465   1.457   1.027  0.6816  0.6549  0.3022
  102CHL1    C913771  -2.568   1.637   1.056 -0.1135  0.1156 -0.1835
  102CHL1    H913772  -2.465   1.673   1.076 -0.3506  0.1949  0.9160
  102CHL1   C1013773  -2.630   1.625   1.206 -0.1736 -0.3887  0.0879
  102CHL1   C1913774  -2.770   1.571   1.209  0.0964 -0.0644  0.5396
  102CHL1  H19A13775  -2.788   1.487   1.139  2.4750  1.2603 -1.8200
  102CHL1  H19B13776  -2.805   1.544   1.311 -2.1433  2.0580  0.4398
  102CHL1  H19C13777  -2.841   1.648   1.171 -1.6463 -0.7887  2.1810
  102CHL1    C113778  -2.532   1.531   1.281 -0.5646  0.0744  0.1142
  102CHL1   H1A13779  -2.533   1.428   1.240 -0.3530 -0.1141  0.5709
  102CHL1   H1B13780  -2.426   1.564   1.268 -0.6316  0.0132 -0.6015
  102CHL1    C213781  -2.552   1.529   1.434 -0.2236  0.1066  0.3265
  102CHL1   H2A13782  -2.476   1.461   1.478  0.4558  1.5928  1.5452
  102CHL1   H2B13783  -2.648   1.478   1.459  0.6174 -1.6800  0.0759
  102CHL1   C2013784  -2.573   1.590   0.485  0.0832 -0.1375 -1.0011
  102CHL1   H2013785  -2.680   1.590   0.455  0.6280  0.0428 -3.0613
  102CHL1   C2113786  -2.521   1.443   0.494  0.1688  0.4715 -0.0986
  102CHL1  H21A13787  -2.416   1.444   0.529 -0.2407 -3.4556  1.7942
  102CHL1  H21B13788  -2.529   1.391   0.396  2.4841  0.3485 -0.2626
  102CHL1  H21C13789  -2.574   1.383   0.572 -2.0944  2.1441 -0.2410
  102CHL1   C2213790  -2.528   1.668   0.359 -0.3459 -0.7843  0.2855
  102CHL1  H22A13791  -2.594   1.757   0.348 -3.6505 -2.7644  2.4385
  102CHL1  H22B13792  -2.423   1.704   0.356 -0.5520 -0.1281 -3.5635
  102CHL1   C2313793  -2.554   1.587   0.229  0.2602 -0.1724  0.0969
  102CHL1  H23A13794  -2.489   1.497   0.222 -0.7507 -0.8212 -1.5225
  102CHL1  H23B13795  -2.663   1.562   0.225 -0.2898  2.0293  0.0724
  102CHL1   C2413796  -2.525   1.676   0.112 -0.4137 -0.6606  0.5943
  102CHL1  H24A13797  -2.539   1.784   0.130 -0.8265 -0.6478  0.2239
  102CHL1  H24B13798  -2.418   1.652   0.092  0.0984  1.2606  0.8376
  102CHL1   C2513799  -2.590   1.635  -0.026 -0.8963 -0.0030  0.2991
  102CHL1   H2513800  -2.536   1.702  -0.096  0.4509 -1.0004  0.3453
  102CHL1   C2613801  -2.544   1.491  -0.066  0.2350 -0.1463 -0.6210
  102CHL1  H26A13802  -2.435   1.476  -0.051  0.1301  1.0043  1.6281
  102CHL1  H26B13803  -2.606   1.421  -0.006  0.4721 -0.6347 -0.9378
  102CHL1  H26C13804  -2.582   1.473  -0.169  1.1235  0.7268 -1.1198
  102CHL1   C2713805  -2.740   1.648  -0.030 -0.0473 -0.2398  0.2239
  102CHL1  H27A13806  -2.794   1.567   0.023 -0.7135 -1.3354 -2.0414
  102CHL1  H27B13807  -2.768   1.743   0.020 -1.2795 -0.9727  0.9853
  102CHL1  H27C13808  -2.781   1.644  -0.133 -0.3893 -4.5352  0.3480
  103CHL1    C313809  -1.239   1.101   1.831  0.5653  0.8949 -0.3714
  103CHL1    H313810  -1.131   1.087   1.853 -0.0525  0.6735  3.1098
  103CHL1    O313811  -1.294   1.153   1.950 -1.0359  0.4371 -0.3968
  103CHL1   H3'13812  -1.259   1.088   2.012 -1.0779 -0.2961 -1.1165
  103CHL1    C413813  -1.272   1.202   1.719 -0.3659  0.8710 -0.2105
  103CHL1   H4A13814  -1.383   1.204   1.712 -0.4175 -1.2371 -0.6784
  103CHL1   H4B13815  -1.233   1.301   1.749  0.4644  0.1912  1.0345
  103CHL1    C513816  -1.210   1.157   1.588 -0.1081 -0.3307  0.2952
  103CHL1    C613817  -1.119   1.229   1.517 -1.0029  0.6603  0.0815
  103CHL1    H613818  -1.084   1.328   1.551  0.0539  0.2655  0.1728
  103CHL1    C713819  -1.068   1.189   1.380 -0.3631  0.4524 -0.0118
  103CHL1   H7A13820  -1.049   1.285   1.328  1.2328  0.8827  1.2514
  103CHL1   H7B13821  -0.968   1.144   1.397  0.3193  0.0565 -4.0850
  103CHL1    C813822  -1.162   1.082   1.321  0.5632  0.0760  0.2273
  103CHL1    H813823  -1.258   1.127   1.290  1.0660  0.2674 -1.1462
  103CHL1   C1413824  -1.087   1.030   1.193  0.7951  0.0197 -0.2599
  103CHL1   H1413825  -0.989   0.990   1.229  0.7850  0.4704  0.2803
  103CHL1   C1513826  -1.068   1.137   1.075 -0.3507 -0.1880 -0.6837
  103CHL1  H15A13827  -1.160   1.199   1.070  0.6215  1.2977 -0.8623
  103CHL1  H15B13828  -0.986   1.208   1.101 -0.8991  0.1686  0.1415
  103CHL1   C1613829  -1.053   1.048   0.954 -0.9985 -0.0494  0.0311
  103CHL1  H16A13830  -1.129   1.085   0.883 -0.8819  1.2076  0.5326
  103CHL1  H16B13831  -0.952   1.057   0.908 -1.9218  3.2864 -1.6159
  103CHL1   C1713832  -1.078   0.900   0.999  0.3451  0.2546  0.7765
  103CHL1   H1713833  -0.974   0.876   1.032  0.7378 -0.6378 -1.0011
  103CHL1   C1313834  -1.162   0.907   1.130 -0.2119  0.3409  0.4148
  103CHL1   C1813835  -1.307   0.939   1.092  0.1660  0.4585 -0.4570
  103CHL1  H18A13836  -1.354   0.841   1.073  1.2917 -0.4135  1.0523
  103CHL1  H18B13837  -1.360   0.976   1.182 -1.2625 -1.7110 -0.3416
  103CHL1  H18C13838  -1.317   1.011   1.008  1.1800 -0.8858 -1.7825
  103CHL1   C1213839  -1.151   0.793   1.228  0.3103  0.3152  0.1606
  103CHL1  H12A13840  -1.209   0.711   1.181  0.9700  0.8558 -1.7338
  103CHL1  H12B13841  -1.046   0.765   1.247  0.2566  0.6661  0.9918
  103CHL1   C1113842  -1.226   0.831   1.365  0.2049 -0.3811  0.2584
  103CHL1  H11A13843  -1.334   0.830   1.336  0.5089  2.4117 -1.3171
  103CHL1  H11B13844  -1.209   0.739   1.425  0.8093 -1.0563 -0.8886
  103CHL1    C913845  -1.184   0.971   1.421 -0.5431  0.5467  0.2026
  103CHL1    H913846  -1.081   0.950   1.457 -0.6847 -0.8413 -0.1449
  103CHL1   C1013847  -1.255   1.018   1.544  0.2618  0.2583 -0.1944
  103CHL1   C1913848  -1.405   1.019   1.511  0.7722 -0.3427  0.4148
  103CHL1  H19A13849  -1.448   0.916   1.521 -1.8468  0.4335 -1.7416
  103CHL1  H19B13850  -1.478   1.078   1.571 -1.0904  2.0627 -3.8351
  103CHL1  H19C13851  -1.429   1.055   1.409 -2.0147  0.4181  1.2356
  103CHL1    C113852  -1.235   0.920   1.665  0.1106  0.3614  0.0491
  103CHL1   H1A13853  -1.292   0.832   1.631 -0.5445  1.0135 -0.5670
  103CHL1   H1B13854  -1.127   0.892   1.668 -0.1446 -0.7796 -1.0995
  103CHL1    C213855  -1.300   0.965   1.800  0.0746 -0.0843 -0.1503
  103CHL1   H2A13856  -1.291   0.891   1.882 -1.1613  0.8791  0.8923
  103CHL1   H2B13857  -1.410   0.981   1.798  0.3556  2.4519  0.9228
  103CHL1   C2013858  -1.129   0.799   0.897  0.0686 -0.3168 -0.1824
  103CHL1   H2013859  -1.240   0.803   0.907  0.2724  0.9257  2.3427
  103CHL1   C2113860  -1.071   0.665   0.930  0.4083  0.0984  0.8668
  103CHL1  H21A13861  -1.042   0.667   1.037  1.0647  1.6671  0.6827
  103CHL1  H21B13862  -0.993   0.622   0.863 -1.6916 -0.8719 -1.1093
  103CHL1  H21C13863  -1.153   0.590   0.920 -0.6038  1.2565  0.2906
  103CHL1   C2213864  -1.111   0.839   0.743 -0.0630  0.0709 -0.6478
  103CHL1  H22A13865  -1.174   0.928   0.720 -0.5154 -0.4203 -1.3707
  103CHL1  H22B13866  -1.011   0.884   0.726  0.6374 -0.9824  0.5084
  103CHL1   C2313867  -1.139   0.724   0.649  0.7415  0.2929 -0.0975
  103CHL1  H23A13868  -1.066   0.641   0.655 -1.1418 -1.3306  2.5210
  103CHL1  H23B13869  -1.235   0.680   0.684  2.0881 -1.0375  2.1671
  103CHL1   C2413870  -1.144   0.758   0.504  0.6692 -0.3656  0.1622
  103CHL1  H24A13871  -1.235   0.818   0.483  1.0330 -0.1088 -0.7232
  103CHL1  H24B13872  -1.064   0.833   0.493  0.1515  0.2388  0.4352
  103CHL1   C2513873  -1.125   0.650   0.408  0.9568  0.6987  0.4009
  103CHL1   H2513874  -1.031   0.592   0.423  0.7328  0.2371  0.0606
  103CHL1   C2613875  -1.242   0.549   0.395  0.4249  0.3131 -0.9248
  103CHL1  H26A13876  -1.225   0.475   0.314  1.5951 -1.2184  0.6354
  103CHL1  H26B13877  -1.237   0.496   0.493  1.2455  0.2213 -1.0137
  103CHL1  H26C13878  -1.335   0.605   0.373 -0.1525 -0.3630 -0.2614
  103CHL1   C2713879  -1.111   0.722   0.268  0.7725 -0.2792  0.2867
  103CHL1  H27A13880  -1.100   0.651   0.183  0.8138 -0.7358  0.6668
  103CHL1  H27B13881  -1.204   0.780   0.251  0.5499 -0.0165  2.2163
  103CHL1  H27C13882  -1.028   0.796   0.257  0.1495  0.3077 -0.5907
  104CHL1    C313883   1.479   0.945   1.698  0.3141  0.1073 -0.1132
  104CHL1    H313884   1.386   0.996   1.665  1.0517  1.7335  0.2202
  104CHL1    O313885   1.462   0.907   1.835  0.0155  0.4371  0.8196
  104CHL1   H3'13886   1.471   0.984   1.891  1.8446  0.7630  0.1370
  104CHL1    C413887   1.486   0.812   1.604  0.1622 -0.1537 -0.7253
  104CHL1   H4A13888   1.563   0.742   1.644  0.1412 -0.0685 -0.5342
  104CHL1   H4B13889   1.385   0.769   1.622 -0.2775  0.9894 -0.4040
  104CHL1    C513890   1.507   0.838   1.457  0.2575  0.0038 -0.2569
  104CHL1    C613891   1.425   0.791   1.366  0.0531  0.7428  0.0988
  104CHL1    H613892   1.337   0.730   1.395 -1.9275  2.0114 -2.7507
  104CHL1    C713893   1.434   0.824   1.216 -0.5890 -0.0326  0.5469
  104CHL1   H7A13894   1.405   0.747   1.142  0.4808  1.5643 -1.6451
  104CHL1   H7B13895   1.369   0.907   1.180 -0.0638  0.1941  0.0971
  104CHL1    C813896   1.581   0.860   1.179  0.2543  0.3442 -0.0297
  104CHL1    H813897   1.648   0.772   1.192  1.6992  1.1649 -1.4335
  104CHL1   C1413898   1.587   0.914   1.030  0.7427  0.3051  0.1031
  104CHL1   H1413899   1.505   0.989   1.026  1.4415  1.0240 -1.9867
  104CHL1   C1513900   1.545   0.829   0.909  0.7339  0.0247  0.5240
  104CHL1  H15A13901   1.594   0.729   0.904 -0.7727 -0.7042 -0.3884
  104CHL1  H15B13902   1.437   0.804   0.900  0.7312  0.1028  0.3257
  104CHL1   C1613903   1.591   0.913   0.788  0.4051  0.4727 -0.2150
  104CHL1  H16A13904   1.627   0.848   0.706 -0.4333 -1.0548  0.5767
  104CHL1  H16B13905   1.505   0.969   0.747  0.9090  2.6120  1.4817
  104CHL1   C1713906   1.695   1.018   0.850  0.0188 -0.9005  0.3493
  104CHL1   H1713907   1.648   1.116   0.873  0.9923  0.1031 -1.7314
  104CHL1   C1313908   1.724   0.966   0.991  0.7956 -0.2448  0.5503
  104CHL1   C1813909   1.832   0.857   0.982 -0.6516 -0.0252 -0.1390
  104CHL1  H18A13910   1.933   0.902   0.989 -1.1501  1.2151 -0.6592
  104CHL1  H18B13911   1.825   0.791   1.071 -1.9343  0.1969 -0.0597
  104CHL1  H18C13912   1.818   0.803   0.886  1.4409  1.1445 -1.1733
  104CHL1   C1213913   1.762   1.085   1.090  0.1939 -0.0275 -0.6289
  104CHL1  H12A13914   1.855   1.139   1.061  2.5931 -2.5305  1.7492
  104CHL1  H12B13915   1.680   1.159   1.089 -0.3078 -0.5774 -0.4003
  104CHL1   C1113916   1.766   1.037   1.233  1.1306  0.5484 -0.5039
  104CHL1  H11A13917   1.849   0.964   1.238  0.3777 -0.4908 -2.1431
  104CHL1  H11B13918   1.796   1.112   1.309 -1.5711 -0.7956  2.0767
  104CHL1    C913919   1.632   0.976   1.275 -0.4136  0.7542 -0.2271
  104CHL1    H913920   1.557   1.057   1.267 -0.6331  0.5186 -0.6053
  104CHL1   C1013921   1.626   0.928   1.423 -0.3053  0.5013  0.1676
  104CHL1   C1913922   1.754   0.846   1.456 -0.7434  0.0985 -0.1208
  104CHL1  H19A13923   1.773   0.764   1.383 -1.1753  0.2028 -0.3535
  104CHL1  H19B13924   1.841   0.915   1.448  0.8361 -1.9310 -1.5398
  104CHL1  H19C13925   1.754   0.820   1.565 -0.5108  1.5760  0.2469
  104CHL1    C113926   1.611   1.052   1.515 -1.0529 -0.5615  0.6228
  104CHL1   H1A13927   1.704   1.112   1.508 -2.4531  1.6810  0.2305
  104CHL1   H1B13928   1.532   1.120   1.476 -0.5363 -0.1001  0.3796
  104CHL1    C213929   1.603   1.022   1.672 -0.1965 -0.2831  0.3402
  104CHL1   H2A13930   1.601   1.105   1.746  0.5001 -0.6941  0.8320
  104CHL1   H2B13931   1.694   0.963   1.695  1.8065  2.5674  0.3060
  104CHL1   C2013932   1.812   1.036   0.751 -0.0393  0.6695  0.3155
  104CHL1   H2013933   1.849   0.933   0.731 -0.1517  0.3487  1.6902
  104CHL1   C2113934   1.915   1.136   0.807  0.0351  0.2287 -1.2385
  104CHL1  H21A13935   1.862   1.228   0.837 -0.9219 -0.6649 -0.1297
  104CHL1  H21B13936   1.981   1.163   0.721  2.8365 -0.1679  0.6290
  104CHL1  H21C13937   1.990   1.096   0.879  0.3492  1.3984 -0.9066
  104CHL1   C2213938   1.759   1.081   0.615  0.0070 -0.0299  0.1772
  104CHL1  H22A13939   1.715   0.993   0.563 -1.7024 -0.2106  1.8573
  104CHL1  H22B13940   1.685   1.164   0.623 -1.2417 -0.7083 -2.9592
  104CHL1   C2313941   1.869   1.119   0.505 -0.1664 -0.5391  0.2726
  104CHL1  H23A13942   1.911   1.219   0.525 -1.4836  0.4901 -1.7216
  104CHL1  H23B13943   1.955   1.048   0.513  0.6340  0.5082  1.2322
  104CHL1   C2413944   1.807   1.114   0.362 -0.6519  0.8379 -0.3693
  104CHL1  H24A13945   1.778   1.008   0.347 -2.4716  0.9418  1.8992
  104CHL1  H24B13946   1.706   1.160   0.358 -2.2099 -2.3038 -0.7958
  104CHL1   C2513947   1.894   1.159   0.250 -0.4272 -0.1554  0.2729
  104CHL1   H2513948   1.995   1.115   0.256 -0.8111 -1.0856  0.0289
  104CHL1   C2613949   1.821   1.111   0.131  0.0025  0.1718  0.7247
  104CHL1  H26A13950   1.892   1.099   0.047  0.0058 -0.9520  0.8754
  104CHL1  H26B13951   1.773   1.012   0.148  1.4271 -0.4254  1.3735
  104CHL1  H26C13952   1.735   1.178   0.108 -0.6735 -0.8925  0.1108
  104CHL1   C2713953   1.911   1.311   0.234  0.0829  0.4656  0.0722
  104CHL1  H27A13954   1.972   1.346   0.148 -2.7052  2.6816 -1.1644
  104CHL1  H27B13955   1.812   1.362   0.232 -0.3122 -0.0603  2.5513
  104CHL1  H27C13956   1.956   1.360   0.323  0.3815  0.9128 -0.3216
  105CHL1    C313957   1.090   0.369   1.730  0.7434  0.6181  0.0837
  105CHL1    H313958   1.128   0.265   1.734  2.5727  1.1632 -1.7373
  105CHL1    O313959   1.037   0.410   1.856 -0.1008  0.4471  0.1723
  105CHL1   H3'13960   1.003   0.498   1.840  0.7275  1.3653  2.9339
  105CHL1    C413961   1.190   0.466   1.675 -0.5251  0.0475  0.2700
  105CHL1   H4A13962   1.141   0.566   1.674  2.0419  1.4131 -1.8654
  105CHL1   H4B13963   1.273   0.479   1.747  0.3025  0.4067 -0.7298
  105CHL1    C513964   1.238   0.447   1.538 -0.2356 -0.2685 -0.1886
  105CHL1    C613965   1.368   0.440   1.512  0.2419 -0.0006  0.1395
  105CHL1    H613966   1.441   0.467   1.589  0.3156  0.9812 -0.2634
  105CHL1    C713967   1.437   0.426   1.378  0.1187 -0.6680  0.2112
  105CHL1   H7A13968   1.518   0.501   1.360  0.5465 -0.8250  1.3838
  105CHL1   H7B13969   1.475   0.323   1.361 -0.1457 -0.8345  0.6231
  105CHL1    C813970   1.331   0.451   1.267 -0.5354  0.2654 -0.4692
  105CHL1    H813971   1.317   0.561   1.257  1.7757  0.7013  0.4660
  105CHL1   C1413972   1.388   0.400   1.139  0.3497  0.1300  0.2599
  105CHL1   H1413973   1.407   0.296   1.175 -0.6062  0.0910  0.7045
  105CHL1   C1513974   1.519   0.457   1.091 -0.3560 -0.4718  0.1396
  105CHL1  H15A13975   1.515   0.568   1.102  0.7751 -0.5400  1.5491
  105CHL1  H15B13976   1.609   0.423   1.146  0.3930 -2.0220 -1.9257
  105CHL1   C1613977   1.519   0.413   0.936  0.1085 -0.2288 -0.0035
  105CHL1  H16A13978   1.524   0.503   0.871  0.2862 -0.4577 -0.3117
  105CHL1  H16B13979   1.612   0.355   0.916  0.3974 -0.1818  1.1296
  105CHL1   C1713980   1.379   0.335   0.906 -0.3777 -0.3583 -0.0971
  105CHL1   H1713981   1.401   0.228   0.927 -0.9156 -0.3865  0.3514
  105CHL1   C1313982   1.290   0.397   1.019 -0.3115  1.0833 -0.0564
  105CHL1   C1813983   1.241   0.534   0.978 -0.5961 -0.6583  0.4169
  105CHL1  H18A13984   1.196   0.566   1.074  1.0609 -0.5073  1.1668
  105CHL1  H18B13985   1.312   0.612   0.941 -1.3676 -0.4570 -0.7018
  105CHL1  H18C13986   1.153   0.543   0.911  1.1180  0.5524 -1.8236
  105CHL1   C1213987   1.172   0.308   1.062 -0.2782 -1.1989  0.3850
  105CHL1  H12A13988   1.094   0.303   0.984 -0.0083  0.2169 -0.0012
  105CHL1  H12B13989   1.205   0.203   1.079  1.6975 -0.9732 -1.5410
  105CHL1   C1113990   1.100   0.365   1.188  0.1174 -0.0991  0.0398
  105CHL1  H11A13991   1.046   0.460   1.166  0.1602  0.0917  0.7524
  105CHL1  H11B13992   1.015   0.295   1.205  0.3072 -0.8009 -1.6326
  105CHL1    C913993   1.202   0.379   1.299  1.0265 -0.0124  0.0283
  105CHL1    H913994   1.239   0.276   1.319 -0.1162 -0.2687  0.9042
  105CHL1   C1013995   1.135   0.426   1.432  0.3645  0.2227 -0.3561
  105CHL1   C1913996   1.069   0.562   1.407  0.3635 -0.0193  0.3439
  105CHL1  H19A13997   0.987   0.554   1.334  1.6151  2.7541 -1.5609
  105CHL1  H19B13998   1.028   0.607   1.500  1.1915 -1.2454  1.3421
  105CHL1  H19C13999   1.144   0.626   1.355  2.0534 -1.7134  0.5407
  105CHL1    C114000   1.023   0.331   1.485 -0.3104 -0.4582  0.4961
  105CHL1   H1A14001   0.939   0.335   1.413  1.1422  1.3573 -1.2075
  105CHL1   H1B14002   1.064   0.228   1.481 -0.7967 -0.7064  1.5435
  105CHL1    C214003   0.974   0.362   1.629  0.1912 -0.7603  0.0245
  105CHL1   H2A14004   0.895   0.292   1.664  0.5712 -0.3312  1.8579
  105CHL1   H2B14005   0.928   0.463   1.618  0.0992 -1.0689 -3.5714
  105CHL1   C2014006   1.329   0.346   0.759 -0.3265  0.3701 -0.6189
  105CHL1   H2014007   1.310   0.452   0.732  3.1254  0.8364 -1.7201
  105CHL1   C2114008   1.195   0.265   0.742  0.0909 -0.3927  0.2485
  105CHL1  H21A14009   1.203   0.167   0.795  1.9486  0.3646  1.4552
  105CHL1  H21B14010   1.161   0.259   0.636  2.0348  1.2837 -0.5395
  105CHL1  H21C14011   1.114   0.318   0.795 -0.1125 -0.1054 -0.3425
  105CHL1   C2214012   1.434   0.298   0.656  0.6680 -0.4766  0.0762
  105CHL1  H22A14013   1.539   0.323   0.684 -0.0355  0.8901  1.7039
  105CHL1  H22B14014   1.426   0.187   0.654 -0.6873 -0.4989  2.4823
  105CHL1   C2314015   1.407   0.365   0.516  0.5781  0.3710 -0.0368
  105CHL1  H23A14016   1.298   0.374   0.497 -0.0037  1.6662  3.3239
  105CHL1  H23B14017   1.452   0.467   0.513 -2.0390  1.6057  0.2185
  105CHL1   C2414018   1.469   0.266   0.415 -0.1403  0.0236  0.2552
  105CHL1  H24A14019   1.570   0.237   0.451 -0.0621  0.1103  0.1084
  105CHL1  H24B14020   1.410   0.173   0.402  0.7187 -0.5796  0.5632
  105CHL1   C2514021   1.484   0.330   0.270  0.6739 -0.2754 -0.3454
  105CHL1   H2514022   1.382   0.358   0.234  0.3919  0.9508  1.2751
  105CHL1   C2614023   1.552   0.467   0.271  0.4205  0.2289 -0.0184
  105CHL1  H26A14024   1.560   0.508   0.168 -1.1450 -2.0047 -1.1109
  105CHL1  H26B14025   1.490   0.534   0.334 -1.1169  0.4527 -1.6758
  105CHL1  H26C14026   1.650   0.469   0.323 -0.6508 -0.5106  2.1635
  105CHL1   C2714027   1.549   0.239   0.174 -0.0151 -0.0758  0.0788
  105CHL1  H27A14028   1.650   0.198   0.197 -0.0080 -0.2069 -0.1832
  105CHL1  H27B14029   1.484   0.152   0.157  0.5478 -0.4465 -0.2105
  105CHL1  H27C14030   1.559   0.291   0.076 -0.9753  0.9298  0.4939
  106CHL1    C314031  -2.185   1.505   1.628  0.1391 -1.0292  0.0081
  106CHL1    H314032  -2.291   1.506   1.594 -0.0944  0.3106  0.7041
  106CHL1    O314033  -2.170   1.509   1.771  0.0214 -0.0841 -0.3815
  106CHL1   H3'14034  -2.134   1.423   1.796 -0.1438 -0.4227 -1.2824
  106CHL1    C414035  -2.122   1.372   1.581 -0.3630  0.1193 -0.6874
  106CHL1   H4A14036  -2.018   1.368   1.618 -0.6697  0.5695  0.2487
  106CHL1   H4B14037  -2.163   1.279   1.625 -0.1705  0.4140  0.1203
  106CHL1    C514038  -2.127   1.368   1.430 -0.0440 -0.3498  0.3358
  106CHL1    C614039  -2.186   1.272   1.359 -0.1761  0.0948  0.1324
  106CHL1    H614040  -2.223   1.183   1.411  0.9268 -1.7714 -2.1058
  106CHL1    C714041  -2.194   1.261   1.208 -0.6243 -0.0561  0.3639
  106CHL1   H7A14042  -2.163   1.157   1.183  0.8920  0.5667 -0.5071
  106CHL1   H7B14043  -2.298   1.284   1.176 -0.1842 -0.7172 -1.7067
  106CHL1    C814044  -2.088   1.350   1.139 -0.2404 -0.6578 -0.1295
  106CHL1    H814045  -1.988   1.301   1.137  0.1213 -0.0052  1.1028
  106CHL1   C1414046  -2.132   1.364   0.992 -0.3760 -0.1129 -0.6126
  106CHL1   H1414047  -2.235   1.403   0.993 -1.3652 -2.5528  0.4626
  106CHL1   C1514048  -2.143   1.232   0.894  0.3682 -0.3798 -1.1142
  106CHL1  H15A14049  -2.057   1.171   0.928  2.1636  1.3254 -2.3811
  106CHL1  H15B14050  -2.244   1.192   0.915 -0.2002  1.7146  0.4748
  106CHL1   C1614051  -2.120   1.287   0.750 -0.6971  0.6588  0.0396
  106CHL1  H16A14052  -2.030   1.234   0.713 -2.3378 -0.2782 -2.9488
  106CHL1  H16B14053  -2.205   1.269   0.681 -0.4702  1.3528 -0.4221
  106CHL1   C1714054  -2.097   1.438   0.772 -0.7185 -0.3127  0.7718
  106CHL1   H1714055  -2.203   1.472   0.772 -0.7999 -0.4118 -1.4737
  106CHL1   C1314056  -2.037   1.454   0.913 -0.5672  0.6276 -0.7730
  106CHL1   C1814057  -1.889   1.405   0.909  0.3069  0.0108  0.5864
  106CHL1  H18A14058  -1.835   1.468   0.836  2.3935 -2.6375 -0.3280
  106CHL1  H18B14059  -1.832   1.410   1.004 -2.6605  1.3939  2.4487
  106CHL1  H18C14060  -1.877   1.302   0.870  2.1885  0.4104  0.0351
  106CHL1   C1214061  -2.036   1.595   0.977  0.1788 -0.1317  0.3116
  106CHL1  H12A14062  -1.975   1.669   0.922  1.3973 -1.6141 -0.3928
  106CHL1  H12B14063  -2.135   1.643   0.961  0.5390  0.5672  0.1329
  106CHL1   C1114064  -1.995   1.592   1.125  0.6617  0.0323  0.0654
  106CHL1  H11A14065  -1.887   1.567   1.135  0.5819 -0.6195 -0.5887
  106CHL1  H11B14066  -2.006   1.693   1.171  1.2150 -0.2133  0.7459
  106CHL1    C914067  -2.085   1.490   1.201 -0.0496  0.4895  0.7715
  106CHL1    H914068  -2.184   1.537   1.185  0.4918  1.9662  1.5872
  106CHL1   C1014069  -2.056   1.487   1.351  0.6119  0.3576 -0.6486
  106CHL1   C1914070  -1.910   1.464   1.379 -0.3170  0.3704  0.9704
  106CHL1  H19A14071  -1.856   1.557   1.350  0.1579  0.2266  1.3762
  106CHL1  H19B14072  -1.883   1.433   1.482  1.8937 -1.5892 -0.1032
  106CHL1  H19C14073  -1.862   1.381   1.322  3.6775  1.8998  1.7456
  106CHL1    C114074  -2.099   1.621   1.414 -0.3692  1.3651  0.2348
  106CHL1   H1A14075  -2.026   1.693   1.371  2.1668 -1.4329 -0.4809
  106CHL1   H1B14076  -2.200   1.654   1.381 -0.8893  0.0128  0.4341
  106CHL1    C214077  -2.097   1.615   1.567  0.1948 -0.0756  0.1256
  106CHL1   H2A14078  -2.135   1.714   1.601  0.0734 -0.2725  0.5720
  106CHL1   H2B14079  -1.996   1.605   1.613  0.5397  0.6799 -0.4468
  106CHL1   C2014080  -2.017   1.505   0.663  0.1742  0.0316 -0.7776
  106CHL1   H2014081  -1.953   1.574   0.722  0.3831  2.4869 -3.6082
  106CHL1   C2114082  -2.115   1.603   0.595 -0.0133  0.1768 -0.0129
  106CHL1  H21A14083  -2.197   1.544   0.548  1.2768 -1.7869  0.0618
  106CHL1  H21B14084  -2.066   1.660   0.513  0.4255 -0.5291 -0.2519
  106CHL1  H21C14085  -2.155   1.677   0.668 -1.6315  0.2171 -0.8994
  106CHL1   C2214086  -1.949   1.413   0.559  0.4993  0.8748 -0.1820
  106CHL1  H22A14087  -1.869   1.353   0.608 -0.7970 -2.4530 -1.8440
  106CHL1  H22B14088  -2.013   1.331   0.519  1.5208  0.1848 -0.4494
  106CHL1   C2314089  -1.873   1.475   0.431 -0.1184  0.5254 -0.3607
  106CHL1  H23A14090  -1.946   1.486   0.348 -1.6827 -1.0730  0.7295
  106CHL1  H23B14091  -1.836   1.575   0.461 -2.2091  1.0226  0.7481
  106CHL1   C2414092  -1.763   1.384   0.390 -0.2584 -0.2309 -0.0862
  106CHL1  H24A14093  -1.687   1.377   0.470 -0.6064  1.2638  0.4165
  106CHL1  H24B14094  -1.811   1.287   0.365 -0.0038 -0.1785 -0.8111
  106CHL1   C2514095  -1.681   1.435   0.264 -0.4159 -0.4418  0.0797
  106CHL1   H2514096  -1.650   1.538   0.294  0.7527 -1.3610  2.2633
  106CHL1   C2614097  -1.558   1.341   0.241  0.4088 -0.2410  0.3028
  106CHL1  H26A14098  -1.606   1.244   0.216  1.0673 -0.4352 -0.2456
  106CHL1  H26B14099  -1.501   1.380   0.154 -0.6794  0.3145 -0.1956
  106CHL1  H26C14100  -1.491   1.336   0.329  0.1280  0.2394  0.5474
  106CHL1   C2714101  -1.779   1.442   0.140 -0.5083 -0.0255 -0.5466
  106CHL1  H27A14102  -1.852   1.520   0.169  0.9987  0.7329  1.4477
  106CHL1  H27B14103  -1.727   1.485   0.051 -1.8890  0.4376 -1.1468
  106CHL1  H27C14104  -1.825   1.342   0.127  0.6553 -0.7731  0.8038
  107CHL1    C314105  -0.474   3.004   1.735 -0.3310  0.3079 -0.2955
  107CHL1    H314106  -0.557   3.077   1.722 -0.3963  0.5301  1.1634
  107CHL1    O314107  -0.462   2.989   1.877 -0.5173  0.1890  0.4469
  107CHL1   H3'14108  -0.555   2.978   1.898 -0.8218  1.4802 -0.0907
  107CHL1    C414109  -0.514   2.870   1.677 -0.2327  0.0102 -0.1794
  107CHL1   H4A14110  -0.435   2.799   1.713  1.0701  0.4216 -2.0859
  107CHL1   H4B14111  -0.602   2.826   1.728 -0.5490  0.9754  0.1120
  107CHL1    C514112  -0.524   2.876   1.530  0.2339  0.4934  0.1734
  107CHL1    C614113  -0.635   2.837   1.465 -0.7385  0.1220 -0.5669
  107CHL1    H614114  -0.725   2.809   1.522 -0.7043 -0.6228 -0.8625
  107CHL1    C714115  -0.654   2.840   1.309 -0.3695 -0.1070  0.3294
  107CHL1   H7A14116  -0.695   2.745   1.269  1.5780 -1.4205  1.2871
  107CHL1   H7B14117  -0.725   2.922   1.285 -1.5759 -0.5650  2.1032
  107CHL1    C814118  -0.522   2.857   1.231 -0.1055 -0.0623 -1.0868
  107CHL1    H814119  -0.463   2.764   1.236 -2.1608 -1.3680  1.0382
  107CHL1   C1414120  -0.548   2.891   1.083  0.0609  0.4118  0.7229
  107CHL1   H1414121  -0.600   2.988   1.100  0.1095  0.3954  0.9700
  107CHL1   C1514122  -0.647   2.801   1.007  0.5844 -0.5934  0.3617
  107CHL1  H15A14123  -0.613   2.697   1.026 -1.7334 -1.0856  2.2917
  107CHL1  H15B14124  -0.748   2.812   1.051  0.0441 -2.4541 -0.3152
  107CHL1   C1614125  -0.609   2.830   0.859 -0.2608  0.3933  0.4817
  107CHL1  H16A14126  -0.560   2.742   0.812  0.6261  1.3682 -0.4723
  107CHL1  H16B14127  -0.695   2.859   0.794 -0.8362  0.2233  1.1560
  107CHL1   C1714128  -0.490   2.932   0.857 -0.4065  0.3097  0.1498
  107CHL1   H1714129  -0.535   3.034   0.859  0.5786  0.7416  1.5036
  107CHL1   C1314130  -0.422   2.911   0.998  0.1375  0.2443  0.6078
  107CHL1   C1814131  -0.334   2.786   0.997  0.0207  0.1400  0.0817
  107CHL1  H18A14132  -0.249   2.782   0.925 -0.3733 -0.6370 -0.3572
  107CHL1  H18B14133  -0.301   2.735   1.091  1.7903 -2.7450 -1.9285
  107CHL1  H18C14134  -0.401   2.708   0.955 -1.4792  0.4585  1.7729
  107CHL1   C1214135  -0.346   3.032   1.060  0.3751 -0.6487 -0.2732
  107CHL1  H12A14136  -0.249   3.053   1.011  1.5122  1.4329  2.6354
  107CHL1  H12B14137  -0.411   3.122   1.053  0.1147 -0.8421 -0.3747
  107CHL1   C1114138  -0.316   3.009   1.213 -0.6851 -0.1959  0.0802
  107CHL1  H11A14139  -0.238   2.932   1.227  1.5578  1.9707  0.0689
  107CHL1  H11B14140  -0.266   3.098   1.257 -0.5719  0.1587 -0.7375
  107CHL1    C914141  -0.439   2.971   1.302 -0.0497 -0.0483  0.1761
  107CHL1    H914142  -0.503   3.061   1.305  0.2097  0.1527 -0.2691
  107CHL1   C1014143  -0.401   2.934   1.451 -0.4776 -0.4253 -0.6502
  107CHL1   C1914144  -0.273   2.844   1.453  0.5893 -0.4268 -0.0718
  107CHL1  H19A14145  -0.248   2.810   1.555 -2.2062  0.3261  0.9571
  107CHL1  H19B14146  -0.293   2.750   1.397  0.3383 -0.6600  0.4084
  107CHL1  H19C14147  -0.178   2.895   1.424  0.4567 -0.1395 -0.0114
  107CHL1    C114148  -0.362   3.069   1.527  0.5044  0.6983 -0.0801
  107CHL1   H1A14149  -0.269   3.111   1.484 -0.0867  0.9751 -1.1464
  107CHL1   H1B14150  -0.437   3.148   1.504  0.8524  0.7120 -1.2405
  107CHL1    C214151  -0.344   3.062   1.676  0.0776 -0.1398  0.4721
  107CHL1   H2A14152  -0.299   3.153   1.721  0.9540 -0.5204  0.3937
  107CHL1   H2B14153  -0.268   2.987   1.705  0.5848  0.5153  0.8651
  107CHL1   C2014154  -0.403   2.912   0.732 -0.1520 -0.5639 -0.0705
  107CHL1   H2014155  -0.340   2.822   0.747  2.2764  0.8384 -1.1580
  107CHL1   C2114156  -0.299   3.030   0.716  1.1195  0.1128 -0.3526
  107CHL1  H21A14157  -0.348   3.124   0.683  0.5402  1.2284  3.2451
  107CHL1  H21B14158  -0.216   2.997   0.650  0.2008 -0.5856 -1.1836
  107CHL1  H21C14159  -0.251   3.038   0.816  1.0435  2.4495 -0.4518
  107CHL1   C2214160  -0.482   2.897   0.596 -0.2548  0.8517 -0.0393
  107CHL1  H22A14161  -0.530   2.797   0.596  1.5250 -0.1316 -2.7468
  107CHL1  H22B14162  -0.542   2.990   0.594 -1.4980  0.0709 -1.9777
  107CHL1   C2314163  -0.393   2.887   0.465  0.7201 -0.2469  0.3004
  107CHL1  H23A14164  -0.352   2.985   0.432 -1.6481  0.9910  0.7961
  107CHL1  H23B14165  -0.321   2.805   0.485 -0.8749 -1.6295  0.6015
  107CHL1   C2414166  -0.481   2.849   0.340  0.2925 -0.0193 -0.1636
  107CHL1  H24A14167  -0.519   2.746   0.357  0.4993 -0.4739 -2.2271
  107CHL1  H24B14168  -0.561   2.925   0.327 -1.4680 -1.7753 -0.0623
  107CHL1   C2514169  -0.402   2.851   0.198  0.3179  0.4729 -0.3653
  107CHL1   H2514170  -0.342   2.758   0.194 -0.0561  0.1848  0.4707
  107CHL1   C2614171  -0.501   2.851   0.076  0.1073  0.0725  0.4351
  107CHL1  H26A14172  -0.450   2.837  -0.022  2.1211  3.7823  0.7558
  107CHL1  H26B14173  -0.582   2.775   0.084 -0.3549  0.4628 -0.4259
  107CHL1  H26C14174  -0.559   2.945   0.073  0.8823  0.6130  1.4442
  107CHL1   C2714175  -0.300   2.968   0.183  0.3193  0.0777 -0.7878
  107CHL1  H27A14176  -0.217   2.971   0.257 -0.3281  1.0805 -0.0820
  107CHL1  H27B14177  -0.247   2.965   0.085  0.3840 -1.3838 -0.7294
  107CHL1  H27C14178  -0.354   3.064   0.188  1.7630  0.8619  1.9729
  108CHL1    C314179   0.846   0.066   1.996  0.3848 -0.7424  0.0994
  108CHL1    H314180   0.884   0.168   1.974 -0.7020 -0.6201 -1.3665
  108CHL1    O314181   0.832   0.057   2.137  0.2628  0.4135  0.8027
  108CHL1   H3'14182   0.924   0.061   2.166  0.7833 -0.1208 -0.6794
  108CHL1    C414183   0.703   0.063   1.925  0.3217  0.3564 -0.1323
  108CHL1   H4A14184   0.645  -0.024   1.963 -0.4683  1.1624  0.5760
  108CHL1   H4B14185   0.631   0.139   1.964 -0.6188 -0.6585  0.1621
  108CHL1    C514186   0.710   0.062   1.776 -0.4734 -0.1833  0.5825
  108CHL1    C614187   0.637   0.145   1.702 -0.2743  0.0213 -0.4480
  108CHL1    H614188   0.575   0.220   1.755  1.8848  2.1078 -0.6762
  108CHL1    C714189   0.626   0.145   1.555  0.3470  0.1812  0.5453
  108CHL1   H7A14190   0.522   0.149   1.517  0.4617 -1.9304 -0.1498
  108CHL1   H7B14191   0.678   0.239   1.526  2.5728 -1.1503  0.0159
  108CHL1    C814192   0.704   0.034   1.486  0.0193 -0.4486  0.3780
  108CHL1    H814193   0.648  -0.062   1.494  0.5844 -0.9292 -0.9776
  108CHL1   C1414194   0.737   0.076   1.344  0.2460 -0.1334  0.0566
  108CHL1   H1414195   0.803   0.166   1.345 -0.2166  0.2138  1.2373
  108CHL1   C1514196   0.622   0.110   1.254 -0.3601  0.3614  0.0321
  108CHL1  H15A14197   0.549   0.028   1.274 -0.2769 -0.2183 -1.8461
  108CHL1  H15B14198   0.567   0.205   1.265 -1.5254 -0.3038  0.0680
  108CHL1   C1614199   0.676   0.104   1.112 -0.2966  0.1123 -0.2118
  108CHL1  H16A14200   0.603   0.042   1.055 -2.3791  0.5006  1.8659
  108CHL1  H16B14201   0.681   0.204   1.064  3.4263  0.7576  1.1790
  108CHL1   C1714202   0.817   0.036   1.126  0.2627  0.2221  0.1863
  108CHL1   H1714203   0.889   0.121   1.132 -2.2620  2.7207 -1.9894
  108CHL1   C1314204   0.816  -0.034   1.264  0.2046 -0.0958  0.1794
  108CHL1   C1814205   0.737  -0.170   1.254  0.2627  0.3513 -0.2384
  108CHL1  H18A14206   0.716  -0.225   1.348  0.1250 -0.0062 -0.4747
  108CHL1  H18B14207   0.635  -0.153   1.213 -0.9577 -0.8717  2.1267
  108CHL1  H18C14208   0.803  -0.238   1.196  1.0529  0.8928  0.0228
  108CHL1   C1214209   0.950  -0.053   1.336 -0.8882 -0.5401  0.2701
  108CHL1  H12A14210   1.011  -0.122   1.273 -0.4685 -0.3295  0.4357
  108CHL1  H12B14211   1.005   0.043   1.327 -0.4320 -0.8040  0.1938
  108CHL1   C1114212   0.932  -0.086   1.481 -0.3703 -0.8192 -0.1390
  108CHL1  H11A14213   0.885  -0.187   1.470 -2.3965  0.1475 -0.8078
  108CHL1  H11B14214   1.035  -0.094   1.521  0.0076 -0.4048 -1.0078
  108CHL1    C914215   0.838   0.007   1.558 -0.3427 -0.0279  0.0457
  108CHL1    H914216   0.894   0.103   1.567 -0.3902 -0.0562  0.6779
  108CHL1   C1014217   0.814  -0.036   1.707  0.6745 -0.4537  0.4882
  108CHL1   C1914218   0.756  -0.181   1.724  1.0784 -0.4338  0.0695
  108CHL1  H19A14219   0.661  -0.198   1.669 -0.1587  3.2034  0.8061
  108CHL1  H19B14220   0.825  -0.248   1.667  1.1237  1.2599 -2.0032
  108CHL1  H19C14221   0.736  -0.221   1.825 -3.0790  1.0587  0.0202
  108CHL1    C114222   0.946  -0.022   1.784 -0.6228  0.9462  0.5514
  108CHL1   H1A14223   1.015  -0.101   1.747 -1.6251 -1.0829  2.7296
  108CHL1   H1B14224   1.005   0.070   1.770  0.6713  0.2822  1.4108
  108CHL1    C214225   0.935  -0.041   1.938 -0.3025 -0.5393 -0.3585
  108CHL1   H2A14226   1.038  -0.046   1.979 -0.5383  0.7244  0.4497
  108CHL1   H2B14227   0.887  -0.140   1.957 -2.0266  0.5598  1.4208
  108CHL1   C2014228   0.864  -0.038   1.000  0.1732 -0.3736 -0.3313
  108CHL1   H2014229   0.795  -0.113   0.957 -0.9882  1.3604 -1.6322
  108CHL1   C2114230   0.994  -0.117   1.016  0.8840 -0.1982  0.4952
  108CHL1  H21A14231   1.029  -0.150   0.915  0.2865 -0.0935  0.2522
  108CHL1  H21B14232   0.980  -0.211   1.073 -0.5019 -0.3987 -0.1330
  108CHL1  H21C14233   1.072  -0.057   1.067  1.8921  0.0392 -1.2185
  108CHL1   C2214234   0.870   0.060   0.884 -0.5222 -0.0770  0.3616
  108CHL1  H22A14235   0.793   0.140   0.875  0.2601  0.6304 -0.3087
  108CHL1  H22B14236   0.970   0.110   0.887  0.2608 -1.6111  2.4898
  108CHL1   C2314237   0.849  -0.011   0.747 -0.2330 -0.0994 -0.9358
  108CHL1  H23A14238   0.924  -0.092   0.738 -0.6759 -0.6765  0.2765
  108CHL1  H23B14239   0.748  -0.056   0.754 -0.0743 -0.2296  2.5019
  108CHL1   C2414240   0.865   0.087   0.631  0.4343 -0.0443 -0.1396
  108CHL1  H24A14241   0.804   0.176   0.658  1.4900  0.2462  1.4245
  108CHL1  H24B14242   0.970   0.124   0.625  1.2018 -1.0217  4.0671
  108CHL1   C2514243   0.811   0.041   0.489 -0.0413 -0.3209  0.3208
  108CHL1   H2514244   0.823  -0.070   0.485  1.8449 -0.2958  2.6794
  108CHL1   C2614245   0.661   0.064   0.461 -0.4085  0.1859  0.1777
  108CHL1  H26A14246   0.631   0.171   0.471  1.3936  0.5715  2.0726
  108CHL1  H26B14247   0.628   0.027   0.362 -1.5836 -0.8849  0.9380
  108CHL1  H26C14248   0.603   0.010   0.539 -0.3871  0.4202  0.3603
  108CHL1   C2714249   0.885   0.114   0.377 -0.1420  0.7380 -0.3805
  108CHL1  H27A14250   0.857   0.073   0.277  0.5948  0.4194 -0.4651
  108CHL1  H27B14251   0.882   0.224   0.386  3.6140  0.8698  0.9432
  108CHL1  H27C14252   0.994   0.102   0.393 -0.2526 -1.4934 -0.8700
  109CHL1    C314253  -1.323  -2.796   1.934 -0.4639  0.0518 -0.5851
  109CHL1    H314254  -1.357  -2.900   1.913  0.9724 -0.8623  1.2189
  109CHL1    O314255  -1.332  -2.779   2.073 -0.3283 -0.3194  0.2255
  109CHL1   H3'14256  -1.318  -2.684   2.079 -0.3685 -0.4068  2.8121
  109CHL1    C414257  -1.180  -2.775   1.881  0.6625  0.1784 -0.2420
  109CHL1   H4A14258  -1.145  -2.673   1.908 -0.4826  1.5222 -3.3501
  109CHL1   H4B14259  -1.117  -2.852   1.931  0.6699 -0.6726 -1.5137
  109CHL1    C514260  -1.169  -2.771   1.729  0.9805 -0.5520 -0.8308
  109CHL1    C614261  -1.080  -2.854   1.667  0.0451 -0.5119 -0.5606
  109CHL1    H614262  -1.017  -2.921   1.727  0.5587  0.8205  0.4468
  109CHL1    C714263  -1.064  -2.847   1.518 -0.7119 -0.8748  0.2138
  109CHL1   H7A14264  -0.958  -2.856   1.486 -0.5117 -0.8277  0.8503
  109CHL1   H7B14265  -1.111  -2.934   1.468 -1.4961  0.2168 -1.0228
  109CHL1    C814266  -1.126  -2.724   1.452 -0.2128 -0.6848  0.0161
  109CHL1    H814267  -1.066  -2.636   1.484  1.5469 -1.8584  0.0778
  109CHL1   C1414268  -1.130  -2.732   1.304  0.3514  0.1343 -0.2670
  109CHL1   H1414269  -1.199  -2.818   1.289  0.7637 -0.1080 -0.8175
  109CHL1   C1514270  -1.002  -2.771   1.236  0.0475 -0.3740  0.2286
  109CHL1  H15A14271  -0.919  -2.715   1.284  0.7673 -0.8312 -0.4604
  109CHL1  H15B14272  -0.977  -2.879   1.237 -0.9824 -0.6441  1.8785
  109CHL1   C1614273  -1.020  -2.726   1.089  0.3557 -0.9012 -0.2443
  109CHL1  H16A14274  -0.937  -2.655   1.069  0.6402 -1.1708 -0.0295
  109CHL1  H16B14275  -0.993  -2.816   1.030  1.7799 -1.1669  0.7506
  109CHL1   C1714276  -1.165  -2.662   1.080  0.9313  0.6749 -0.3937
  109CHL1   H1714277  -1.232  -2.748   1.057 -1.9840  2.7778 -0.2775
  109CHL1   C1314278  -1.192  -2.613   1.228  0.0334 -0.2503 -0.2738
  109CHL1   C1814279  -1.122  -2.481   1.245  0.6664 -0.4003  0.0979
  109CHL1  H18A14280  -1.030  -2.477   1.182 -0.4495 -0.7745 -1.6231
  109CHL1  H18B14281  -1.182  -2.393   1.212  0.9119  0.3968  1.6670
  109CHL1  H18C14282  -1.107  -2.452   1.351  0.8855 -1.8025  0.4727
  109CHL1   C1214283  -1.337  -2.618   1.278 -0.2537 -0.3314 -0.2643
  109CHL1  H12A14284  -1.378  -2.537   1.214 -0.0513 -0.5437 -0.6684
  109CHL1  H12B14285  -1.396  -2.706   1.246 -1.0524 -0.3559  1.1827
  109CHL1   C1114286  -1.350  -2.597   1.431 -0.0982 -0.4143  0.0736
  109CHL1  H11A14287  -1.313  -2.493   1.446 -0.6686 -0.5620  3.0060
  109CHL1  H11B14288  -1.455  -2.620   1.455  0.0642 -3.0750 -1.4265
  109CHL1    C914289  -1.268  -2.701   1.513  0.5627  0.4157 -0.0269
  109CHL1    H914290  -1.315  -2.801   1.498  1.6020 -0.0739 -0.0744
  109CHL1   C1014291  -1.272  -2.679   1.666 -0.1388 -0.0659  0.5443
  109CHL1   C1914292  -1.222  -2.536   1.697  0.6952  0.1206 -0.1700
  109CHL1  H19A14293  -1.271  -2.462   1.631 -1.4994 -1.3766 -0.3488
  109CHL1  H19B14294  -1.234  -2.502   1.802  3.2015 -0.8220  0.4899
  109CHL1  H19C14295  -1.115  -2.528   1.669  0.5504  0.3860 -0.6558
  109CHL1    C114296  -1.410  -2.697   1.713  0.0274 -0.0230  0.2633
  109CHL1   H1A14297  -1.482  -2.618   1.680 -0.5313 -0.3633  0.6540
  109CHL1   H1B14298  -1.453  -2.795   1.682 -1.8030  0.7728  0.1723
  109CHL1    C214299  -1.426  -2.700   1.874  0.9081 -0.1261  0.6261
  109CHL1   H2A14300  -1.528  -2.732   1.904  1.1753 -1.8003 -0.1145
  109CHL1   H2B14301  -1.402  -2.598   1.910  3.9412  0.0336 -1.4532
  109CHL1   C2014302  -1.194  -2.578   0.954  0.5322 -0.5439  0.1177
  109CHL1   H2014303  -1.137  -2.482   0.960 -0.1031 -0.0126 -1.6333
  109CHL1   C2114304  -1.345  -2.533   0.948 -0.4791  0.5319  0.1924
  109CHL1  H21A14305  -1.409  -2.620   0.971  0.1893 -0.3801 -1.2764
  109CHL1  H21B14306  -1.360  -2.498   0.844 -1.4112 -1.8961 -0.5526
  109CHL1  H21C14307  -1.372  -2.454   1.022 -0.0771  2.2372 -1.4007
  109CHL1   C2214308  -1.156  -2.658   0.824 -0.3608  0.5957  0.0287
  109CHL1  H22A14309  -1.058  -2.711   0.836 -0.8962 -1.0329 -2.1196
  109CHL1  H22B14310  -1.234  -2.737   0.821 -0.8153  1.0718 -0.8039
  109CHL1   C2314311  -1.145  -2.568   0.691 -0.2455 -0.3098 -0.5250
  109CHL1  H23A14312  -1.244  -2.519   0.683  0.9397  2.4042  0.1982
  109CHL1  H23B14313  -1.070  -2.489   0.713  0.8835 -1.0891 -1.4249
  109CHL1   C2414314  -1.122  -2.654   0.565  0.2879  0.3985 -0.2523
  109CHL1  H24A14315  -1.032  -2.719   0.575 -1.0414 -1.6606 -0.8863
  109CHL1  H24B14316  -1.205  -2.728   0.557  1.9251 -1.5422 -0.1432
  109CHL1   C2514317  -1.096  -2.582   0.433 -0.5287  0.0530 -0.1646
  109CHL1   H2514318  -1.195  -2.543   0.400 -1.5846 -2.2458  0.0606
  109CHL1   C2614319  -0.988  -2.469   0.434  0.5419 -0.1390 -0.4226
  109CHL1  H26A14320  -0.983  -2.401   0.346 -0.2877  2.2784  1.3094
  109CHL1  H26B14321  -1.008  -2.407   0.524 -1.6809 -1.9298  0.4201
  109CHL1  H26C14322  -0.889  -2.518   0.442  0.1642 -1.0199 -0.9854
  109CHL1   C2714323  -1.060  -2.684   0.322  0.1590 -0.1350 -0.1229
  109CHL1  H27A14324  -0.992  -2.759   0.367 -0.6985 -1.2947 -0.7277
  109CHL1  H27B14325  -1.150  -2.747   0.306  0.8198 -0.5412 -2.5328
  109CHL1  H27C14326  -1.024  -2.637   0.228  1.7418 -0.2394  0.4019
  110CHL1    C314327   3.141   1.833   1.504 -0.9366 -0.1638  0.1314
  110CHL1    H314328   3.246   1.843   1.541 -0.5554  0.2276 -1.0042
  110CHL1    O314329   3.060   1.799   1.616 -0.0685  0.4170 -0.4513
  110CHL1   H3'14330   3.070   1.868   1.682  1.7732  0.2456 -0.4989
  110CHL1    C414331   3.096   1.964   1.436  0.8658  0.2224  0.1745
  110CHL1   H4A14332   2.987   1.944   1.428  0.4547  2.5293 -0.6265
  110CHL1   H4B14333   3.108   2.047   1.509  0.2503 -0.4489  1.0740
  110CHL1    C514334   3.139   1.998   1.294 -0.4732 -0.0778 -0.0641
  110CHL1    C614335   3.192   2.121   1.266 -0.1970  0.3136  0.9026
  110CHL1    H614336   3.199   2.201   1.341 -0.2980  0.6522  0.5539
  110CHL1    C714337   3.233   2.152   1.127 -0.3341  0.0635  0.7537
  110CHL1   H7A14338   3.206   2.255   1.093 -0.7122 -0.2656  0.0316
  110CHL1   H7B14339   3.343   2.154   1.116 -0.4687  0.3369 -0.7430
  110CHL1    C814340   3.180   2.055   1.018 -0.2750  0.1791 -0.4143
  110CHL1    H814341   3.070   2.070   1.019 -0.4965 -0.8237  2.6742
  110CHL1   C1414342   3.233   2.077   0.879 -0.1796 -0.1768 -0.6942
  110CHL1   H1414343   3.344   2.075   0.875 -0.1007  1.4731 -0.0837
  110CHL1   C1514344   3.210   2.217   0.818  0.8597  0.2436  0.9114
  110CHL1  H15A14345   3.104   2.249   0.823  1.1073  0.9237  2.2524
  110CHL1  H15B14346   3.275   2.297   0.859  1.3832 -0.9247  2.4583
  110CHL1   C1614347   3.229   2.197   0.667  0.9982  0.0532 -0.2676
  110CHL1  H16A14348   3.154   2.248   0.603  1.6245 -0.6758 -1.6546
  110CHL1  H16B14349   3.330   2.237   0.646  0.5760  0.9458 -0.6251
  110CHL1   C1714350   3.233   2.040   0.641 -0.0407 -0.1369  0.3427
  110CHL1   H1714351   3.338   2.005   0.641 -0.5489 -1.7727  0.4621
  110CHL1   C1314352   3.179   1.977   0.775 -0.7852  0.1237 -1.0528
  110CHL1   C1814353   3.027   1.983   0.766  0.1789 -0.5429  0.8192
  110CHL1  H18A14354   2.964   1.977   0.857  2.8929 -0.3054  2.8647
  110CHL1  H18B14355   2.985   2.068   0.708 -1.7084 -2.2507 -0.4198
  110CHL1  H18C14356   2.990   1.909   0.693  0.8510  0.3011 -0.4219
  110CHL1   C1214357   3.231   1.840   0.813 -0.2488 -0.2828  0.1179
  110CHL1  H12A14358   3.185   1.770   0.739 -0.3190  1.5565 -1.6811
  110CHL1  H12B14359   3.341   1.827   0.806 -0.5627 -3.0126 -1.1528
  110CHL1   C1114360   3.182   1.800   0.954  0.3401  0.1753 -1.9315
  110CHL1  H11A14361   3.071   1.790   0.946  0.1992  0.3645 -0.5090
  110CHL1  H11B14362   3.226   1.702   0.982  1.6193  1.2522  0.0123
  110CHL1    C914363   3.203   1.915   1.063  0.0332 -0.3100 -0.1451
  110CHL1    H914364   3.312   1.909   1.085 -0.5049 -2.5198  2.3646
  110CHL1   C1014365   3.138   1.884   1.196  0.1691  0.6497  0.0120
  110CHL1   C1914366   2.985   1.859   1.170 -0.0886  0.4075 -0.1406
  110CHL1  H19A14367   2.919   1.847   1.259  1.5951 -0.8638  0.9894
  110CHL1  H19B14368   2.943   1.945   1.113  0.2937 -0.3097 -1.5512
  110CHL1  H19C14369   2.976   1.766   1.108  1.3956  1.0865 -1.4367
  110CHL1    C114370   3.189   1.755   1.261  0.1665  0.4902 -0.4750
  110CHL1   H1A14371   3.176   1.670   1.190 -1.4273  1.1393 -1.0105
  110CHL1   H1B14372   3.299   1.762   1.264  0.4479 -2.2972 -1.2851
  110CHL1    C214373   3.134   1.720   1.404 -0.1135 -0.3300  0.0635
  110CHL1   H2A14374   3.194   1.642   1.456  2.2319  0.6446 -1.0224
  110CHL1   H2B14375   3.033   1.673   1.401  0.4091 -1.6253  1.4035
  110CHL1   C2014376   3.187   2.004   0.497  0.2124  0.2693 -0.2734
  110CHL1   H2014377   3.080   2.028   0.482 -0.6434 -2.5446  0.5792
  110CHL1   C2114378   3.188   1.853   0.467 -0.1884 -0.3866  0.9905
  110CHL1  H21A14379   3.286   1.811   0.498  0.9625 -0.0215 -1.8425
  110CHL1  H21B14380   3.182   1.843   0.357  1.9263 -0.5064  0.8567
  110CHL1  H21C14381   3.108   1.796   0.520 -0.3017 -1.2939 -0.1301
  110CHL1   C2214382   3.294   2.071   0.405  0.2757 -0.0284 -0.2308
  110CHL1  H22A14383   3.351   2.157   0.446 -1.1686  0.2830  1.2046
  110CHL1  H22B14384   3.375   2.000   0.380  0.9921  0.1055  1.5494
  110CHL1   C2314385   3.224   2.115   0.276  0.7633  0.3015  0.2471
  110CHL1  H23A14386   3.172   2.026   0.232  1.4080  0.4475 -0.8597
  110CHL1  H23B14387   3.138   2.181   0.296 -0.2068 -1.4718  2.3874
  110CHL1   C2414388   3.328   2.159   0.168  0.0823  0.4861  0.0408
  110CHL1  H24A14389   3.281   2.207   0.080 -1.5073 -1.3777 -0.1853
  110CHL1  H24B14390   3.394   2.219   0.234 -1.2822  0.6735  1.2834
  110CHL1   C2514391   3.423   2.040   0.116  0.2364  0.6322  0.2956
  110CHL1   H2514392   3.469   1.987   0.203  0.7678  0.3436 -0.1576
  110CHL1   C2614393   3.340   1.942   0.028 -0.1880 -0.2694  0.6856
  110CHL1  H26A14394   3.249   1.905   0.081 -0.4375 -0.1765  0.3261
  110CHL1  H26B14395   3.311   1.993  -0.066  2.8274  0.3318 -0.0104
  110CHL1  H26C14396   3.409   1.860  -0.001  2.1840  1.5554  0.9166
  110CHL1   C2714397   3.546   2.101   0.040  0.7742  0.0576  0.3841
  110CHL1  H27A14398   3.610   2.161   0.107 -1.4352  0.3380  2.3740
  110CHL1  H27B14399   3.588   2.009  -0.006 -2.4035 -1.4692  0.2169
  110CHL1  H27C14400   3.496   2.165  -0.036  0.5326 -2.9745 -2.2586
  111CHL1    C314401  -0.634  -3.223   1.795 -0.2296  0.2344 -0.2915
  111CHL1    H314402  -0.524  -3.218   1.808 -0.3070  1.5508  0.0103
  111CHL1    O314403  -0.695  -3.232   1.925 -0.6186 -0.1087  0.6246
  111CHL1   H3'14404  -0.790  -3.237   1.911 -1.4571  0.0173  4.8832
  111CHL1    C414405  -0.681  -3.101   1.724  0.1815  0.0788  0.1320
  111CHL1   H4A14406  -0.792  -3.107   1.730  0.1594  0.8047  0.4998
  111CHL1   H4B14407  -0.642  -3.011   1.776 -0.6017  1.5002 -1.6371
  111CHL1    C514408  -0.650  -3.101   1.576 -0.4496 -0.4082  0.2663
  111CHL1    C614409  -0.585  -2.999   1.522  0.4532 -0.0566 -0.5622
  111CHL1    H614410  -0.567  -2.911   1.585  2.8424  0.1308 -1.4037
  111CHL1    C714411  -0.539  -2.988   1.379 -0.3701  0.5198  0.4744
  111CHL1   H7A14412  -0.556  -2.890   1.330  2.4912  1.2309  0.7455
  111CHL1   H7B14413  -0.429  -3.005   1.388 -0.5852  0.0733  2.9514
  111CHL1    C814414  -0.611  -3.093   1.294  0.6436  0.6746  0.5865
  111CHL1    H814415  -0.718  -3.065   1.284 -0.0400 -1.6473  0.7601
  111CHL1   C1414416  -0.548  -3.109   1.155 -0.4146 -0.2590 -1.0885
  111CHL1   H1414417  -0.442  -3.127   1.182 -1.8280 -2.0064  4.7520
  111CHL1   C1514418  -0.546  -2.979   1.065 -0.2703 -0.4580  0.2447
  111CHL1  H15A14419  -0.645  -2.932   1.050 -0.6906 -1.4123 -0.0747
  111CHL1  H15B14420  -0.477  -2.905   1.111 -1.2052 -0.6497  2.0646
  111CHL1   C1614421  -0.498  -3.039   0.934 -0.2723  0.5440  0.0389
  111CHL1  H16A14422  -0.568  -2.992   0.862  1.8896  0.7739 -2.0558
  111CHL1  H16B14423  -0.402  -3.003   0.890  1.1413 -0.4531  2.1971
  111CHL1   C1714424  -0.500  -3.197   0.929 -0.5238 -0.9050 -0.6871
  111CHL1   H1714425  -0.397  -3.226   0.961  0.8661  3.4966 -0.4313
  111CHL1   C1314426  -0.584  -3.223   1.065  0.0127  0.6121  0.1184
  111CHL1   C1814427  -0.731  -3.217   1.022  0.0883  0.2284  0.6136
  111CHL1  H18A14428  -0.768  -3.288   0.945 -0.6856  0.5191  0.7046
  111CHL1  H18B14429  -0.792  -3.233   1.114 -1.4566 -1.3175 -0.6167
  111CHL1  H18C14430  -0.762  -3.116   0.988  1.0841 -0.0347 -1.1926
  111CHL1   C1214431  -0.560  -3.354   1.142 -0.1632 -0.1194  0.8605
  111CHL1  H12A14432  -0.575  -3.446   1.081 -0.2153  0.1396  0.4784
  111CHL1  H12B14433  -0.451  -3.354   1.163  0.1294  1.3748 -0.4119
  111CHL1   C1114434  -0.634  -3.357   1.279  0.5889 -0.3195 -0.2438
  111CHL1  H11A14435  -0.741  -3.372   1.252 -0.1189  0.8266  1.7075
  111CHL1  H11B14436  -0.613  -3.452   1.333 -1.1353  0.7820  2.5761
  111CHL1    C914437  -0.605  -3.228   1.368 -0.5491 -0.0386 -0.0972
  111CHL1    H914438  -0.495  -3.230   1.382 -0.6077 -0.2353  0.3320
  111CHL1   C1014439  -0.676  -3.228   1.505  0.4285  0.1040  0.8385
  111CHL1   C1914440  -0.840  -3.225   1.487 -0.1602 -0.0647 -0.8397
  111CHL1  H19A14441  -0.863  -3.131   1.432  0.2072  0.1225 -0.6777
  111CHL1  H19B14442  -0.861  -3.321   1.435 -2.1299  0.3888 -0.9354
  111CHL1  H19C14443  -0.891  -3.227   1.586 -1.7086  1.3948 -1.5642
  111CHL1    C114444  -0.626  -3.354   1.587 -0.2009  0.2612  0.6275
  111CHL1   H1A14445  -0.654  -3.443   1.526 -0.8989  0.2135  1.0109
  111CHL1   H1B14446  -0.515  -3.350   1.589 -0.2029  0.2354  0.8032
  111CHL1    C214447  -0.672  -3.353   1.730  0.2865 -0.2922 -0.4981
  111CHL1   H2A14448  -0.641  -3.436   1.796  1.2467  1.2088  1.0182
  111CHL1   H2B14449  -0.782  -3.363   1.724  0.0902  1.5536 -0.5334
  111CHL1   C2014450  -0.523  -3.266   0.798  0.4452  0.5414 -0.2522
  111CHL1   H2014451  -0.629  -3.243   0.775  0.1790 -0.1424  0.2403
  111CHL1   C2114452  -0.515  -3.417   0.818  0.1384  0.3747 -0.5799
  111CHL1  H21A14453  -0.522  -3.466   0.718  0.7547  1.2922 -1.0854
  111CHL1  H21B14454  -0.608  -3.447   0.871  0.6659 -1.7273 -0.7542
  111CHL1  H21C14455  -0.419  -3.450   0.863 -0.1113  0.4010 -0.0289
  111CHL1   C2214456  -0.436  -3.217   0.681 -0.5467  0.5324  0.3216
  111CHL1  H22A14457  -0.407  -3.110   0.686 -0.1035  0.3658  1.9248
  111CHL1  H22B14458  -0.346  -3.283   0.683 -0.3546  0.7053 -1.2230
  111CHL1   C2314459  -0.493  -3.237   0.543  0.7855 -0.5101 -0.0695
  111CHL1  H23A14460  -0.494  -3.347   0.530 -2.3596 -0.7156  1.1405
  111CHL1  H23B14461  -0.601  -3.219   0.526  0.2404 -3.4637 -0.2833
  111CHL1   C2414462  -0.420  -3.162   0.425 -0.5309  0.0039 -0.8144
  111CHL1  H24A14463  -0.437  -3.053   0.430 -3.5479 -0.2077 -3.6541
  111CHL1  H24B14464  -0.310  -3.176   0.438 -0.4976  1.2087  0.4532
  111CHL1   C2514465  -0.473  -3.187   0.283  0.1764  0.6448  0.1367
  111CHL1   H2514466  -0.584  -3.179   0.288  0.0971 -0.9861  1.9600
  111CHL1   C2614467  -0.405  -3.095   0.184 -0.3702  0.0204  0.2883
  111CHL1  H26A14468  -0.296  -3.115   0.172 -0.2393  0.9705 -0.2518
  111CHL1  H26B14469  -0.455  -3.106   0.085  0.6055 -1.5881 -0.0680
  111CHL1  H26C14470  -0.422  -2.989   0.213 -1.6458  1.0360 -3.6126
  111CHL1   C2714471  -0.459  -3.326   0.218 -0.4406  0.0378  1.0380
  111CHL1  H27A14472  -0.350  -3.345   0.208 -0.4425  0.3691  0.2593
  111CHL1  H27B14473  -0.505  -3.401   0.285 -2.0074 -0.8589 -0.9339
  111CHL1  H27C14474  -0.512  -3.338   0.121 -2.6829 -0.0686  2.2198
  112CHL1    C314475   0.521  -1.714   1.714  0.3325  0.4114  0.2156
  112CHL1    H314476   0.425  -1.662   1.697  1.2085  1.9625 -0.1073
  112CHL1    O314477   0.546  -1.708   1.850  0.1435 -0.1625 -0.2200
  112CHL1   H3'14478   0.575  -1.621   1.878 -0.2768 -0.5322  1.4544
  112CHL1    C414479   0.503  -1.861   1.665 -0.3394  0.3816  0.3755
  112CHL1   H4A14480   0.590  -1.924   1.693 -2.0412 -2.1552  0.3146
  112CHL1   H4B14481   0.410  -1.898   1.713  0.1640 -0.6753  0.5554
  112CHL1    C514482   0.472  -1.865   1.519  0.7033  0.5562 -0.6963
  112CHL1    C614483   0.364  -1.921   1.466 -0.7770  0.6837 -0.4386
  112CHL1    H614484   0.289  -1.968   1.531 -1.6326  1.7922 -0.5919
  112CHL1    C714485   0.344  -1.939   1.324 -0.6717  0.6832  0.2391
  112CHL1   H7A14486   0.315  -2.046   1.315  3.4758 -0.7269  1.5198
  112CHL1   H7B14487   0.260  -1.887   1.273 -0.3270 -0.1380 -1.2026
  112CHL1    C814488   0.468  -1.914   1.242 -0.0579 -0.1701  0.1598
  112CHL1    H814489   0.538  -1.999   1.254 -0.0498 -0.8847 -3.6476
  112CHL1   C1414490   0.430  -1.894   1.100 -1.1128 -0.0303 -0.0402
  112CHL1   H1414491   0.373  -1.799   1.101  2.3247  2.2161  1.0165
  112CHL1   C1514492   0.349  -2.002   1.034 -0.3567 -0.0154  0.1312
  112CHL1  H15A14493   0.393  -2.101   1.061  0.4476 -0.0826 -1.3199
  112CHL1  H15B14494   0.243  -2.006   1.069 -0.2635 -0.9073  0.3477
  112CHL1   C1614495   0.357  -1.968   0.889  0.5039  0.8226  0.0462
  112CHL1  H16A14496   0.371  -2.067   0.839  0.9707  1.0252 -0.2302
  112CHL1  H16B14497   0.258  -1.927   0.860 -1.6546 -1.0398  4.0287
  112CHL1   C1714498   0.469  -1.860   0.875 -0.8508 -0.1176 -0.0285
  112CHL1   H1714499   0.427  -1.757   0.868  2.1529  1.1911 -0.7437
  112CHL1   C1314500   0.546  -1.874   1.004 -0.4407 -0.0081  0.1629
  112CHL1   C1814501   0.646  -1.998   1.003  0.0820  0.3260  0.3087
  112CHL1  H18A14502   0.698  -2.022   1.099  0.1100  0.8679  0.4361
  112CHL1  H18B14503   0.594  -2.088   0.964  1.4677  0.1399 -1.2406
  112CHL1  H18C14504   0.732  -1.983   0.935  0.2184 -1.8141 -0.0418
  112CHL1   C1214505   0.612  -1.739   1.034 -0.6755 -0.0799  0.5320
  112CHL1  H12A14506   0.708  -1.717   0.984 -1.3816  1.1272 -0.3380
  112CHL1  H12B14507   0.540  -1.655   1.018  0.4396  0.5608 -1.3501
  112CHL1   C1114508   0.651  -1.746   1.185 -0.1422 -0.7544 -0.0815
  112CHL1  H11A14509   0.733  -1.821   1.192  0.5057  0.0673  1.7178
  112CHL1  H11B14510   0.692  -1.645   1.206 -1.4225 -0.1821 -0.2628
  112CHL1    C914511   0.541  -1.788   1.287  0.8536  0.2580 -0.2134
  112CHL1    H914512   0.463  -1.708   1.286  0.9505  0.3526 -0.1752
  112CHL1   C1014513   0.585  -1.800   1.432  0.7386 -0.0971 -0.5763
  112CHL1   C1914514   0.728  -1.865   1.445  0.5940 -0.4190  0.9027
  112CHL1  H19A14515   0.804  -1.798   1.402  1.7517 -1.4468  1.2768
  112CHL1  H19B14516   0.746  -1.875   1.555 -0.0255  0.3943  1.0856
  112CHL1  H19C14517   0.733  -1.966   1.398 -1.1997 -0.3048  0.3869
  112CHL1    C114518   0.604  -1.654   1.486  0.0627 -0.2121 -0.1246
  112CHL1   H1A14519   0.692  -1.613   1.432 -0.9070  0.1972 -1.4392
  112CHL1   H1B14520   0.513  -1.600   1.451 -0.7946 -1.2300  0.4929
  112CHL1    C214521   0.623  -1.638   1.634  0.2499  0.5490 -0.2809
  112CHL1   H2A14522   0.629  -1.529   1.655  1.5824  0.3246  0.6364
  112CHL1   H2B14523   0.725  -1.672   1.662  0.0233  0.7078  0.7814
  112CHL1   C2014524   0.539  -1.872   0.741  0.1419 -0.6857 -0.9433
  112CHL1   H2014525   0.564  -1.980   0.730 -0.2976 -1.1480  1.8654
  112CHL1   C2114526   0.663  -1.782   0.719 -0.2773  0.1971 -0.4063
  112CHL1  H21A14527   0.691  -1.786   0.612 -1.3612  0.4272 -0.7098
  112CHL1  H21B14528   0.744  -1.836   0.773  0.4675 -1.8134 -3.3242
  112CHL1  H21C14529   0.656  -1.679   0.761  2.7075 -0.0590  0.9789
  112CHL1   C2214530   0.445  -1.854   0.619 -1.1396  0.5410 -0.9025
  112CHL1  H22A14531   0.339  -1.860   0.651 -0.5811 -1.3349  0.8020
  112CHL1  H22B14532   0.468  -1.753   0.580  1.5597  0.1017 -0.6428
  112CHL1   C2314533   0.483  -1.952   0.503  0.2359  0.2535  0.0185
  112CHL1  H23A14534   0.593  -1.969   0.507  0.0453 -0.8865  0.7308
  112CHL1  H23B14535   0.430  -2.045   0.531  0.1616  0.8277  1.9629
  112CHL1   C2414536   0.432  -1.905   0.371 -0.0046 -0.0515  0.3849
  112CHL1  H24A14537   0.322  -1.890   0.378 -0.0225  0.2992 -0.5964
  112CHL1  H24B14538   0.475  -1.808   0.338 -0.9293  0.7064  1.3106
  112CHL1   C2514539   0.463  -2.008   0.262 -0.0552  0.0590  0.4634
  112CHL1   H2514540   0.571  -2.034   0.269  0.4738  1.4517 -1.6865
  112CHL1   C2614541   0.370  -2.128   0.274  0.5998  0.7805  0.3872
  112CHL1  H26A14542   0.368  -2.185   0.178  2.5989 -1.1066  1.3931
  112CHL1  H26B14543   0.406  -2.203   0.347  0.5980 -2.6489 -2.7992
  112CHL1  H26C14544   0.269  -2.088   0.298 -0.6613 -1.4195 -0.9250
  112CHL1   C2714545   0.441  -1.943   0.124  0.0609  0.1230  0.0729
  112CHL1  H27A14546   0.338  -1.907   0.101  0.2220  0.2974 -0.3860
  112CHL1  H27B14547   0.506  -1.853   0.114  0.7702 -0.2666  1.0665
  112CHL1  H27C14548   0.470  -2.011   0.041  0.3003  2.4744 -1.8924
  113CHL1    C314549   2.540   2.036   1.953 -1.1386 -0.9239  0.2181
  113CHL1    H314550   2.526   2.142   1.981 -0.4319 -0.8312  0.2440
  113CHL1    O314551   2.538   1.958   2.069  0.2645  0.1555  0.5975
  113CHL1   H3'14552   2.569   1.872   2.039 -1.1349 -1.0930  2.5238
  113CHL1    C414553   2.432   2.000   1.856 -0.0352  0.4333 -0.1038
  113CHL1   H4A14554   2.442   1.891   1.837  1.1340  0.6696 -0.9861
  113CHL1   H4B14555   2.332   2.028   1.897  0.1052  2.6634 -1.1163
  113CHL1    C514556   2.451   2.061   1.713 -1.0357 -0.0027 -0.2026
  113CHL1    C614557   2.353   2.121   1.647 -0.0089  0.4116  0.0116
  113CHL1    H614558   2.254   2.123   1.694 -0.0299 -0.7213  0.0464
  113CHL1    C714559   2.360   2.176   1.507 -0.3270 -0.7792 -0.2274
  113CHL1   H7A14560   2.269   2.149   1.449 -1.3147  1.1196  0.3601
  113CHL1   H7B14561   2.361   2.287   1.511  0.2078 -0.7979  0.3067
  113CHL1    C814562   2.496   2.142   1.443  0.0536  0.0712 -0.4335
  113CHL1    H814563   2.468   2.040   1.410 -1.8858 -0.1190  1.5383
  113CHL1   C1414564   2.512   2.227   1.317 -0.1076 -0.4421 -0.2309
  113CHL1   H1414565   2.532   2.327   1.363 -0.4902  0.1492 -1.3181
  113CHL1   C1514566   2.391   2.260   1.230  0.4772 -0.0896  0.4536
  113CHL1  H15A14567   2.341   2.169   1.191  0.8786 -0.1678  0.1098
  113CHL1  H15B14568   2.319   2.329   1.279 -0.8554 -1.1683  0.0859
  113CHL1   C1614569   2.452   2.314   1.094 -0.2446  0.9670  0.3857
  113CHL1  H16A14570   2.431   2.237   1.017  2.0378 -0.3084  0.9173
  113CHL1  H16B14571   2.436   2.422   1.071 -0.8935  0.7012 -0.4299
  113CHL1   C1714572   2.614   2.309   1.117  0.3172  0.1660 -0.3392
  113CHL1   H1714573   2.643   2.406   1.163 -1.1840  0.7271 -0.5187
  113CHL1   C1314574   2.632   2.201   1.235  0.2538  0.2616 -0.1556
  113CHL1   C1814575   2.616   2.053   1.176 -0.5345 -0.8346 -0.2006
  113CHL1  H18A14576   2.595   1.974   1.251 -0.0184 -0.8185 -0.0386
  113CHL1  H18B14577   2.532   2.052   1.103 -0.1723 -0.0246 -0.6344
  113CHL1  H18C14578   2.709   2.020   1.126 -1.1711  1.0040 -2.8051
  113CHL1   C1214579   2.756   2.217   1.330  0.2006 -0.4034 -0.0912
  113CHL1  H12A14580   2.845   2.189   1.269 -0.5160 -0.5207 -1.0944
  113CHL1  H12B14581   2.763   2.311   1.388  0.7407 -1.3359  1.4146
  113CHL1   C1114582   2.746   2.118   1.453 -0.3072 -0.8299 -0.0214
  113CHL1  H11A14583   2.754   2.014   1.414 -1.6268 -0.7548 -0.5694
  113CHL1  H11B14584   2.833   2.147   1.515  1.7275  1.1839 -3.5333
  113CHL1    C914585   2.619   2.144   1.535 -0.7262 -0.0685 -0.6093
  113CHL1    H914586   2.639   2.249   1.565 -1.7778 -0.2884  0.9233
  113CHL1   C1014587   2.593   2.057   1.657 -0.1816 -0.0784 -0.5157
  113CHL1   C1914588   2.626   1.905   1.623 -0.3846  0.4446  0.1361
  113CHL1  H19A14589   2.735   1.897   1.601 -0.5710 -0.1703 -0.5832
  113CHL1  H19B14590   2.607   1.833   1.705 -0.7381 -2.0272 -2.0076
  113CHL1  H19C14591   2.563   1.856   1.546  0.0475 -1.2255  0.8142
  113CHL1    C114592   2.696   2.101   1.775  0.8831 -0.3404  0.5466
  113CHL1   H1A14593   2.797   2.098   1.728  1.0175 -0.5404  0.8494
  113CHL1   H1B14594   2.669   2.206   1.799  0.9706 -0.0619 -0.5207
  113CHL1    C214595   2.685   2.021   1.903  0.2299  0.5956 -0.3362
  113CHL1   H2A14596   2.758   2.066   1.974 -1.7291 -0.9349  2.8648
  113CHL1   H2B14597   2.702   1.912   1.892  0.2786  0.4985  0.6453
  113CHL1   C2014598   2.702   2.280   0.993  0.0415  0.8196 -0.1183
  113CHL1   H2014599   2.694   2.173   0.968  3.3695  0.2554  0.8321
  113CHL1   C2114600   2.856   2.297   1.032 -0.0845 -0.2948 -0.3600
  113CHL1  H21A14601   2.881   2.380   1.101 -0.4271  2.8393 -3.6693
  113CHL1  H21B14602   2.900   2.321   0.933 -1.6277 -0.5646 -1.1486
  113CHL1  H21C14603   2.902   2.198   1.055  0.5610 -0.2720 -1.4696
  113CHL1   C2214604   2.670   2.363   0.869 -0.2440 -0.1785  0.2419
  113CHL1  H22A14605   2.560   2.377   0.862 -0.4599 -0.8904  1.6846
  113CHL1  H22B14606   2.725   2.459   0.883  4.9761 -2.9366  1.2532
  113CHL1   C2314607   2.719   2.288   0.743 -0.4543 -0.8721  0.5867
  113CHL1  H23A14608   2.828   2.268   0.746 -0.4069 -0.4687  2.8359
  113CHL1  H23B14609   2.668   2.190   0.741 -0.8760 -0.6605 -1.4669
  113CHL1   C2414610   2.679   2.360   0.615 -0.2990 -0.3573  0.1452
  113CHL1  H24A14611   2.582   2.315   0.586 -1.7382  3.6775 -2.1030
  113CHL1  H24B14612   2.648   2.464   0.637 -0.7230 -0.7154  1.2888
  113CHL1   C2514613   2.781   2.357   0.500  0.3341 -0.3274  0.0120
  113CHL1   H2514614   2.869   2.420   0.524 -0.1328  0.6410 -0.7310
  113CHL1   C2614615   2.822   2.218   0.458  0.5162  0.2297 -0.4913
  113CHL1  H26A14616   2.870   2.171   0.546 -2.4509 -2.6382 -0.2121
  113CHL1  H26B14617   2.737   2.147   0.450  2.3055 -1.9164 -1.3174
  113CHL1  H26C14618   2.881   2.205   0.364  1.4525 -1.0136  0.2479
  113CHL1   C2714619   2.703   2.427   0.385  0.2876 -0.0714  0.0736
  113CHL1  H27A14620   2.757   2.430   0.287  0.3392  2.0632  0.1237
  113CHL1  H27B14621   2.597   2.395   0.377  0.2531 -0.3964  1.5671
  113CHL1  H27C14622   2.696   2.537   0.398 -0.5412  0.0429 -1.1772
  114CHL1    C314623   0.365  -3.130   1.709 -0.5481 -0.0726  0.5046
  114CHL1    H314624   0.361  -3.020   1.692  0.5207  0.1326  1.4377
  114CHL1    O314625   0.302  -3.148   1.835  0.9341  0.0355  0.4956
  114CHL1   H3'14626   0.304  -3.240   1.862 -1.6412 -0.2980 -0.2106
  114CHL1    C414627   0.267  -3.201   1.608  0.7629 -0.3082 -0.2050
  114CHL1   H4A14628   0.235  -3.298   1.651  1.5898  0.3172  1.9943
  114CHL1   H4B14629   0.182  -3.128   1.605 -0.7832 -1.9405  1.1965
  114CHL1    C514630   0.331  -3.224   1.472 -0.0751  0.0721  0.2212
  114CHL1    C614631   0.279  -3.177   1.361 -0.4176  0.3529 -0.4304
  114CHL1    H614632   0.182  -3.127   1.366 -0.5139  0.1152  0.1899
  114CHL1    C714633   0.336  -3.201   1.227  0.8904 -0.0454  0.0840
  114CHL1   H7A14634   0.253  -3.228   1.158  0.1497  2.9205 -0.3069
  114CHL1   H7B14635   0.388  -3.114   1.182 -2.1106  0.3328 -3.0196
  114CHL1    C814636   0.444  -3.312   1.229 -0.3860  0.5089  0.0443
  114CHL1    H814637   0.392  -3.407   1.253  0.9338 -0.3664 -0.4442
  114CHL1   C1414638   0.507  -3.327   1.091 -0.1818  0.0768 -0.2883
  114CHL1   H1414639   0.561  -3.232   1.072  1.2571 -1.0924 -2.4752
  114CHL1   C1514640   0.417  -3.332   0.971 -0.5013 -0.3881  0.2237
  114CHL1  H15A14641   0.328  -3.398   0.975 -1.6325  0.9920 -1.0877
  114CHL1  H15B14642   0.372  -3.235   0.942 -0.9380 -1.0779 -1.5379
  114CHL1   C1614643   0.521  -3.374   0.863 -0.6729 -0.2016  0.1189
  114CHL1  H16A14644   0.476  -3.463   0.813 -0.9529 -0.5700  0.9890
  114CHL1  H16B14645   0.550  -3.293   0.794 -1.1635 -1.1008 -1.1723
  114CHL1   C1714646   0.656  -3.414   0.931 -0.1655 -0.2385 -0.3051
  114CHL1   H1714647   0.712  -3.318   0.928 -3.2944  1.7133  0.1340
  114CHL1   C1314648   0.617  -3.431   1.077 -0.0366  0.8610 -0.2179
  114CHL1   C1814649   0.558  -3.579   1.088 -0.3729  0.0582 -0.0131
  114CHL1  H18A14650   0.481  -3.592   1.167 -0.4912 -1.8796 -0.3865
  114CHL1  H18B14651   0.498  -3.607   0.999 -4.3227  0.5969  2.2295
  114CHL1  H18C14652   0.636  -3.658   1.101 -0.1208  0.0006 -1.6828
  114CHL1   C1214653   0.723  -3.415   1.186  0.5490 -0.2736 -0.3361
  114CHL1  H12A14654   0.794  -3.501   1.183 -1.1776 -1.7310 -2.2423
  114CHL1  H12B14655   0.777  -3.322   1.158  0.7689 -0.2959  0.0041
  114CHL1   C1114656   0.664  -3.396   1.328  0.1187 -0.5135 -0.2278
  114CHL1  H11A14657   0.619  -3.496   1.348  0.6381 -0.6006  0.5655
  114CHL1  H11B14658   0.748  -3.374   1.397 -0.1029 -1.8813  0.5279
  114CHL1    C914659   0.545  -3.289   1.344  0.4314 -0.4282  0.7191
  114CHL1    H914660   0.588  -3.188   1.330 -0.3231  0.0951  2.0857
  114CHL1   C1014661   0.466  -3.292   1.477 -0.1280  0.2226 -0.6478
  114CHL1   C1914662   0.445  -3.441   1.520 -0.1909 -0.3240 -0.0444
  114CHL1  H19A14663   0.350  -3.453   1.576 -0.6435 -1.4789 -1.0182
  114CHL1  H19B14664   0.429  -3.507   1.432  0.0194 -0.4112 -0.0185
  114CHL1  H19C14665   0.532  -3.475   1.580  0.9260  1.4653 -0.5533
  114CHL1    C114666   0.562  -3.213   1.583  0.4317 -0.0896 -0.2804
  114CHL1   H1A14667   0.664  -3.257   1.586  0.7359  0.6361  0.2565
  114CHL1   H1B14668   0.562  -3.117   1.527 -1.1536 -0.2779 -0.6435
  114CHL1    C214669   0.504  -3.193   1.717 -0.4890  0.6119  0.2880
  114CHL1   H2A14670   0.571  -3.129   1.777 -0.7731  0.3115  0.9269
  114CHL1   H2B14671   0.486  -3.293   1.761  0.5127 -0.8078 -2.2872
  114CHL1   C2014672   0.737  -3.523   0.861 -0.4464  0.8898 -0.7640
  114CHL1   H2014673   0.685  -3.621   0.869  0.8162  0.3387  2.0272
  114CHL1   C2114674   0.875  -3.550   0.934 -0.3954 -0.0368 -0.2344
  114CHL1  H21A14675   0.931  -3.455   0.943 -0.4102  0.0127 -0.6350
  114CHL1  H21B14676   0.937  -3.621   0.874 -0.1202 -0.9533  1.0922
  114CHL1  H21C14677   0.868  -3.589   1.037  0.8033  0.0785 -0.0935
  114CHL1   C2214678   0.770  -3.499   0.716 -0.5581  0.3221  0.5247
  114CHL1  H22A14679   0.835  -3.578   0.673  0.7677  1.1786  0.9036
  114CHL1  H22B14680   0.672  -3.505   0.664  0.7389 -2.1015 -1.9343
  114CHL1   C2314681   0.835  -3.369   0.679  0.0217 -0.3268 -0.0738
  114CHL1  H23A14682   0.782  -3.285   0.730 -0.7960 -0.4924 -0.6212
  114CHL1  H23B14683   0.943  -3.370   0.705  0.5506  2.7735 -1.6127
  114CHL1   C2414684   0.808  -3.339   0.528 -0.2972 -1.1919 -0.0416
  114CHL1  H24A14685   0.836  -3.431   0.473  2.2125 -1.7630  1.9491
  114CHL1  H24B14686   0.700  -3.323   0.513 -0.2824  0.9874  1.6050
  114CHL1   C2514687   0.893  -3.219   0.477  0.2779 -0.7165  0.0827
  114CHL1   H2514688   0.895  -3.147   0.562 -4.3293 -0.4196  0.2044
  114CHL1   C2614689   1.040  -3.268   0.454  0.2637 -1.0976  0.2371
  114CHL1  H26A14690   1.048  -3.324   0.358 -0.9349 -0.2001 -0.4184
  114CHL1  H26B14691   1.111  -3.183   0.454  0.2680 -0.9625  3.7152
  114CHL1  H26C14692   1.073  -3.337   0.534 -2.1539 -1.9203  0.6154
  114CHL1   C2714693   0.839  -3.150   0.349 -0.3181  0.5481 -0.3114
  114CHL1  H27A14694   0.839  -3.233   0.275 -2.7018 -0.0426  0.2476
  114CHL1  H27B14695   0.737  -3.109   0.370 -0.0135  1.5444 -0.7547
  114CHL1  H27C14696   0.905  -3.066   0.322 -0.1157  1.0065  1.4699
  115CHL1    C314697  -2.159  -1.309   2.205  0.2879 -0.4532  0.8653
  115CHL1    H314698  -2.222  -1.400   2.212 -3.9814  2.1707 -0.0032
  115CHL1    O314699  -2.131  -1.260   2.332  0.0160  0.3492  0.0298
  115CHL1   H3'14700  -2.079  -1.184   2.306  1.7576 -0.7642  0.1374
  115CHL1    C414701  -2.023  -1.333   2.138 -0.1524  0.0554  0.3517
  115CHL1   H4A14702  -1.961  -1.245   2.163 -0.6139  0.1121  1.3232
  115CHL1   H4B14703  -1.967  -1.409   2.196 -0.3539  0.1787  0.7127
  115CHL1    C514704  -2.035  -1.371   1.991 -0.5468 -0.1823 -0.1420
  115CHL1    C614705  -1.988  -1.489   1.939  0.3974  0.0405  0.6370
  115CHL1    H614706  -1.931  -1.562   1.999  0.2927 -1.2636 -0.7988
  115CHL1    C714707  -1.993  -1.525   1.794 -0.3370  0.4367 -0.1050
  115CHL1   H7A14708  -1.888  -1.547   1.767 -0.9201 -1.3030 -1.0483
  115CHL1   H7B14709  -2.041  -1.623   1.775  0.9648 -0.1561 -0.3839
  115CHL1    C814710  -2.044  -1.415   1.705 -0.1614 -0.3364 -0.2198
  115CHL1    H814711  -1.957  -1.346   1.690 -0.6671  0.3173 -0.1902
  115CHL1   C1414712  -2.087  -1.467   1.572  0.4070  0.7184 -0.0037
  115CHL1   H1414713  -2.179  -1.524   1.595 -0.0524  1.9381  1.3389
  115CHL1   C1514714  -1.994  -1.558   1.492  0.2850 -0.2863  0.9866
  115CHL1  H15A14715  -1.890  -1.522   1.483  1.0713 -2.7544 -1.1848
  115CHL1  H15B14716  -1.993  -1.662   1.531  0.2488 -0.6116  0.1384
  115CHL1   C1614717  -2.026  -1.547   1.340  0.1350  0.2918 -0.3681
  115CHL1  H16A14718  -1.936  -1.504   1.290  0.8342  0.3958  0.9304
  115CHL1  H16B14719  -2.063  -1.643   1.300 -1.3879  0.1711  1.2015
  115CHL1   C1714720  -2.148  -1.447   1.343  0.0141 -0.1963 -0.6397
  115CHL1   H1714721  -2.233  -1.516   1.362  0.0678 -0.6066 -1.8147
  115CHL1   C1314722  -2.135  -1.366   1.472 -0.0251 -0.0149  0.1276
  115CHL1   C1814723  -2.017  -1.269   1.448  0.2482  0.5082 -0.1982
  115CHL1  H18A14724  -1.929  -1.329   1.417 -0.5987 -0.4723 -0.7755
  115CHL1  H18B14725  -2.037  -1.199   1.364  1.2852  0.9975 -0.0488
  115CHL1  H18C14726  -1.976  -1.208   1.531 -1.4265  1.4973 -0.0490
  115CHL1   C1214727  -2.260  -1.305   1.529  0.1099  0.4905  0.0474
  115CHL1  H12A14728  -2.314  -1.228   1.468 -0.4646 -0.9973 -1.3976
  115CHL1  H12B14729  -2.333  -1.386   1.545  0.5873  0.2378  0.9866
  115CHL1   C1114730  -2.220  -1.231   1.661  0.0093 -0.0624  0.2013
  115CHL1  H11A14731  -2.166  -1.135   1.657 -1.5901  0.8908  0.3363
  115CHL1  H11B14732  -2.316  -1.196   1.705  0.4534  1.2862  0.1419
  115CHL1    C914733  -2.157  -1.331   1.768  0.2562 -0.5277 -0.0253
  115CHL1    H914734  -2.243  -1.401   1.774 -1.0277  1.0232  0.4406
  115CHL1   C1014735  -2.120  -1.272   1.909 -0.1277 -0.1578  0.4327
  115CHL1   C1914736  -2.032  -1.145   1.882  0.1145 -0.2891  1.1412
  115CHL1  H19A14737  -1.971  -1.158   1.791  0.2030  0.8215  1.0354
  115CHL1  H19B14738  -2.102  -1.062   1.856  0.0548 -1.2616 -2.1782
  115CHL1  H19C14739  -1.957  -1.126   1.962 -0.0759 -1.7450  1.6994
  115CHL1    C114740  -2.251  -1.227   1.979  0.3415 -0.8361 -0.1644
  115CHL1   H1A14741  -2.289  -1.136   1.929  0.8686 -1.1947 -1.2496
  115CHL1   H1B14742  -2.328  -1.305   1.964 -0.6273  0.6082 -3.5645
  115CHL1    C214743  -2.233  -1.192   2.133  0.5239  0.7647  0.0744
  115CHL1   H2A14744  -2.329  -1.182   2.188  0.2703  0.0578 -0.2250
  115CHL1   H2B14745  -2.172  -1.101   2.145  1.3653  0.2877 -0.5042
  115CHL1   C2014746  -2.177  -1.377   1.210  0.0319  0.1294  0.2713
  115CHL1   H2014747  -2.104  -1.294   1.195 -1.1779  1.3463  0.8486
  115CHL1   C2114748  -2.321  -1.333   1.209 -0.8369  0.4239  0.2143
  115CHL1  H21A14749  -2.343  -1.254   1.284  2.6669  5.0494 -3.0465
  115CHL1  H21B14750  -2.384  -1.422   1.234  1.3990 -1.2748  0.0457
  115CHL1  H21C14751  -2.346  -1.285   1.112  1.4706  1.5492  0.1161
  115CHL1   C2214752  -2.142  -1.473   1.091  0.0173 -0.4034  0.3329
  115CHL1  H22A14753  -2.147  -1.582   1.112  0.7848 -0.0654  2.5239
  115CHL1  H22B14754  -2.224  -1.463   1.017  2.7999 -1.0844 -3.0703
  115CHL1   C2314755  -2.017  -1.433   1.007 -0.7591  0.3595 -0.3818
  115CHL1  H23A14756  -1.920  -1.438   1.062 -0.6672  1.8835 -0.3536
  115CHL1  H23B14757  -2.003  -1.516   0.935  1.5978  1.4785 -1.3117
  115CHL1   C2414758  -2.023  -1.296   0.939 -0.1039 -0.1727  0.8096
  115CHL1  H24A14759  -2.117  -1.273   0.885 -0.7124 -0.5969  1.6719
  115CHL1  H24B14760  -2.004  -1.212   1.009  0.7617  1.0940 -0.8595
  115CHL1   C2514761  -1.904  -1.297   0.833  0.2084 -0.3616 -0.5219
  115CHL1   H2514762  -1.909  -1.385   0.766  0.7876  0.0368 -1.1017
  115CHL1   C2614763  -1.898  -1.168   0.744 -0.7163  0.6294  0.0122
  115CHL1  H26A14764  -1.821  -1.164   0.664  1.3292  0.7594  1.9096
  115CHL1  H26B14765  -1.998  -1.143   0.702 -1.3614 -0.1340  1.0530
  115CHL1  H26C14766  -1.873  -1.085   0.814  0.8723 -0.2327  0.5277
  115CHL1   C2714767  -1.769  -1.313   0.897 -0.2388 -0.4643 -0.0103
  115CHL1  H27A14768  -1.742  -1.229   0.966 -0.6465 -0.6854  0.4267
  115CHL1  H27B14769  -1.763  -1.405   0.958 -2.4188 -0.4496  0.3112
  115CHL1  H27C14770  -1.683  -1.306   0.827  1.3589  0.0954  1.8796
  116CHL1    C314771   0.052  -1.769   1.605  0.5551  0.1030 -0.8970
  116CHL1    H314772   0.147  -1.823   1.586 -0.2664 -2.9460  2.5660
  116CHL1    O314773   0.031  -1.772   1.741  0.1934  0.8696 -0.1192
  116CHL1   H3'14774   0.114  -1.750   1.785 -0.1141  2.9778 -0.5093
  116CHL1    C414775   0.062  -1.619   1.551  0.5980  0.5950 -0.1885
  116CHL1   H4A14776  -0.019  -1.556   1.592  1.2836  0.2626  1.8053
  116CHL1   H4B14777   0.161  -1.589   1.592  0.2947 -1.2605  2.1542
  116CHL1    C514778   0.063  -1.620   1.400 -0.6626  0.2940  0.1474
  116CHL1    C614779   0.171  -1.564   1.337  0.5573 -0.8886  0.9038
  116CHL1    H614780   0.240  -1.503   1.397  1.7558 -1.2739 -0.0199
  116CHL1    C714781   0.194  -1.560   1.189  0.1115  0.0733 -0.0908
  116CHL1   H7A14782   0.233  -1.458   1.168  0.9975 -0.3354 -0.4914
  116CHL1   H7B14783   0.284  -1.621   1.163 -1.9392 -2.1046 -2.7728
  116CHL1    C814784   0.069  -1.596   1.111 -0.0815 -0.1827  0.2050
  116CHL1    H814785  -0.007  -1.515   1.120 -1.0791 -1.1765  1.0150
  116CHL1   C1414786   0.118  -1.626   0.968  1.3114 -0.1123 -0.0892
  116CHL1   H1414787   0.182  -1.716   0.986  0.6902 -0.1644  2.1859
  116CHL1   C1514788   0.200  -1.527   0.896 -0.2787 -0.2440  0.3029
  116CHL1  H15A14789   0.158  -1.425   0.909 -0.8182 -0.1247 -2.0437
  116CHL1  H15B14790   0.303  -1.537   0.938 -0.2575 -0.6862  0.1485
  116CHL1   C1614791   0.198  -1.570   0.753  0.0403  1.5016 -0.0543
  116CHL1  H16A14792   0.171  -1.482   0.690 -3.8032 -0.6982 -1.8496
  116CHL1  H16B14793   0.294  -1.611   0.716 -1.6246 -2.0336 -0.9652
  116CHL1   C1714794   0.085  -1.683   0.746 -0.6121  0.7803  0.5396
  116CHL1   H1714795   0.137  -1.781   0.759 -0.9306  0.7458  1.6410
  116CHL1   C1314796   0.002  -1.669   0.878 -0.5772  0.3207  0.0638
  116CHL1   C1814797  -0.097  -1.557   0.858  0.5936 -0.0172 -0.5096
  116CHL1  H18A14798  -0.144  -1.532   0.955  0.2592 -1.1700 -0.3658
  116CHL1  H18B14799  -0.043  -1.461   0.838 -2.8818  1.8312 -1.8250
  116CHL1  H18C14800  -0.186  -1.578   0.795 -1.1194  2.2667  1.0058
  116CHL1   C1214801  -0.056  -1.798   0.933  0.3013  0.2787  0.3230
  116CHL1  H12A14802  -0.140  -1.843   0.876 -0.1429 -0.0185  1.1933
  116CHL1  H12B14803   0.014  -1.883   0.944 -2.5516 -2.0363  2.0883
  116CHL1   C1114804  -0.108  -1.772   1.073 -0.3178  0.0294 -0.5005
  116CHL1  H11A14805  -0.199  -1.709   1.081 -0.1076  0.1937  0.9515
  116CHL1  H11B14806  -0.141  -1.873   1.106  0.6904 -0.0166  0.4450
  116CHL1    C914807   0.007  -1.723   1.170 -0.8011 -0.2594  0.4445
  116CHL1    H914808   0.096  -1.790   1.171 -0.6645 -0.0775  0.6612
  116CHL1   C1014809  -0.033  -1.704   1.320  0.0846  0.5171 -0.0954
  116CHL1   C1914810  -0.161  -1.627   1.322  0.2352 -0.1908 -0.3998
  116CHL1  H19A14811  -0.248  -1.671   1.269 -2.0914  3.7045 -0.2292
  116CHL1  H19B14812  -0.192  -1.599   1.425  0.1590 -1.1583 -0.1555
  116CHL1  H19C14813  -0.143  -1.532   1.267  3.7778 -1.6533 -2.1180
  116CHL1    C114814  -0.051  -1.849   1.379  0.1831  0.5504 -0.0199
  116CHL1   H1A14815  -0.128  -1.901   1.318 -1.1716  1.6036  0.7497
  116CHL1   H1B14816   0.042  -1.904   1.352  0.1606  1.3070 -1.7767
  116CHL1    C214817  -0.061  -1.850   1.531  0.5038  0.1698  0.0798
  116CHL1   H2A14818  -0.067  -1.957   1.560 -2.5401  0.0201 -0.8017
  116CHL1   H2B14819  -0.158  -1.802   1.556 -0.1730  0.1437 -2.2606
  116CHL1   C2014820   0.014  -1.683   0.606 -0.9336  0.1411 -0.4022
  116CHL1   H2014821  -0.037  -1.584   0.601 -0.0659  0.5873 -0.7035
  116CHL1   C2114822  -0.077  -1.798   0.591  0.0076 -0.0726 -0.4568
  116CHL1  H21A14823  -0.032  -1.899   0.601 -0.7954 -0.6720 -2.2875
  116CHL1  H21B14824  -0.132  -1.791   0.494  0.6877 -0.5887 -0.8951
  116CHL1  H21C14825  -0.154  -1.794   0.671 -0.8793  0.0593 -1.2861
  116CHL1   C2214826   0.117  -1.695   0.494  0.2021  0.1768  0.3727
  116CHL1  H22A14827   0.200  -1.621   0.498 -0.9280  1.5166 -0.1440
  116CHL1  H22B14828   0.170  -1.793   0.489 -0.4770 -0.2651  1.5787
  116CHL1   C2314829   0.054  -1.667   0.350  0.1847  0.3829 -0.4993
  116CHL1  H23A14830  -0.013  -1.750   0.318 -1.8607  1.8986 -0.3674
  116CHL1  H23B14831  -0.004  -1.572   0.349  0.7323  0.7291  0.1082
  116CHL1   C2414832   0.166  -1.661   0.247  0.1809 -0.2342 -0.5981
  116CHL1  H24A14833   0.232  -1.579   0.281 -0.4602 -1.1065  3.2214
  116CHL1  H24B14834   0.216  -1.760   0.256 -0.7041 -0.7632 -1.1922
  116CHL1   C2514835   0.126  -1.641   0.104  0.4019  0.5087  0.1932
  116CHL1   H2514836   0.217  -1.645   0.041 -0.7964 -2.1470 -1.5375
  116CHL1   C2614837   0.046  -1.765   0.051 -0.1067  0.4348  0.3486
  116CHL1  H26A14838   0.090  -1.860   0.089  2.7310  1.3348 -0.4904
  116CHL1  H26B14839  -0.061  -1.760   0.081 -0.1595 -0.4448  0.3268
  116CHL1  H26C14840   0.058  -1.771  -0.059 -1.0405  1.6106  0.1603
  116CHL1   C2714841   0.045  -1.505   0.086  0.4376  1.1920  0.1241
  116CHL1  H27A14842  -0.054  -1.513   0.137  0.0747  0.9040 -0.6006
  116CHL1  H27B14843   0.101  -1.420   0.130  0.8153  0.9670  0.0784
  116CHL1  H27C14844   0.014  -1.479  -0.018  1.1106 -0.5280 -0.5453
  117CHL1    C314845   1.666  -2.548   2.177  0.0544  0.3227  0.5419
  117CHL1    H314846   1.582  -2.619   2.166  0.9602 -1.0650  2.1272
  117CHL1    O314847   1.704  -2.554   2.310 -0.7651  0.0917  0.5565
  117CHL1   H3'14848   1.727  -2.647   2.317  0.9530  0.3986 -0.4952
  117CHL1    C414849   1.784  -2.587   2.083  0.0462  0.6497  0.4260
  117CHL1   H4A14850   1.862  -2.511   2.104  1.0351 -0.1289 -0.2908
  117CHL1   H4B14851   1.832  -2.677   2.126 -2.0825  0.7733  3.3707
  117CHL1    C514852   1.739  -2.584   1.937 -0.0281  1.0566 -0.6980
  117CHL1    C614853   1.734  -2.695   1.863 -0.1652  0.2992  0.8285
  117CHL1    H614854   1.762  -2.791   1.909  0.7767  0.9075  1.5612
  117CHL1    C714855   1.700  -2.696   1.720 -0.2418 -0.3791  0.1717
  117CHL1   H7A14856   1.757  -2.771   1.663 -0.2067  0.9453 -1.6072
  117CHL1   H7B14857   1.593  -2.721   1.703 -0.6897  2.0940 -1.0657
  117CHL1    C814858   1.708  -2.553   1.656 -0.3553  0.1555 -0.0055
  117CHL1    H814859   1.816  -2.530   1.641 -0.3860  1.1159  1.1081
  117CHL1   C1414860   1.637  -2.558   1.523  0.4874 -0.1605 -0.0645
  117CHL1   H1414861   1.532  -2.585   1.547 -0.3745  2.8463 -0.0085
  117CHL1   C1514862   1.682  -2.657   1.414 -0.3987 -0.0059  0.8182
  117CHL1  H15A14863   1.792  -2.647   1.426 -0.2001 -1.9895  1.1076
  117CHL1  H15B14864   1.650  -2.761   1.440 -0.5227 -0.4724 -1.0487
  117CHL1   C1614865   1.628  -2.606   1.289  0.7912  0.0007 -0.3649
  117CHL1  H16A14866   1.717  -2.612   1.224  0.1215  2.2708 -1.6204
  117CHL1  H16B14867   1.552  -2.680   1.257  1.7600  0.2599 -3.6022
  117CHL1   C1714868   1.563  -2.468   1.318  0.2749 -0.5089  0.5122
  117CHL1   H1714869   1.457  -2.495   1.337 -0.5727  1.8156 -0.5095
  117CHL1   C1314870   1.628  -2.425   1.454 -0.2334 -0.0957 -0.2113
  117CHL1   C1814871   1.764  -2.357   1.412 -0.1573  0.5672 -0.0832
  117CHL1  H18A14872   1.823  -2.349   1.506  0.7460 -1.6988 -0.3908
  117CHL1  H18B14873   1.818  -2.423   1.341  2.2404  1.9029  0.4034
  117CHL1  H18C14874   1.755  -2.256   1.366  0.6474  0.5153 -0.3647
  117CHL1   C1214875   1.553  -2.325   1.547  0.2305  1.0384 -0.0249
  117CHL1  H12A14876   1.555  -2.223   1.501  1.4136  1.3176  0.6000
  117CHL1  H12B14877   1.454  -2.357   1.584  0.6144  0.0992  0.2116
  117CHL1   C1114878   1.627  -2.313   1.684  0.7374 -0.4365  0.1100
  117CHL1  H11A14879   1.719  -2.254   1.664 -0.4858  0.4509 -3.7705
  117CHL1  H11B14880   1.566  -2.245   1.747  2.2007  3.2397 -2.1383
  117CHL1    C914881   1.640  -2.446   1.748 -0.7307 -0.0443  0.2825
  117CHL1    H914882   1.540  -2.495   1.751  0.2844 -2.1915  0.8379
  117CHL1   C1014883   1.700  -2.443   1.889  0.1791 -0.0857 -0.7417
  117CHL1   C1914884   1.830  -2.354   1.891  0.4262 -0.1721  0.1565
  117CHL1  H19A14885   1.871  -2.359   1.994  2.0759 -0.7790 -0.4920
  117CHL1  H19B14886   1.899  -2.389   1.811 -0.0562  0.8041 -0.7221
  117CHL1  H19C14887   1.814  -2.247   1.867  1.7964 -0.3591 -1.8987
  117CHL1    C114888   1.589  -2.393   1.988 -0.2843  0.0134  0.5398
  117CHL1   H1A14889   1.572  -2.286   1.964 -0.5616 -0.2141 -0.3092
  117CHL1   H1B14890   1.494  -2.441   1.958  0.0579 -0.2173 -0.2221
  117CHL1    C214891   1.624  -2.403   2.139  0.3336 -0.3766  0.3181
  117CHL1   H2A14892   1.539  -2.367   2.202 -0.5265  0.8854 -1.4676
  117CHL1   H2B14893   1.706  -2.333   2.166  1.3454 -0.2402 -2.7444
  117CHL1   C2014894   1.568  -2.370   1.199  0.2309 -0.5077 -0.7588
  117CHL1   H2014895   1.670  -2.326   1.190  0.9746 -1.4092  2.1908
  117CHL1   C2114896   1.480  -2.249   1.229 -0.5489 -0.2491  0.0635
  117CHL1  H21A14897   1.460  -2.188   1.139 -0.8153 -0.3939  0.0237
  117CHL1  H21B14898   1.522  -2.174   1.300 -0.9387  1.2667 -1.2276
  117CHL1  H21C14899   1.382  -2.288   1.266  0.2530 -3.5267 -0.9879
  117CHL1   C2214900   1.524  -2.445   1.074 -0.1219  0.0594  0.5587
  117CHL1  H22A14901   1.605  -2.517   1.049  0.1346  0.5679 -0.0999
  117CHL1  H22B14902   1.429  -2.500   1.093  1.7407 -2.9998  1.6443
  117CHL1   C2314903   1.504  -2.359   0.949  0.2003 -0.4402 -0.1432
  117CHL1  H23A14904   1.415  -2.295   0.964  2.3782  2.7271  0.2159
  117CHL1  H23B14905   1.586  -2.287   0.929 -0.8389  0.7455 -0.2329
  117CHL1   C2414906   1.483  -2.436   0.811 -0.3252  0.1698 -0.0116
  117CHL1  H24A14907   1.557  -2.519   0.812  0.8223  1.0969  2.9073
  117CHL1  H24B14908   1.385  -2.486   0.798  0.6349 -1.2013 -2.6682
  117CHL1   C2514909   1.510  -2.354   0.688  0.4916 -0.1845  0.2666
  117CHL1   H2514910   1.606  -2.307   0.716  1.3738 -0.9159 -1.4340
  117CHL1   C2614911   1.549  -2.439   0.560  0.3210 -0.2826  0.3238
  117CHL1  H26A14912   1.619  -2.375   0.502  1.3333 -2.1791 -0.6253
  117CHL1  H26B14913   1.596  -2.532   0.598  2.2134  0.4281 -0.1478
  117CHL1  H26C14914   1.459  -2.460   0.499 -0.2062  0.4873  0.8098
  117CHL1   C2714915   1.406  -2.244   0.652  0.7884  0.3628 -0.2193
  117CHL1  H27A14916   1.305  -2.289   0.649  0.5619  0.7591  0.8584
  117CHL1  H27B14917   1.395  -2.167   0.731  0.8900  0.8009 -0.6281
  117CHL1  H27C14918   1.418  -2.185   0.559 -0.7846  2.1208  0.6145
  118CHL1    C314919   3.315  -0.320   1.677  0.1838 -0.0275  0.1569
  118CHL1    H314920   3.417  -0.353   1.646  0.2796  1.8532 -1.7262
  118CHL1    O314921   3.292  -0.314   1.811  0.7143  0.4932  0.2977
  118CHL1   H3'14922   3.205  -0.273   1.810  0.3833 -0.1882  0.2651
  118CHL1    C414923   3.302  -0.176   1.623  1.3308 -0.0702 -0.4691
  118CHL1   H4A14924   3.201  -0.139   1.652  1.5013 -0.1157  0.2042
  118CHL1   H4B14925   3.369  -0.105   1.677  0.6430 -0.1946  0.5587
  118CHL1    C514926   3.326  -0.172   1.470  0.5141 -0.9430 -0.2944
  118CHL1    C614927   3.411  -0.089   1.408  0.5898  0.0673 -0.8412
  118CHL1    H614928   3.467  -0.027   1.479  0.7853 -1.7917  0.7109
  118CHL1    C714929   3.425  -0.073   1.259  0.4356  0.0424  0.7871
  118CHL1   H7A14930   3.409   0.032   1.226 -0.7190 -0.4714 -0.3621
  118CHL1   H7B14931   3.526  -0.096   1.218 -0.2485 -1.9519  0.1255
  118CHL1    C814932   3.314  -0.156   1.176 -0.4832  0.0622 -0.2764
  118CHL1    H814933   3.223  -0.093   1.171 -0.2728  0.3563 -0.4778
  118CHL1   C1414934   3.364  -0.174   1.028  0.6066  0.3698  0.5679
  118CHL1   H1414935   3.454  -0.239   1.029 -0.2506 -0.8703  0.0513
  118CHL1   C1514936   3.399  -0.046   0.947 -0.3126 -0.2955  0.2510
  118CHL1  H15A14937   3.328   0.040   0.944  0.7408  0.7068  2.1664
  118CHL1  H15B14938   3.496  -0.006   0.984 -0.3378  0.0763 -0.0707
  118CHL1   C1614939   3.408  -0.097   0.800 -0.0135 -0.5998 -0.2831
  118CHL1  H16A14940   3.387  -0.015   0.729  3.3331 -0.3617 -1.1694
  118CHL1  H16B14941   3.512  -0.126   0.775 -0.1265 -0.8102 -0.5048
  118CHL1   C1714942   3.325  -0.231   0.793 -0.3796 -0.2357 -0.6392
  118CHL1   H1714943   3.398  -0.315   0.784 -0.9359 -0.7708 -0.2838
  118CHL1   C1314944   3.260  -0.241   0.938  0.5575 -0.0427  0.0545
  118CHL1   C1814945   3.120  -0.160   0.922  0.1202  0.5000  0.2402
  118CHL1  H18A14946   3.057  -0.222   0.853  2.1449  1.0980 -2.3103
  118CHL1  H18B14947   3.075  -0.134   1.020  2.1454  0.3775  1.2379
  118CHL1  H18C14948   3.141  -0.057   0.888  0.6409  0.6256  0.9184
  118CHL1   C1214949   3.234  -0.380   1.002  0.3477 -0.0991 -0.1841
  118CHL1  H12A14950   3.159  -0.434   0.940  1.9508  1.0548 -3.3282
  118CHL1  H12B14951   3.326  -0.441   0.997  0.8838  0.6171  0.6721
  118CHL1   C1114952   3.185  -0.371   1.148 -0.7736  0.1380 -0.6982
  118CHL1  H11A14953   3.083  -0.327   1.153 -1.0824 -0.6755  0.3428
  118CHL1  H11B14954   3.171  -0.474   1.187 -0.7865  0.8095  1.1541
  118CHL1    C914955   3.281  -0.288   1.246 -0.1512  0.8563  0.0229
  118CHL1    H914956   3.373  -0.350   1.253 -0.0406  0.8633 -1.1122
  118CHL1   C1014957   3.238  -0.267   1.385 -0.4521 -0.3274 -0.0465
  118CHL1   C1914958   3.097  -0.201   1.385 -0.3839 -0.1515 -0.0708
  118CHL1  H19A14959   3.023  -0.264   1.331 -0.4335 -1.1838  1.1563
  118CHL1  H19B14960   3.053  -0.178   1.485  1.9555  2.1447  0.5499
  118CHL1  H19C14961   3.100  -0.101   1.336 -1.6429 -0.1298 -0.1545
  118CHL1    C114962   3.230  -0.405   1.451 -0.1936  0.6367 -0.0974
  118CHL1   H1A14963   3.141  -0.458   1.410 -0.5115  0.0294  1.3335
  118CHL1   H1B14964   3.326  -0.451   1.418 -0.2229  1.3801 -1.3075
  118CHL1    C214965   3.214  -0.418   1.606  0.0892 -0.2131  0.0195
  118CHL1   H2A14966   3.245  -0.521   1.634 -2.3725 -0.4198  2.5007
  118CHL1   H2B14967   3.106  -0.408   1.631  0.1785  1.5662 -0.1829
  118CHL1   C2014968   3.234  -0.249   0.669 -0.7004  0.8970  0.5478
  118CHL1   H2014969   3.148  -0.179   0.673  0.4386  2.3842 -0.0178
  118CHL1   C2114970   3.167  -0.389   0.666 -0.0695  0.2212  0.7396
  118CHL1  H21A14971   3.093  -0.384   0.749 -4.3258  1.1687 -2.7227
  118CHL1  H21B14972   3.228  -0.482   0.667 -1.1850 -0.5366  0.2191
  118CHL1  H21C14973   3.101  -0.396   0.577  0.7538 -0.2774  0.1616
  118CHL1   C2214974   3.318  -0.228   0.538  0.3712  0.8544 -0.0180
  118CHL1  H22A14975   3.377  -0.134   0.539  2.3691 -0.2643 -2.5743
  118CHL1  H22B14976   3.403  -0.299   0.536  1.2758  1.8717 -3.4066
  118CHL1   C2314977   3.246  -0.231   0.411  0.7270 -0.1708  0.6521
  118CHL1  H23A14978   3.176  -0.316   0.396 -2.2803  1.8425  2.3352
  118CHL1  H23B14979   3.179  -0.143   0.402  0.6261 -0.2019  1.0960
  118CHL1   C2414980   3.346  -0.229   0.283  0.4909 -0.4751  0.5351
  118CHL1  H24A14981   3.400  -0.133   0.297  0.2694 -0.2380 -0.1840
  118CHL1  H24B14982   3.413  -0.318   0.286  0.0615 -0.8490 -0.3276
  118CHL1   C2514983   3.269  -0.219   0.146  0.6575  0.4171 -0.1018
  118CHL1   H2514984   3.184  -0.149   0.159 -0.2176 -0.1879 -2.1216
  118CHL1   C2614985   3.363  -0.157   0.036 -0.3719  0.6475  0.2018
  118CHL1  H26A14986   3.311  -0.129  -0.058 -1.7793 -0.7196  0.5211
  118CHL1  H26B14987   3.413  -0.064   0.067 -1.7771  0.8050  2.1313
  118CHL1  H26C14988   3.437  -0.237   0.014  1.7915  2.5894  0.0324
  118CHL1   C2714989   3.204  -0.355   0.106  0.1624  0.0160  0.3688
  118CHL1  H27A14990   3.210  -0.432   0.186 -0.5894  0.6315  1.0340
  118CHL1  H27B14991   3.100  -0.346   0.069  0.6694  0.4176 -1.0046
  118CHL1  H27C14992   3.254  -0.400   0.018 -2.6294  0.3644 -1.5188
  119CHL1    C314993   2.775  -1.140   1.860  0.6103  0.1189 -0.6561
  119CHL1    H314994   2.685  -1.206   1.862  0.2543  0.3856 -3.9014
  119CHL1    O314995   2.828  -1.126   1.992  0.1258 -0.1951  0.2946
  119CHL1   H3'14996   2.912  -1.082   1.976 -0.8141  0.9394 -2.0073
  119CHL1    C414997   2.881  -1.202   1.770  0.1905  0.1713  0.3845
  119CHL1   H4A14998   2.977  -1.148   1.770  1.4250 -1.8818  1.6411
  119CHL1   H4B14999   2.906  -1.306   1.801  1.7945  0.5324  0.3667
  119CHL1    C515000   2.838  -1.199   1.623 -0.4203  0.0360  0.7946
  119CHL1    C615001   2.837  -1.310   1.551  0.1646  0.0104 -0.2761
  119CHL1    H615002   2.878  -1.402   1.595 -0.0173  0.0276 -0.0675
  119CHL1    C715003   2.802  -1.324   1.405 -0.1430 -0.7082  0.1938
  119CHL1   H7A15004   2.883  -1.375   1.349 -0.3059  0.5417 -1.2435
  119CHL1   H7B15005   2.718  -1.390   1.374  1.0596 -2.4439  0.4706
  119CHL1    C815006   2.795  -1.175   1.340  0.2621  0.5921  0.1026
  119CHL1    H815007   2.901  -1.144   1.332  0.5311 -0.0495  0.9950
  119CHL1   C1415008   2.716  -1.184   1.209 -0.6881 -0.3667 -0.6019
  119CHL1   H1415009   2.609  -1.208   1.229 -1.0908  0.0862 -2.0764
  119CHL1   C1515010   2.766  -1.294   1.106  0.3679  0.1064 -0.6631
  119CHL1  H15A15011   2.877  -1.295   1.108  0.4111  1.6465  1.8160
  119CHL1  H15B15012   2.730  -1.397   1.129  4.9171 -1.3170  1.1223
  119CHL1   C1615013   2.719  -1.243   0.972  1.1413 -0.3255  0.3441
  119CHL1  H16A15014   2.799  -1.239   0.895 -0.5808 -0.4275 -1.5433
  119CHL1  H16B15015   2.631  -1.290   0.924 -0.2413  1.4726  1.0109
  119CHL1   C1715016   2.664  -1.098   0.997  0.6054  0.4556 -0.4562
  119CHL1   H1715017   2.555  -1.114   1.016  0.7885 -1.1456 -0.6091
  119CHL1   C1315018   2.724  -1.054   1.135 -0.5211 -0.0876  0.3208
  119CHL1   C1815019   2.868  -1.005   1.100 -0.2767 -0.0449  0.4321
  119CHL1  H18A15020   2.908  -1.071   1.021  0.8198 -0.6026  1.4087
  119CHL1  H18B15021   2.860  -0.906   1.049  0.2708 -0.5823 -0.7351
  119CHL1  H18C15022   2.934  -0.997   1.190 -3.0430 -0.5779  2.6643
  119CHL1   C1215023   2.648  -0.954   1.217  0.6346  0.0296  0.7161
  119CHL1  H12A15024   2.637  -0.851   1.176 -0.5080 -1.0801 -1.9709
  119CHL1  H12B15025   2.546  -0.996   1.227 -0.1819  1.9458  1.0257
  119CHL1   C1115026   2.707  -0.936   1.354 -0.6473  0.7269 -0.2266
  119CHL1  H11A15027   2.811  -0.899   1.337 -0.4047 -0.5598 -1.8689
  119CHL1  H11B15028   2.645  -0.873   1.420  0.0257  0.9754  0.1798
  119CHL1    C915029   2.725  -1.071   1.424  0.1174  0.2731 -0.4359
  119CHL1    H915030   2.620  -1.107   1.432  0.6269 -1.5175 -1.3219
  119CHL1   C1015031   2.785  -1.063   1.565 -0.5429 -0.0432 -0.9390
  119CHL1   C1915032   2.905  -0.973   1.562 -0.5321 -0.4298 -0.4204
  119CHL1  H19A15033   2.960  -0.970   1.659 -1.8520 -1.2622  0.3766
  119CHL1  H19B15034   2.973  -1.013   1.484 -0.8604 -0.1778 -0.8346
  119CHL1  H19C15035   2.870  -0.871   1.533 -0.1986 -0.4088 -0.7657
  119CHL1    C115036   2.672  -1.017   1.668 -0.7312 -0.8194  0.3941
  119CHL1   H1A15037   2.643  -0.915   1.635  0.4458 -0.4422  0.4611
  119CHL1   H1B15038   2.588  -1.085   1.645 -0.0279 -1.6262  0.1642
  119CHL1    C215039   2.720  -1.002   1.811 -0.1987  0.0130  0.2126
  119CHL1   H2A15040   2.632  -0.969   1.871  0.8485  1.5253  0.9870
  119CHL1   H2B15041   2.792  -0.918   1.824 -0.3777  0.1268  0.4877
  119CHL1   C2015042   2.655  -1.001   0.877 -0.6917 -0.0218 -0.1578
  119CHL1   H2015043   2.760  -0.977   0.851 -1.1180 -0.2119 -2.2339
  119CHL1   C2115044   2.580  -0.873   0.912  0.0575 -0.0642  0.0163
  119CHL1  H21A15045   2.477  -0.896   0.947 -0.7326  0.4601 -1.8187
  119CHL1  H21B15046   2.574  -0.806   0.823  0.6041  0.8971  0.6771
  119CHL1  H21C15047   2.616  -0.802   0.989  0.8250  2.5246 -2.5434
  119CHL1   C2215048   2.593  -1.060   0.744 -0.2508  0.4667 -0.0133
  119CHL1  H22A15049   2.626  -1.166   0.732  1.4542  0.8792  0.6828
  119CHL1  H22B15050   2.483  -1.062   0.751 -0.2160 -0.3097  0.4238
  119CHL1   C2315051   2.638  -0.993   0.612 -0.0159 -0.2272  0.2376
  119CHL1  H23A15052   2.612  -0.885   0.612 -1.8436 -0.6356 -0.5925
  119CHL1  H23B15053   2.749  -0.998   0.620  0.0214 -0.6325 -0.4611
  119CHL1   C2415054   2.602  -1.059   0.485  0.4269  0.3307  0.2302
  119CHL1  H24A15055   2.642  -0.998   0.401 -2.3371 -0.7449 -2.0150
  119CHL1  H24B15056   2.641  -1.163   0.474  0.2918 -0.1270  3.2087
  119CHL1   C2515057   2.460  -1.066   0.448 -0.9164  0.2199  0.3239
  119CHL1   H2515058   2.407  -1.141   0.510 -0.6251 -0.9415 -0.8100
  119CHL1   C2615059   2.375  -0.934   0.454 -0.3051 -0.2069 -0.5056
  119CHL1  H26A15060   2.432  -0.849   0.409  2.5006 -1.1106  1.0830
  119CHL1  H26B15061   2.281  -0.938   0.396 -0.7463 -0.8747  0.2367
  119CHL1  H26C15062   2.349  -0.902   0.557  0.2614 -1.4203  0.0290
  119CHL1   C2715063   2.456  -1.111   0.299 -0.3981 -0.1921  0.7710
  119CHL1  H27A15064   2.472  -1.030   0.225  2.2615 -1.8180 -0.6083
  119CHL1  H27B15065   2.528  -1.189   0.264  1.2403  2.2617 -1.7815
  119CHL1  H27C15066   2.354  -1.153   0.286  0.3172 -1.6489 -0.6231
  120CHL1    C315067  -2.905  -2.787   1.632 -1.3371 -0.0004  0.5900
  120CHL1    H315068  -3.013  -2.800   1.609 -1.0391  0.2670 -1.1283
  120CHL1    O315069  -2.897  -2.794   1.772 -0.2633  0.0374 -0.4083
  120CHL1   H3'15070  -2.957  -2.866   1.789 -2.9604  2.2618  0.2220
  120CHL1    C415071  -2.809  -2.904   1.571  0.9501 -0.0190  0.2746
  120CHL1   H4A15072  -2.708  -2.881   1.610  1.6960 -0.1345 -1.5115
  120CHL1   H4B15073  -2.843  -3.000   1.614  0.9472  0.5368  1.5430
  120CHL1    C515074  -2.823  -2.897   1.420 -0.0856 -0.7051 -0.1211
  120CHL1    C615075  -2.851  -3.005   1.357 -0.1699 -0.2257 -0.2674
  120CHL1    H615076  -2.858  -3.093   1.422  2.2575  1.7586  2.9782
  120CHL1    C715077  -2.865  -3.013   1.206  0.4389  0.0776  0.5938
  120CHL1   H7A15078  -2.816  -3.101   1.160 -0.5993 -1.0833  1.6352
  120CHL1   H7B15079  -2.974  -3.011   1.182  0.4437 -1.1021  0.4411
  120CHL1    C815080  -2.810  -2.884   1.130  0.1552  1.4325 -0.5622
  120CHL1    H815081  -2.699  -2.891   1.123 -0.0013  0.0868 -3.3024
  120CHL1   C1415082  -2.862  -2.889   0.985 -0.2744  0.3239 -0.2786
  120CHL1   H1415083  -2.971  -2.870   0.987 -0.3912 -0.3471  0.4611
  120CHL1   C1515084  -2.844  -3.015   0.892 -0.1123 -0.7941  0.2569
  120CHL1  H15A15085  -2.738  -3.048   0.895  1.0759  2.6879  0.7035
  120CHL1  H15B15086  -2.909  -3.100   0.924 -2.7054  0.9785  0.0516
  120CHL1   C1615087  -2.878  -2.955   0.753  0.0970  0.3686 -0.1817
  120CHL1  H16A15088  -2.807  -3.003   0.682  0.4612  0.1778  0.3076
  120CHL1  H16B15089  -2.984  -2.985   0.736 -0.1811  0.5363  1.1333
  120CHL1   C1715090  -2.868  -2.798   0.758  0.8608  0.4669 -0.8919
  120CHL1   H1715091  -2.972  -2.759   0.767  0.4497 -0.9431  1.1132
  120CHL1   C1315092  -2.812  -2.764   0.902 -0.2208  0.3252 -0.3838
  120CHL1   C1815093  -2.656  -2.769   0.893 -0.3045 -0.0594  0.6562
  120CHL1  H18A15094  -2.621  -2.679   0.837 -1.7428 -1.4162 -2.7077
  120CHL1  H18B15095  -2.614  -2.780   0.995 -1.7756 -0.1061  1.2834
  120CHL1  H18C15096  -2.625  -2.859   0.837  2.5311  0.1528  1.7517
  120CHL1   C1215097  -2.860  -2.639   0.975  1.1899 -0.7356 -0.5932
  120CHL1  H12A15098  -2.821  -2.550   0.920  1.0204 -0.7770 -0.7846
  120CHL1  H12B15099  -2.971  -2.641   0.976  1.1181  0.6601  1.9082
  120CHL1   C1115100  -2.820  -2.631   1.123 -0.0005 -0.1690 -0.0546
  120CHL1  H11A15101  -2.715  -2.594   1.131 -0.5311  1.0905  1.3821
  120CHL1  H11B15102  -2.885  -2.551   1.163  0.8706  0.1540  0.7683
  120CHL1    C915103  -2.853  -2.760   1.204  0.5974  0.2871  0.0457
  120CHL1    H915104  -2.964  -2.760   1.206  0.5324 -0.0287 -2.1025
  120CHL1   C1015105  -2.805  -2.755   1.350  0.3539 -0.1829  0.7151
  120CHL1   C1915106  -2.655  -2.722   1.352 -0.1683  0.3934  0.1422
  120CHL1  H19A15107  -2.620  -2.623   1.317  1.6300 -0.2094  0.1531
  120CHL1  H19B15108  -2.619  -2.719   1.457 -0.3376 -1.5935  0.2911
  120CHL1  H19C15109  -2.601  -2.796   1.289 -1.1264 -0.1567 -0.0534
  120CHL1    C115110  -2.879  -2.641   1.422 -0.1126  0.2847  0.0568
  120CHL1   H1A15111  -2.853  -2.539   1.385 -1.1861  1.3624  2.0746
  120CHL1   H1B15112  -2.984  -2.661   1.393 -0.9014  1.8499  1.6556
  120CHL1    C215113  -2.860  -2.647   1.576  1.1291  0.5001 -0.5045
  120CHL1   H2A15114  -2.932  -2.575   1.622 -0.2125  0.0297 -1.7995
  120CHL1   H2B15115  -2.751  -2.633   1.596  1.5544 -1.4869 -1.2016
  120CHL1   C2015116  -2.813  -2.736   0.625 -0.1643  0.3651 -0.0137
  120CHL1   H2015117  -2.705  -2.764   0.622 -0.7205 -1.9208 -3.5171
  120CHL1   C2115118  -2.821  -2.583   0.635  0.6606 -0.1279  0.8543
  120CHL1  H21A15119  -2.782  -2.534   0.544 -0.1548  0.0618  0.5930
  120CHL1  H21B15120  -2.771  -2.547   0.727  1.9687 -1.1095  0.5452
  120CHL1  H21C15121  -2.924  -2.541   0.641  1.5419  2.2127  0.3594
  120CHL1   C2215122  -2.885  -2.790   0.501 -0.1436 -0.1353  0.4244
  120CHL1  H22A15123  -2.842  -2.733   0.415  1.3994  0.3819  1.5091
  120CHL1  H22B15124  -2.859  -2.896   0.482 -0.1177 -0.1016  0.2683
  120CHL1   C2315125  -3.038  -2.768   0.500 -0.1662 -0.0656  0.9292
  120CHL1  H23A15126  -3.076  -2.794   0.601  2.0571 -0.9860  1.5994
  120CHL1  H23B15127  -3.067  -2.663   0.481 -2.1020 -0.6224  0.5774
  120CHL1   C2415128  -3.103  -2.852   0.391  0.1409  0.1492  0.7787
  120CHL1  H24A15129  -3.054  -2.805   0.302 -0.9636  0.2706  0.2148
  120CHL1  H24B15130  -3.083  -2.960   0.403  0.1479 -0.0078 -0.4605
  120CHL1   C2515131  -3.259  -2.827   0.379  1.1013  0.4767  0.9547
  120CHL1   H2515132  -3.301  -2.821   0.481  1.9156  3.8428  1.2168
  120CHL1   C2615133  -3.289  -2.690   0.310  0.2580 -0.7958 -0.3344
  120CHL1  H26A15134  -3.399  -2.682   0.294  0.1990  3.5458  0.9117
  120CHL1  H26B15135  -3.267  -2.605   0.379  0.9287 -1.3148  0.0966
  120CHL1  H26C15136  -3.242  -2.688   0.209  1.1976 -4.1210 -0.0887
  120CHL1   C2715137  -3.325  -2.945   0.300 -0.0807 -0.9347 -0.5362
  120CHL1  H27A15138  -3.435  -2.937   0.282  0.0085  1.3413 -0.3288
  120CHL1  H27B15139  -3.275  -2.948   0.200 -0.2972 -0.8717 -0.6475
  120CHL1  H27C15140  -3.303  -3.042   0.350  0.7239 -1.2331 -1.4427
  121CHL1    C315141  -0.438   1.177  -1.869 -0.9519  0.9150  0.5529
  121CHL1    H315142  -0.516   1.100  -1.852  0.6779 -1.0345 -0.4531
  121CHL1    O315143  -0.425   1.204  -2.007 -0.1467  0.0832 -0.4131
  121CHL1   H3'15144  -0.390   1.121  -2.040 -1.3382 -0.2659 -0.8705
  121CHL1    C415145  -0.479   1.302  -1.799  0.5209 -0.6097  0.2368
  121CHL1   H4A15146  -0.405   1.375  -1.840  0.3215 -0.8644 -0.6060
  121CHL1   H4B15147  -0.577   1.339  -1.837  0.6958  1.6463  1.7920
  121CHL1    C515148  -0.469   1.296  -1.647  0.2730 -0.1757  0.4384
  121CHL1    C615149  -0.583   1.306  -1.575 -0.2631 -0.0585  0.1592
  121CHL1    H615150  -0.671   1.343  -1.630  2.2104  2.1555 -2.7176
  121CHL1    C715151  -0.592   1.303  -1.422 -0.4312 -0.1941 -0.0218
  121CHL1   H7A15152  -0.634   1.398  -1.381 -1.7351 -1.3340  1.3791
  121CHL1   H7B15153  -0.649   1.214  -1.388 -0.3700  0.3988  1.7833
  121CHL1    C815154  -0.447   1.293  -1.362  0.0888  0.7548 -0.2512
  121CHL1    H815155  -0.411   1.397  -1.342 -0.5907  0.4265  3.5986
  121CHL1   C1415156  -0.466   1.233  -1.218 -0.3633 -0.2099 -0.1085
  121CHL1   H1415157  -0.513   1.133  -1.233 -1.6304  0.4399 -0.5917
  121CHL1   C1515158  -0.554   1.308  -1.122  0.1401 -0.1796 -0.1765
  121CHL1  H15A15159  -0.533   1.417  -1.126 -3.1295  0.5214 -1.6943
  121CHL1  H15B15160  -0.658   1.303  -1.163  0.6835  0.6920 -1.7602
  121CHL1   C1615161  -0.519   1.256  -0.986 -0.0580  0.6662  0.3660
  121CHL1  H16A15162  -0.486   1.342  -0.923  1.1749  0.6375 -0.2097
  121CHL1  H16B15163  -0.590   1.191  -0.931 -0.7588  0.3333 -0.8901
  121CHL1   C1715164  -0.393   1.166  -1.009  0.4156 -0.3956  0.5559
  121CHL1   H1715165  -0.434   1.065  -1.033  0.0483  0.0555 -0.8018
  121CHL1   C1315166  -0.333   1.207  -1.144  0.0821  0.3745  0.6124
  121CHL1   C1815167  -0.259   1.339  -1.121  0.1699  0.2351  0.3241
  121CHL1  H18A15168  -0.154   1.318  -1.090  0.7810  0.2962 -1.5746
  121CHL1  H18B15169  -0.265   1.397  -1.215 -2.8965 -0.3331  0.0581
  121CHL1  H18C15170  -0.314   1.406  -1.052 -0.7468  0.3538 -0.4873
  121CHL1   C1215171  -0.246   1.113  -1.226  0.8683 -0.8270 -0.0955
  121CHL1  H12A15172  -0.143   1.109  -1.183  0.4930  1.1879  1.1521
  121CHL1  H12B15173  -0.293   1.013  -1.227 -1.5067  0.2212 -1.3782
  121CHL1   C1115174  -0.233   1.155  -1.369 -0.6145 -0.5840  0.1660
  121CHL1  H11A15175  -0.167   1.244  -1.366 -0.9920 -0.3237  1.0189
  121CHL1  H11B15176  -0.181   1.074  -1.424  0.3412 -0.1812  0.4521
  121CHL1    C915177  -0.363   1.197  -1.444  0.5952  0.0287  0.5404
  121CHL1    H915178  -0.419   1.101  -1.438  0.2514  0.3101  2.0327
  121CHL1   C1015179  -0.335   1.246  -1.588 -0.8433 -0.4041  0.2308
  121CHL1   C1915180  -0.228   1.363  -1.599  0.2761  0.1702 -0.7908
  121CHL1  H19A15181  -0.215   1.405  -1.700 -1.0457  0.2173 -0.9682
  121CHL1  H19B15182  -0.253   1.449  -1.532  2.4415  1.3792 -1.4676
  121CHL1  H19C15183  -0.127   1.327  -1.572  0.6744  0.0368 -2.3823
  121CHL1    C115184  -0.289   1.124  -1.676  0.3319 -0.6514 -0.2379
  121CHL1   H1A15185  -0.186   1.092  -1.647  0.0796 -1.7105 -0.4597
  121CHL1   H1B15186  -0.365   1.046  -1.657  2.6309 -2.8651  0.4836
  121CHL1    C215187  -0.298   1.137  -1.828 -0.4369 -0.2662 -0.0653
  121CHL1   H2A15188  -0.264   1.044  -1.878 -0.1092 -0.6367  0.8242
  121CHL1   H2B15189  -0.225   1.218  -1.852 -1.5335  0.9706  0.6298
  121CHL1   C2015190  -0.301   1.159  -0.886  0.1960  0.1518  0.2688
  121CHL1   H2015191  -0.234   1.247  -0.884 -0.8513  0.9639  0.9694
  121CHL1   C2115192  -0.217   1.033  -0.911 -0.0011  0.1777 -0.3890
  121CHL1  H21A15193  -0.142   1.051  -0.991  1.5069 -2.0116  0.4382
  121CHL1  H21B15194  -0.275   0.948  -0.953  1.8674 -2.6319  2.2463
  121CHL1  H21C15195  -0.156   0.998  -0.825  1.2179  1.0292 -0.8832
  121CHL1   C2215196  -0.384   1.140  -0.761 -0.0730  0.0979 -0.4755
  121CHL1  H22A15197  -0.457   1.223  -0.750 -0.8758 -0.7351  0.6019
  121CHL1  H22B15198  -0.446   1.049  -0.776  3.1519 -1.9959 -2.2921
  121CHL1   C2315199  -0.308   1.128  -0.629 -0.1445 -0.3537  0.6186
  121CHL1  H23A15200  -0.251   1.033  -0.634  1.7868  0.8071 -1.1925
  121CHL1  H23B15201  -0.230   1.206  -0.632  0.0666 -0.5715  0.3724
  121CHL1   C2415202  -0.404   1.129  -0.507 -0.1535 -0.0382  0.2107
  121CHL1  H24A15203  -0.446   1.232  -0.509  1.9172  0.8562  0.5281
  121CHL1  H24B15204  -0.487   1.056  -0.523  0.7393 -0.8714 -0.7697
  121CHL1   C2515205  -0.337   1.111  -0.369 -0.0613 -0.8103 -0.2505
  121CHL1   H2515206  -0.254   1.185  -0.368  0.1011 -0.9831 -0.7898
  121CHL1   C2615207  -0.442   1.153  -0.263 -0.0723 -0.2605 -0.0294
  121CHL1  H26A15208  -0.408   1.111  -0.167  0.2888  1.2956  0.5610
  121CHL1  H26B15209  -0.430   1.263  -0.252  2.7876 -0.3056 -1.7617
  121CHL1  H26C15210  -0.544   1.114  -0.281  0.3699 -0.7676 -1.6694
  121CHL1   C2715211  -0.291   0.965  -0.338 -0.5778 -0.6832  0.7991
  121CHL1  H27A15212  -0.377   0.901  -0.309 -0.5615 -0.4161  1.4628
  121CHL1  H27B15213  -0.227   0.926  -0.420  1.8628  2.7321  0.8798
  121CHL1  H27C15214  -0.222   0.970  -0.250  0.7118 -1.3904 -0.1331
  122CHL1    C315215  -1.146   0.556  -1.550  0.7447  0.0931  0.2870
  122CHL1    H315216  -1.223   0.482  -1.520  2.8120 -1.3253  2.5547
  122CHL1    O315217  -1.151   0.591  -1.688  0.0882 -0.1001 -0.7488
  122CHL1   H3'15218  -1.083   0.546  -1.738  0.7903  0.9606 -0.7718
  122CHL1    C415219  -1.158   0.672  -1.460 -0.4831  0.1604 -0.5948
  122CHL1   H4A15220  -1.083   0.746  -1.495 -1.2611  1.8934  1.2233
  122CHL1   H4B15221  -1.250   0.732  -1.477  0.5723  2.2542  0.7376
  122CHL1    C515222  -1.145   0.639  -1.314  0.1706  0.7039  0.1847
  122CHL1    C615223  -1.237   0.669  -1.221  0.1454  0.1149 -0.1916
  122CHL1    H615224  -1.333   0.710  -1.256 -0.6259 -0.1394  1.5333
  122CHL1    C715225  -1.230   0.646  -1.075 -0.9209  0.6718 -0.2121
  122CHL1   H7A15226  -1.260   0.742  -1.028 -1.1342  0.5954 -0.1935
  122CHL1   H7B15227  -1.299   0.562  -1.056 -0.8694  0.9645  1.4412
  122CHL1    C815228  -1.087   0.600  -1.026 -0.1343  0.0603 -0.4433
  122CHL1    H815229  -1.016   0.686  -1.021  1.7991 -1.5289  0.8640
  122CHL1   C1415230  -1.090   0.550  -0.881  0.7738 -0.1282  0.0498
  122CHL1   H1415231  -1.177   0.481  -0.887 -0.8439  1.8119 -0.1224
  122CHL1   C1515232  -1.142   0.649  -0.774 -0.4381 -0.1098 -0.0024
  122CHL1  H15A15233  -1.123   0.758  -0.782  0.0705 -0.2952 -1.6741
  122CHL1  H15B15234  -1.252   0.639  -0.762 -0.7021  3.0340  1.0830
  122CHL1   C1615235  -1.089   0.582  -0.643  0.2172  0.0436 -0.1416
  122CHL1  H16A15236  -1.041   0.655  -0.574 -0.1421 -1.0198  1.2724
  122CHL1  H16B15237  -1.174   0.544  -0.583  1.4768  0.4601  2.0190
  122CHL1   C1715238  -1.001   0.462  -0.683  0.1696 -0.9861 -0.6762
  122CHL1   H1715239  -1.072   0.376  -0.679 -0.5576 -0.3496  0.9138
  122CHL1   C1315240  -0.969   0.479  -0.831 -0.5675  0.4551 -0.2515
  122CHL1   C1815241  -0.844   0.577  -0.840 -0.0155  1.1212  0.1181
  122CHL1  H18A15242  -0.755   0.528  -0.793 -0.3129 -0.5569 -0.9776
  122CHL1  H18B15243  -0.826   0.616  -0.942 -2.6201  2.1959  0.0008
  122CHL1  H18C15244  -0.867   0.669  -0.781  0.6778  1.5920 -0.3372
  122CHL1   C1215245  -0.943   0.359  -0.926 -0.4131  0.6297 -0.1820
  122CHL1  H12A15246  -0.847   0.312  -0.895 -0.5011  0.5496 -0.0257
  122CHL1  H12B15247  -1.020   0.278  -0.929 -0.8946  1.1021 -2.1222
  122CHL1   C1115248  -0.930   0.398  -1.075  0.0959  0.0796  1.1711
  122CHL1  H11A15249  -0.825   0.433  -1.080  0.9903 -2.5124  0.3886
  122CHL1  H11B15250  -0.934   0.310  -1.143  1.1709  0.4993  0.5423
  122CHL1    C915251  -1.034   0.497  -1.131 -0.0035 -0.2410  0.0408
  122CHL1    H915252  -1.122   0.428  -1.133  1.0310 -1.6632  1.0471
  122CHL1   C1015253  -1.019   0.555  -1.277  0.1273  0.5346 -0.0457
  122CHL1   C1915254  -0.900   0.652  -1.279 -0.7870 -0.1076 -0.0835
  122CHL1  H19A15255  -0.930   0.720  -1.197  0.1616 -1.1079  1.1407
  122CHL1  H19B15256  -0.811   0.604  -1.232 -1.6457 -1.2127  0.4640
  122CHL1  H19C15257  -0.884   0.711  -1.371 -1.6016  0.6550  0.2570
  122CHL1    C115258  -1.003   0.436  -1.384  0.0595 -0.6122 -0.0836
  122CHL1   H1A15259  -0.907   0.384  -1.360 -0.4616 -1.8831 -0.6778
  122CHL1   H1B15260  -1.084   0.362  -1.368  1.1726 -1.8062  0.2482
  122CHL1    C215261  -1.011   0.483  -1.527  0.2146  0.1730  0.0751
  122CHL1   H2A15262  -0.999   0.397  -1.597 -1.3198 -0.8795  1.0323
  122CHL1   H2B15263  -0.929   0.553  -1.553  1.2762 -0.6337  1.1420
  122CHL1   C2015264  -0.886   0.442  -0.576  0.0537  0.5742 -0.2796
  122CHL1   H2015265  -0.810   0.522  -0.587 -0.7425  1.1918 -1.4731
  122CHL1   C2115266  -0.817   0.307  -0.611  0.1056 -0.2506 -0.8432
  122CHL1  H21A15267  -0.754   0.318  -0.701 -0.1295  0.6296 -0.9083
  122CHL1  H21B15268  -0.898   0.231  -0.613 -1.4006  1.1727  1.3195
  122CHL1  H21C15269  -0.754   0.277  -0.524 -1.4616  0.6579  0.6698
  122CHL1   C2215270  -0.929   0.444  -0.426 -0.0173 -0.2162  0.3720
  122CHL1  H22A15271  -0.849   0.410  -0.357  2.6122  3.3400 -0.5912
  122CHL1  H22B15272  -0.948   0.549  -0.393  3.7157  0.1185  1.9506
  122CHL1   C2315273  -1.056   0.361  -0.388  0.5330  0.2659  0.6052
  122CHL1  H23A15274  -1.140   0.414  -0.439  0.2270 -0.5434  0.2480
  122CHL1  H23B15275  -1.057   0.255  -0.422  3.2724 -0.3105  2.0369
  122CHL1   C2415276  -1.083   0.372  -0.235  0.2723 -0.6084  0.1254
  122CHL1  H24A15277  -1.146   0.290  -0.193 -0.8258  0.8960  1.5378
  122CHL1  H24B15278  -0.982   0.351  -0.194  0.8605  0.4407 -0.7164
  122CHL1   C2515279  -1.148   0.502  -0.176 -0.2791 -0.1109 -0.1344
  122CHL1   H2515280  -1.071   0.582  -0.181 -0.5488  0.3481  2.0130
  122CHL1   C2615281  -1.263   0.559  -0.257 -0.5261  0.3308 -0.4791
  122CHL1  H26A15282  -1.225   0.618  -0.343 -2.5632  0.6997 -1.1628
  122CHL1  H26B15283  -1.322   0.480  -0.307  1.9475 -2.3425  0.5511
  122CHL1  H26C15284  -1.332   0.616  -0.192  1.3043 -0.5009  2.3765
  122CHL1   C2715285  -1.180   0.479  -0.029 -0.7476 -0.0169  0.1129
  122CHL1  H27A15286  -1.090   0.437   0.020 -0.5350 -1.4575 -1.4260
  122CHL1  H27B15287  -1.202   0.576   0.021 -2.2637 -1.2894  2.0567
  122CHL1  H27C15288  -1.261   0.405  -0.011  0.9632 -1.2693  3.4215
  123CHL1    C315289  -0.006   0.377  -2.163  0.2745 -0.1442  0.2073
  123CHL1    H315290  -0.082   0.452  -2.133  1.9353  1.0986  1.5300
  123CHL1    O315291   0.000   0.359  -2.305 -0.1676 -0.1117  0.0299
  123CHL1   H3'15292   0.033   0.270  -2.323  2.2096  0.9452 -1.1801
  123CHL1    C415293   0.132   0.430  -2.117  0.1250 -0.3020  0.4269
  123CHL1   H4A15294   0.215   0.373  -2.164  1.0904  0.9454  0.5558
  123CHL1   H4B15295   0.134   0.537  -2.149 -2.6751  0.5188  2.6185
  123CHL1    C515296   0.139   0.426  -1.967  0.0089  0.6930 -0.4608
  123CHL1    C615297   0.176   0.535  -1.891 -0.3607 -0.3352  0.2648
  123CHL1    H615298   0.193   0.630  -1.944 -0.6299 -1.5372 -2.1269
  123CHL1    C715299   0.205   0.531  -1.746 -0.4784  0.3008 -0.9123
  123CHL1   H7A15300   0.305   0.576  -1.730 -1.0148  1.3146 -0.2458
  123CHL1   H7B15301   0.130   0.602  -1.703 -0.2267 -0.2531  0.4884
  123CHL1    C815302   0.198   0.389  -1.678  0.3590  0.8243  0.7697
  123CHL1    H815303   0.299   0.347  -1.701 -0.1425 -1.0707  1.8182
  123CHL1   C1415304   0.174   0.395  -1.525 -0.4377  0.2990  0.2702
  123CHL1   H1415305   0.072   0.436  -1.510 -0.7795 -0.4036 -0.1077
  123CHL1   C1515306   0.262   0.489  -1.444  0.6465  0.7679  0.9498
  123CHL1  H15A15307   0.362   0.481  -1.491 -1.2069  2.3291 -3.9417
  123CHL1  H15B15308   0.231   0.595  -1.440  0.1096  0.6934 -0.5404
  123CHL1   C1615309   0.250   0.427  -1.301  1.0477  0.5504 -0.3287
  123CHL1  H16A15310   0.350   0.398  -1.261  0.3704 -0.9995  0.2675
  123CHL1  H16B15311   0.196   0.502  -1.239 -2.7216 -0.9422 -1.5447
  123CHL1   C1715312   0.170   0.293  -1.308 -0.4202 -0.0658  0.0049
  123CHL1   H1715313   0.067   0.324  -1.280  0.2574  0.7059  1.8172
  123CHL1   C1315314   0.172   0.252  -1.455  0.0047 -1.4524 -0.3863
  123CHL1   C1815315   0.313   0.184  -1.478  0.5813 -0.1817 -0.2734
  123CHL1  H18A15316   0.339   0.183  -1.586  0.5891  0.2112 -0.2759
  123CHL1  H18B15317   0.394   0.240  -1.427  0.3976  1.7218 -1.9759
  123CHL1  H18C15318   0.309   0.079  -1.442  1.5348 -1.5441 -3.7317
  123CHL1   C1215319   0.054   0.173  -1.518  0.3823  0.1816  0.2251
  123CHL1  H12A15320   0.038   0.075  -1.469 -1.8302 -0.1857 -1.1096
  123CHL1  H12B15321  -0.041   0.225  -1.496 -0.4388 -1.4862  0.8192
  123CHL1   C1115322   0.076   0.167  -1.669  0.1086  0.0528 -0.1047
  123CHL1  H11A15323   0.174   0.118  -1.688 -0.2220 -0.4901 -0.4513
  123CHL1  H11B15324  -0.001   0.105  -1.721  0.4258  0.2625 -0.8438
  123CHL1    C915325   0.088   0.307  -1.743 -0.4210  0.5834 -0.6820
  123CHL1    H915326  -0.006   0.360  -1.715  0.1957  1.8110 -0.8915
  123CHL1   C1015327   0.104   0.290  -1.894  0.5421 -0.1316 -0.0382
  123CHL1   C1915328   0.211   0.187  -1.937 -0.2124 -0.6791 -0.0983
  123CHL1  H19A15329   0.229   0.197  -2.046  0.9725 -0.0178  0.1396
  123CHL1  H19B15330   0.306   0.208  -1.883 -0.4893 -0.7595  0.4308
  123CHL1  H19C15331   0.197   0.078  -1.922  1.8231 -1.0141 -0.3664
  123CHL1    C115332  -0.032   0.245  -1.955 -0.6624 -0.2935 -0.0403
  123CHL1   H1A15333  -0.061   0.141  -1.929  0.4629 -0.9341 -1.2603
  123CHL1   H1B15334  -0.115   0.311  -1.921 -1.1919 -0.6308 -0.6520
  123CHL1    C215335  -0.040   0.245  -2.108  0.5484  0.3857 -0.1722
  123CHL1   H2A15336  -0.136   0.204  -2.144  1.0864  0.4199 -1.7325
  123CHL1   H2B15337   0.034   0.170  -2.142  1.5188  1.1812  0.1110
  123CHL1   C2015338   0.209   0.191  -1.186 -0.9901  0.3521 -0.4646
  123CHL1   H2015339   0.294   0.123  -1.210 -0.6653  0.9248 -0.9681
  123CHL1   C2115340   0.079   0.114  -1.171  0.1741  0.0247  0.3787
  123CHL1  H21A15341  -0.003   0.187  -1.154  0.5506  0.2192  1.3909
  123CHL1  H21B15342   0.080   0.049  -1.081 -0.2686 -0.2174  0.2138
  123CHL1  H21C15343   0.060   0.047  -1.258  1.4215  0.5853 -0.3531
  123CHL1   C2215344   0.249   0.267  -1.061  0.2952  0.1000  0.8367
  123CHL1  H22A15345   0.352   0.305  -1.075 -0.1845  2.5223  2.9593
  123CHL1  H22B15346   0.181   0.355  -1.052 -0.4625 -0.5025  1.1576
  123CHL1   C2315347   0.225   0.199  -0.922 -0.6078 -0.0599 -0.2975
  123CHL1  H23A15348   0.116   0.193  -0.902 -0.4669  1.1342  0.9508
  123CHL1  H23B15349   0.282   0.103  -0.927  1.1076  0.9811 -1.9337
  123CHL1   C2415350   0.302   0.276  -0.811 -0.3612  0.2244 -0.0885
  123CHL1  H24A15351   0.401   0.311  -0.848  0.3353  0.6053  2.0055
  123CHL1  H24B15352   0.243   0.365  -0.782 -0.9357  0.0510 -0.7012
  123CHL1   C2515353   0.313   0.198  -0.676 -0.3017 -0.2465  0.0428
  123CHL1   H2515354   0.399   0.128  -0.685 -0.6021 -0.7659  1.1213
  123CHL1   C2615355   0.357   0.288  -0.560  0.2340 -0.6315  0.0669
  123CHL1  H26A15356   0.451   0.340  -0.591  1.2346 -2.4669 -0.1129
  123CHL1  H26B15357   0.274   0.357  -0.535  0.0188 -0.4159 -1.1698
  123CHL1  H26C15358   0.389   0.224  -0.475  3.3165  3.1916  2.1424
  123CHL1   C2715359   0.187   0.114  -0.644 -1.3574 -0.5963  1.1649
  123CHL1  H27A15360   0.145   0.056  -0.728  0.1698  1.3741 -1.1090
  123CHL1  H27B15361   0.194   0.047  -0.556 -1.4754 -1.0535  0.8240
  123CHL1  H27C15362   0.098   0.181  -0.636 -1.8000 -0.2864 -3.3876
  124CHL1    C315363  -1.144   1.617  -1.237  0.1637  0.0852  0.1200
  124CHL1    H315364  -1.081   1.708  -1.247  0.8673 -0.6430 -2.9239
  124CHL1    O315365  -1.210   1.582  -1.359  0.0499 -0.1063 -0.2736
  124CHL1   H3'15366  -1.297   1.623  -1.363 -0.1485 -0.6449 -1.7762
  124CHL1    C415367  -1.043   1.508  -1.193  0.0871 -0.1110 -0.3149
  124CHL1   H4A15368  -1.109   1.419  -1.202 -0.8362  0.5587 -0.1692
  124CHL1   H4B15369  -0.964   1.501  -1.272  1.1296 -1.0612  0.7561
  124CHL1    C515370  -0.981   1.514  -1.059  0.1473  0.0223 -0.8095
  124CHL1    C615371  -0.850   1.505  -1.030 -0.4589  0.5131  0.4938
  124CHL1    H615372  -0.785   1.474  -1.112 -1.0331  1.4088 -0.3281
  124CHL1    C715373  -0.791   1.501  -0.893  0.2005 -0.7691 -0.1857
  124CHL1   H7A15374  -0.710   1.424  -0.895 -1.1783 -2.3003  0.4443
  124CHL1   H7B15375  -0.747   1.602  -0.882 -0.8284 -0.2860 -0.4981
  124CHL1    C815376  -0.894   1.488  -0.776 -0.5848 -0.6537  1.0502
  124CHL1    H815377  -0.921   1.380  -0.773  0.9725 -1.2152 -1.5802
  124CHL1   C1415378  -0.827   1.507  -0.649  0.0629 -0.4344 -0.2392
  124CHL1   H1415379  -0.792   1.612  -0.663 -1.1789 -0.1997 -1.8910
  124CHL1   C1515380  -0.702   1.435  -0.617 -0.0338 -0.9119 -0.6415
  124CHL1  H15A15381  -0.705   1.324  -0.621 -1.5191 -1.0741  2.2312
  124CHL1  H15B15382  -0.614   1.468  -0.676  2.4483 -0.5297  2.9214
  124CHL1   C1615383  -0.680   1.476  -0.465  0.4896  0.1245  0.1322
  124CHL1  H16A15384  -0.654   1.380  -0.416  0.6325 -0.0917 -0.3635
  124CHL1  H16B15385  -0.593   1.543  -0.450 -0.5455  1.1514  1.8719
  124CHL1   C1715386  -0.820   1.542  -0.417  0.2732 -0.0484 -1.0157
  124CHL1   H1715387  -0.811   1.652  -0.429 -1.7253  0.0189 -2.5494
  124CHL1   C1315388  -0.921   1.504  -0.532 -0.3678  0.1904 -0.1528
  124CHL1   C1815389  -0.974   1.366  -0.511  0.2290  0.4348 -0.8070
  124CHL1  H18A15390  -1.020   1.323  -0.603  0.9540 -1.4375 -0.3492
  124CHL1  H18B15391  -0.894   1.293  -0.486  1.6761  1.9830 -0.7537
  124CHL1  H18C15392  -1.050   1.350  -0.432  0.3899 -4.0193 -1.3008
  124CHL1   C1215393  -1.034   1.606  -0.551  0.3849 -0.7751  0.1182
  124CHL1  H12A15394  -1.114   1.602  -0.474  0.5811  0.8709  0.4502
  124CHL1  H12B15395  -0.993   1.710  -0.548 -1.6533  0.0749  0.3451
  124CHL1   C1115396  -1.112   1.598  -0.680 -0.5222 -0.2308  0.1143
  124CHL1  H11A15397  -1.175   1.510  -0.657 -0.4305  0.2383  2.3995
  124CHL1  H11B15398  -1.171   1.691  -0.698 -0.1547  0.0979  0.5839
  124CHL1    C915399  -1.013   1.583  -0.807  0.2726 -0.2783  0.4280
  124CHL1    H915400  -0.965   1.681  -0.831 -1.5465  0.3540 -0.8091
  124CHL1   C1015401  -1.091   1.545  -0.938  0.8030  0.0598  0.7492
  124CHL1   C1915402  -1.169   1.410  -0.927  0.2280  0.5222 -0.3682
  124CHL1  H19A15403  -1.099   1.331  -0.892 -0.3634 -0.3233 -1.0481
  124CHL1  H19B15404  -1.255   1.412  -0.857  0.0048 -0.5599 -0.6034
  124CHL1  H19C15405  -1.213   1.381  -1.024 -1.3697 -2.7814  1.1888
  124CHL1    C115406  -1.176   1.665  -0.984  0.1855 -0.2399  0.4275
  124CHL1   H1A15407  -1.253   1.683  -0.906 -0.3321 -0.6102  0.0051
  124CHL1   H1B15408  -1.118   1.759  -0.997 -0.2766  0.1204  0.9349
  124CHL1    C215409  -1.245   1.637  -1.127 -0.2571  0.4417  0.3058
  124CHL1   H2A15410  -1.314   1.719  -1.158 -0.6207 -0.1742 -0.5355
  124CHL1   H2B15411  -1.307   1.546  -1.116  3.4890 -2.1606  1.9731
  124CHL1   C2015412  -0.848   1.518  -0.264  0.0344  0.2085  0.2754
  124CHL1   H2015413  -0.870   1.410  -0.257 -0.0800  0.2384  0.3888
  124CHL1   C2115414  -0.968   1.598  -0.219 -0.0903  0.7260  0.1295
  124CHL1  H21A15415  -1.006   1.589  -0.114 -0.9531 -0.7788 -0.2809
  124CHL1  H21B15416  -1.062   1.579  -0.275 -0.8874 -1.2903  1.9583
  124CHL1  H21C15417  -0.923   1.699  -0.222  0.8719  0.2779 -1.2192
  124CHL1   C2215418  -0.724   1.541  -0.174  0.1163  0.6857 -0.3973
  124CHL1  H22A15419  -0.636   1.480  -0.204  0.5306  1.7248 -1.3865
  124CHL1  H22B15420  -0.699   1.649  -0.173  2.0170  0.4380  4.1463
  124CHL1   C2315421  -0.737   1.505  -0.023  0.2583 -0.3518  0.7445
  124CHL1  H23A15422  -0.651   1.549   0.033  3.0807 -3.2747 -0.9749
  124CHL1  H23B15423  -0.828   1.549   0.023  0.3005  1.0700 -0.4529
  124CHL1   C2415424  -0.715   1.349   0.002 -0.0625  0.6106  0.2217
  124CHL1  H24A15425  -0.798   1.279  -0.023 -1.7992  1.2101  3.7888
  124CHL1  H24B15426  -0.614   1.329  -0.040  0.1103  4.6647 -1.7836
  124CHL1   C2515427  -0.702   1.327   0.152  0.4186 -0.1223  0.3892
  124CHL1   H2515428  -0.630   1.406   0.183  0.1954 -0.0920  0.8369
  124CHL1   C2615429  -0.841   1.359   0.221 -1.0095  0.4191 -0.3025
  124CHL1  H26A15430  -0.842   1.327   0.327 -3.2646 -2.5801 -1.0814
  124CHL1  H26B15431  -0.860   1.468   0.213 -2.4203  0.3385  1.4870
  124CHL1  H26C15432  -0.919   1.299   0.169  0.7353 -0.8928 -1.5266
  124CHL1   C2715433  -0.642   1.190   0.197  0.8395  0.0091  0.5933
  124CHL1  H27A15434  -0.647   1.185   0.308 -0.4795  1.2452  0.6176
  124CHL1  H27B15435  -0.710   1.113   0.157 -0.8840  1.5783  0.3873
  124CHL1  H27C15436  -0.537   1.176   0.161  0.3555 -0.1016 -0.8237
  125CHL1    C315437  -0.670   2.512  -1.224 -0.6906  0.2223  0.4009
  125CHL1    H315438  -0.765   2.474  -1.181 -0.9644 -1.5873 -1.5978
  125CHL1    O315439  -0.685   2.527  -1.363 -0.1359  0.0120  0.1992
  125CHL1   H3'15440  -0.780   2.517  -1.371 -0.3216  0.8749  1.1310
  125CHL1    C415441  -0.623   2.646  -1.171 -0.3699  0.6449  0.0499
  125CHL1   H4A15442  -0.533   2.682  -1.227 -1.5175  0.7797 -1.7772
  125CHL1   H4B15443  -0.696   2.723  -1.204 -0.1813  1.6112  1.7611
  125CHL1    C515444  -0.589   2.636  -1.020 -0.0053 -0.2536 -0.2657
  125CHL1    C615445  -0.654   2.715  -0.931 -0.3339  0.2559 -0.2897
  125CHL1    H615446  -0.733   2.774  -0.978 -0.0396 -0.7712 -2.1707
  125CHL1    C715447  -0.621   2.715  -0.787 -0.8213 -0.4676 -0.1230
  125CHL1   H7A15448  -0.606   2.822  -0.763 -0.7103 -0.2859 -0.9624
  125CHL1   H7B15449  -0.706   2.682  -0.724  0.3201  0.6588  2.1268
  125CHL1    C815450  -0.493   2.640  -0.754  0.7459 -0.3711 -0.2155
  125CHL1    H815451  -0.406   2.708  -0.767  1.3338 -0.4635  2.6316
  125CHL1   C1415452  -0.490   2.600  -0.603 -0.2732  0.3687  0.5110
  125CHL1   H1415453  -0.578   2.533  -0.586 -0.3185  0.4281  0.5126
  125CHL1   C1515454  -0.505   2.712  -0.500  0.6099 -0.9214  0.2000
  125CHL1  H15A15455  -0.453   2.803  -0.534  0.2037 -0.7858 -0.0698
  125CHL1  H15B15456  -0.612   2.742  -0.489  1.1767  0.7722  1.5408
  125CHL1   C1615457  -0.438   2.655  -0.370 -0.1145 -0.4303 -0.3751
  125CHL1  H16A15458  -0.353   2.717  -0.337 -3.4497  4.5601 -0.0223
  125CHL1  H16B15459  -0.505   2.634  -0.283 -1.1664 -1.2513 -1.3435
  125CHL1   C1715460  -0.383   2.516  -0.411  0.2027 -0.6185 -0.2154
  125CHL1   H1715461  -0.468   2.446  -0.395 -0.5455  0.5720  1.3282
  125CHL1   C1315462  -0.361   2.528  -0.558 -0.2027  0.6471  0.3618
  125CHL1   C1815463  -0.234   2.610  -0.598  0.0905 -0.6503 -0.5490
  125CHL1  H18A15464  -0.247   2.713  -0.556  1.2559 -0.3346 -0.9159
  125CHL1  H18B15465  -0.141   2.571  -0.551  0.0972 -0.6680 -0.5763
  125CHL1  H18C15466  -0.209   2.608  -0.706  0.7338 -1.0410 -0.3983
  125CHL1   C1215467  -0.363   2.394  -0.637 -0.8613  0.7929  0.8931
  125CHL1  H12A15468  -0.276   2.326  -0.626 -2.1778 -0.9127  1.0144
  125CHL1  H12B15469  -0.455   2.339  -0.610 -0.1900  0.1306  1.8944
  125CHL1   C1115470  -0.380   2.407  -0.792  0.3235 -0.3929  0.0222
  125CHL1  H11A15471  -0.281   2.441  -0.827 -0.0124 -0.0558 -0.6143
  125CHL1  H11B15472  -0.397   2.307  -0.838 -1.7580 -0.8541  1.6123
  125CHL1    C915473  -0.492   2.506  -0.831 -0.5677 -0.1154  0.2385
  125CHL1    H915474  -0.583   2.444  -0.813  0.5304 -2.3302 -1.2509
  125CHL1   C1015475  -0.484   2.525  -0.983 -0.3951  0.0668 -0.8573
  125CHL1   C1915476  -0.345   2.583  -1.032  0.3055  0.0930  0.4154
  125CHL1  H19A15477  -0.354   2.627  -1.134  1.1486  0.5420  0.5281
  125CHL1  H19B15478  -0.309   2.661  -0.962  3.6469 -1.2051  0.3322
  125CHL1  H19C15479  -0.270   2.501  -1.036  0.3926  0.2036 -1.0426
  125CHL1    C115480  -0.519   2.397  -1.066 -0.2322  0.4711 -0.0546
  125CHL1   H1A15481  -0.438   2.322  -1.054 -0.2974  0.4903  0.5715
  125CHL1   H1B15482  -0.611   2.353  -1.021  1.6168 -0.9615  2.6387
  125CHL1    C215483  -0.550   2.417  -1.211  0.4685  0.0506 -0.3512
  125CHL1   H2A15484  -0.557   2.319  -1.264  2.3645 -0.6520  0.6333
  125CHL1   H2B15485  -0.458   2.457  -1.257  0.4624  1.8450  1.1052
  125CHL1   C2015486  -0.268   2.473  -0.319  0.2193  0.2461 -0.6724
  125CHL1   H2015487  -0.192   2.554  -0.316 -1.0511  1.5724 -2.1494
  125CHL1   C2115488  -0.210   2.343  -0.367 -0.3923 -0.5469 -0.3178
  125CHL1  H21A15489  -0.288   2.267  -0.393 -0.1981 -0.0552 -2.5447
  125CHL1  H21B15490  -0.137   2.299  -0.296 -0.7550  0.5476  0.7566
  125CHL1  H21C15491  -0.157   2.363  -0.462 -0.3997  2.2820  0.1788
  125CHL1   C2215492  -0.308   2.452  -0.170  1.0884 -0.5605 -0.1420
  125CHL1  H22A15493  -0.357   2.542  -0.128  2.8937  1.2297 -1.7148
  125CHL1  H22B15494  -0.392   2.381  -0.153  1.1219 -0.3736  0.8917
  125CHL1   C2315495  -0.200   2.424  -0.064  0.0355  0.3211 -0.4313
  125CHL1  H23A15496  -0.139   2.335  -0.090 -0.9761 -0.6234  0.3763
  125CHL1  H23B15497  -0.124   2.505  -0.068  0.2333  0.1817  0.3346
  125CHL1   C2415498  -0.250   2.417   0.077  1.2864 -0.5349 -0.3518
  125CHL1  H24A15499  -0.291   2.515   0.109  0.1735 -0.8738 -0.7027
  125CHL1  H24B15500  -0.340   2.353   0.073 -0.3887  1.6091  0.9057
  125CHL1   C2515501  -0.150   2.367   0.175 -0.4500  0.0081  1.0031
  125CHL1   H2515502  -0.112   2.268   0.144  1.0696  1.0092 -0.5381
  125CHL1   C2615503  -0.024   2.459   0.199  0.1208 -0.2545  0.1363
  125CHL1  H26A15504  -0.053   2.552   0.251  2.3180  0.3605  0.3566
  125CHL1  H26B15505   0.060   2.414   0.256  0.7509 -0.3135 -0.8089
  125CHL1  H26C15506   0.020   2.484   0.100  1.0657 -0.9098  0.3744
  125CHL1   C2715507  -0.215   2.332   0.308 -0.1759  0.2660  0.0472
  125CHL1  H27A15508  -0.145   2.305   0.389 -0.3007  1.1781  0.4699
  125CHL1  H27B15509  -0.289   2.411   0.333 -0.6043 -0.1223  0.0172
  125CHL1  H27C15510  -0.281   2.245   0.286  0.4522  0.2733 -2.1417
  126CHL1    C315511  -2.030   3.015  -1.325  0.1363 -0.1835 -0.4947
  126CHL1    H315512  -2.078   3.116  -1.318  1.5126  0.4480  0.2586
  126CHL1    O315513  -2.019   2.971  -1.456 -0.5813 -0.2812 -0.9710
  126CHL1   H3'15514  -1.942   2.913  -1.449 -1.1428 -0.9166  0.3234
  126CHL1    C415515  -1.896   3.023  -1.255 -0.3478  0.0588 -0.9750
  126CHL1   H4A15516  -1.847   2.923  -1.254  0.3836  0.4097 -0.7413
  126CHL1   H4B15517  -1.830   3.092  -1.313  1.8573  0.8792  2.2238
  126CHL1    C515518  -1.917   3.072  -1.115 -0.1539 -0.2423 -0.6914
  126CHL1    C615519  -1.867   3.192  -1.077  0.3269 -0.3548  0.2906
  126CHL1    H615520  -1.824   3.255  -1.157 -0.9260 -0.3695 -0.4182
  126CHL1    C715521  -1.879   3.249  -0.939  0.1303  0.4522  0.3629
  126CHL1   H7A15522  -1.780   3.288  -0.909  0.5095 -0.8756  0.8978
  126CHL1   H7B15523  -1.954   3.331  -0.942  0.6757  0.9381 -2.3954
  126CHL1    C815524  -1.933   3.137  -0.842  0.3947  0.3025  0.4942
  126CHL1    H815525  -1.847   3.068  -0.827  0.6132  0.7671  1.4924
  126CHL1   C1415526  -1.969   3.191  -0.712  0.4592  0.0647 -0.4620
  126CHL1   H1415527  -2.053   3.259  -0.736  0.2856 -0.0602 -0.2127
  126CHL1   C1515528  -1.866   3.275  -0.643 -0.3622  0.1975  0.0192
  126CHL1  H15A15529  -1.775   3.212  -0.647 -0.4951 -0.0414  0.5750
  126CHL1  H15B15530  -1.849   3.369  -0.700 -1.5365  1.4970  1.7082
  126CHL1   C1615531  -1.911   3.278  -0.497  0.1076  0.2370  0.1338
  126CHL1  H16A15532  -1.822   3.249  -0.438  1.9429 -0.1832 -2.6158
  126CHL1  H16B15533  -1.941   3.380  -0.465  0.1621  0.7789 -1.4550
  126CHL1   C1715534  -2.037   3.188  -0.484 -0.3591  0.8101  0.0703
  126CHL1   H1715535  -2.121   3.255  -0.513 -1.1678  0.4431  1.4624
  126CHL1   C1315536  -2.022   3.095  -0.602  0.1438 -0.1525 -0.3502
  126CHL1   C1815537  -1.929   2.964  -0.572 -0.0372 -0.4136 -0.8775
  126CHL1  H18A15538  -1.975   2.887  -0.506  1.0375 -0.8352 -0.6056
  126CHL1  H18B15539  -1.887   2.922  -0.666  1.2495 -1.4627  0.1326
  126CHL1  H18C15540  -1.839   2.995  -0.516  0.8028 -2.3385 -1.0806
  126CHL1   C1215541  -2.155   3.044  -0.667 -0.1615 -0.5382  0.0765
  126CHL1  H12A15542  -2.206   2.975  -0.596 -0.5727 -1.3021 -0.9346
  126CHL1  H12B15543  -2.218   3.134  -0.681 -0.6321 -0.7917  0.5171
  126CHL1   C1115544  -2.131   2.978  -0.796  0.5925 -0.5386 -0.0100
  126CHL1  H11A15545  -2.086   2.879  -0.776  0.2976 -0.9695 -1.3825
  126CHL1  H11B15546  -2.232   2.958  -0.837  0.3583  0.1471  0.2235
  126CHL1    C915547  -2.052   3.064  -0.900  0.8277 -0.7267 -0.2203
  126CHL1    H915548  -2.122   3.147  -0.924  0.3879 -0.7560  0.8973
  126CHL1   C1015549  -2.012   2.987  -1.025 -1.1854 -0.1210 -0.1877
  126CHL1   C1915550  -1.928   2.868  -0.986  0.0382 -0.1405 -0.3619
  126CHL1  H19A15551  -1.872   2.829  -1.074  1.1123  0.3188  0.1096
  126CHL1  H19B15552  -1.860   2.887  -0.901 -0.7511  1.7052 -0.1042
  126CHL1  H19C15553  -1.998   2.789  -0.950 -0.6818  0.6531  0.0354
  126CHL1    C115554  -2.140   2.948  -1.102 -0.4378  0.1539  0.1813
  126CHL1   H1A15555  -2.201   2.872  -1.049 -3.6643  2.1475 -0.3675
  126CHL1   H1B15556  -2.203   3.039  -1.100  1.0832  1.2533 -0.0392
  126CHL1    C215557  -2.116   2.913  -1.249  0.1803  0.0129 -0.2263
  126CHL1   H2A15558  -2.213   2.900  -1.302  1.1104  1.4527 -2.4118
  126CHL1   H2B15559  -2.058   2.819  -1.260  1.6190  1.0646 -2.4230
  126CHL1   C2015560  -2.075   3.132  -0.343  0.1175 -0.7564  0.1105
  126CHL1   H2015561  -2.020   3.037  -0.325  1.8188  0.1404 -0.1742
  126CHL1   C2115562  -2.221   3.117  -0.332 -0.1330 -0.3670  0.0991
  126CHL1  H21A15563  -2.245   3.099  -0.225  1.9977  1.8025  1.0424
  126CHL1  H21B15564  -2.261   3.043  -0.405 -1.7310  0.9747 -0.4563
  126CHL1  H21C15565  -2.263   3.215  -0.362  0.3796 -0.3799 -0.7004
  126CHL1   C2215566  -2.028   3.229  -0.227 -0.3995  0.2762 -0.6756
  126CHL1  H22A15567  -2.058   3.177  -0.133 -1.6457  0.0010 -1.2130
  126CHL1  H22B15568  -1.920   3.255  -0.228 -0.5428  1.0729  1.0384
  126CHL1   C2315569  -2.103   3.364  -0.217  0.2911 -0.5976  0.0195
  126CHL1  H23A15570  -2.104   3.404  -0.321 -2.9574  0.6074  0.4163
  126CHL1  H23B15571  -2.203   3.342  -0.173 -0.0239 -0.2586 -0.5168
  126CHL1   C2415572  -2.016   3.464  -0.138  0.1626  0.1011  0.0722
  126CHL1  H24A15573  -1.970   3.408  -0.054  0.1454  2.2142  1.5744
  126CHL1  H24B15574  -1.931   3.502  -0.199  1.8785  0.4872  2.5037
  126CHL1   C2515575  -2.079   3.596  -0.089  0.0920  0.2971  0.0943
  126CHL1   H2515576  -2.137   3.637  -0.175 -2.6177  0.3963  1.8643
  126CHL1   C2615577  -2.179   3.576   0.026  0.1408  0.5424  0.0132
  126CHL1  H26A15578  -2.257   3.508  -0.014  0.3984  1.4581 -2.1755
  126CHL1  H26B15579  -2.133   3.537   0.119 -1.4558  1.9007  1.4552
  126CHL1  H26C15580  -2.208   3.680   0.053 -0.4556  0.3585  0.1028
  126CHL1   C2715581  -1.970   3.698  -0.053  0.7638 -0.4224  0.4267
  126CHL1  H27A15582  -1.915   3.649   0.030 -0.3122 -1.9723  0.2764
  126CHL1  H27B15583  -1.899   3.720  -0.136  2.1143  0.1594  1.6809
  126CHL1  H27C15584  -2.010   3.797  -0.023 -0.6827 -0.8290 -0.1006
  127CHL1    C315585  -1.157   2.745  -1.221  0.8560  0.9913 -0.3853
  127CHL1    H315586  -1.048   2.761  -1.229  1.0050 -0.1673 -0.9317
  127CHL1    O315587  -1.228   2.765  -1.343  0.1929  0.9703 -0.2873
  127CHL1   H3'15588  -1.191   2.692  -1.394 -0.3007 -0.1245  0.8573
  127CHL1    C415589  -1.168   2.601  -1.183  0.3579 -0.5900 -0.3756
  127CHL1   H4A15590  -1.275   2.583  -1.161  0.6678  0.9235  3.2051
  127CHL1   H4B15591  -1.131   2.538  -1.266  1.4059  0.3403 -0.6329
  127CHL1    C515592  -1.095   2.565  -1.053 -0.5450 -0.4857  0.9668
  127CHL1    C615593  -1.005   2.470  -1.043 -0.0955  0.5898 -0.5982
  127CHL1    H615594  -0.990   2.416  -1.138 -1.2001  3.6253 -2.6638
  127CHL1    C715595  -0.938   2.425  -0.915  0.3086 -0.6226  0.1070
  127CHL1   H7A15596  -0.945   2.315  -0.904  0.2292 -0.6653 -0.3340
  127CHL1   H7B15597  -0.831   2.456  -0.913 -1.0445  5.2915 -0.7409
  127CHL1    C815598  -1.012   2.477  -0.790  0.5318 -0.0288 -0.3551
  127CHL1    H815599  -1.100   2.413  -0.770  0.0337  0.9256  0.5955
  127CHL1   C1415600  -0.923   2.464  -0.665  0.3251  0.5004  0.2287
  127CHL1   H1415601  -0.833   2.516  -0.704 -0.1749 -0.4306 -2.3602
  127CHL1   C1515602  -0.876   2.324  -0.627 -0.7049 -0.4245  0.1007
  127CHL1  H15A15603  -0.964   2.256  -0.629 -3.2641  2.6996 -0.4953
  127CHL1  H15B15604  -0.791   2.301  -0.695 -1.7946 -0.4752 -1.2719
  127CHL1   C1615605  -0.827   2.349  -0.481  0.0954  0.2135  0.0710
  127CHL1  H16A15606  -0.865   2.262  -0.423 -1.7082  1.3349  0.6502
  127CHL1  H16B15607  -0.716   2.338  -0.477  0.0792 -1.5325 -2.3593
  127CHL1   C1715608  -0.874   2.491  -0.444  0.2957  0.1662 -0.1290
  127CHL1   H1715609  -0.797   2.565  -0.473  1.4426 -1.5553 -1.6619
  127CHL1   C1315610  -0.981   2.524  -0.545  0.2770 -0.6645 -0.1345
  127CHL1   C1815611  -1.109   2.446  -0.504 -0.0641  0.0371 -0.3986
  127CHL1  H18A15612  -1.087   2.343  -0.469  2.3365  0.0753 -1.5771
  127CHL1  H18B15613  -1.161   2.493  -0.418 -1.1042 -1.7740  0.0032
  127CHL1  H18C15614  -1.185   2.446  -0.585  0.4864 -0.8740 -0.9249
  127CHL1   C1215615  -1.010   2.679  -0.566  0.0867  0.5627  0.0417
  127CHL1  H12A15616  -1.046   2.727  -0.472 -0.8755  1.7754 -0.9255
  127CHL1  H12B15617  -0.914   2.730  -0.590  1.2216 -0.3324  2.3091
  127CHL1   C1115618  -1.101   2.708  -0.683  0.7382  0.0587  0.5116
  127CHL1  H11A15619  -1.203   2.666  -0.668  0.1942  0.7427 -1.0291
  127CHL1  H11B15620  -1.109   2.817  -0.698 -1.0814  0.4665  3.7242
  127CHL1    C915621  -1.053   2.627  -0.812  0.1277  0.4898  0.1156
  127CHL1    H915622  -0.955   2.677  -0.828  0.1875 -0.1511 -1.7876
  127CHL1   C1015623  -1.143   2.646  -0.935 -0.7482 -0.1411  0.3222
  127CHL1   C1915624  -1.291   2.610  -0.901  0.8386  0.4867 -0.2873
  127CHL1  H19A15625  -1.341   2.684  -0.834 -0.1886  0.9959 -1.5781
  127CHL1  H19B15626  -1.356   2.601  -0.990 -0.1975 -1.7237  0.5931
  127CHL1  H19C15627  -1.298   2.516  -0.842  0.1650  0.1304 -0.9258
  127CHL1    C115628  -1.143   2.797  -0.982 -0.3644 -0.6040 -0.2293
  127CHL1   H1A15629  -1.194   2.851  -0.899  1.8544  1.1399  0.1025
  127CHL1   H1B15630  -1.037   2.828  -0.989  0.2401 -2.4124  0.4000
  127CHL1    C215631  -1.209   2.842  -1.111  0.2748  1.2456 -0.0551
  127CHL1   H2A15632  -1.194   2.950  -1.132  0.8994  0.9181 -1.3988
  127CHL1   H2B15633  -1.320   2.833  -1.107  0.1564  2.4299 -0.3546
  127CHL1   C2015634  -0.907   2.520  -0.293  0.1245  0.3401  0.5055
  127CHL1   H2015635  -0.983   2.601  -0.290 -0.9816 -0.5635 -1.0708
  127CHL1   C2115636  -0.776   2.574  -0.238 -0.2039  0.2846 -0.2951
  127CHL1  H21A15637  -0.733   2.642  -0.315 -2.2706  2.5634  0.4346
  127CHL1  H21B15638  -0.700   2.492  -0.237 -1.9930 -1.5499 -2.7266
  127CHL1  H21C15639  -0.782   2.625  -0.139  0.2489  0.5023 -0.3720
  127CHL1   C2215640  -0.961   2.402  -0.214  0.2500  0.5867 -0.2044
  127CHL1  H22A15641  -1.030   2.340  -0.275  0.5807  0.8072 -0.8128
  127CHL1  H22B15642  -0.873   2.334  -0.207 -2.3372 -3.2422 -1.6109
  127CHL1   C2315643  -1.047   2.447  -0.099 -0.5903  0.3377 -0.2954
  127CHL1  H23A15644  -0.987   2.503  -0.024 -0.3597 -3.5028  2.7421
  127CHL1  H23B15645  -1.129   2.515  -0.130 -0.6393  0.3795 -0.0769
  127CHL1   C2415646  -1.098   2.320  -0.024 -0.1024  0.2369 -0.6759
  127CHL1  H24A15647  -1.150   2.269  -0.108  0.4499 -0.9071 -0.3457
  127CHL1  H24B15648  -1.010   2.254  -0.005  0.3883  1.1197  0.2142
  127CHL1   C2515649  -1.205   2.360   0.088 -0.0214  0.0083 -0.2151
  127CHL1   H2515650  -1.270   2.436   0.038 -1.2953 -1.5779 -1.0609
  127CHL1   C2615651  -1.296   2.243   0.112 -0.4107 -0.3342 -0.1797
  127CHL1  H26A15652  -1.242   2.150   0.140 -2.0894 -0.7206  2.0971
  127CHL1  H26B15653  -1.368   2.263   0.194 -1.2556 -0.7997 -0.7889
  127CHL1  H26C15654  -1.361   2.217   0.026 -1.5305 -0.9664  0.8135
  127CHL1   C2715655  -1.133   2.404   0.215 -0.2287  0.2955  0.3507
  127CHL1  H27A15656  -1.213   2.433   0.287 -0.8483  2.1190 -0.9940
  127CHL1  H27B15657  -1.062   2.334   0.264 -0.6932  1.5668  3.0038
  127CHL1  H27C15658  -1.085   2.504   0.205 -0.0478  0.4150  2.0629
  128CHL1    C315659  -1.713  -0.991  -1.997  0.4420  0.9361 -1.0913
  128CHL1    H315660  -1.793  -0.928  -1.953  0.5766 -1.1021  2.3757
  128CHL1    O315661  -1.718  -0.979  -2.140 -0.0074  0.0572 -0.0475
  128CHL1   H3'15662  -1.663  -1.046  -2.181  0.4722  1.5312 -1.9306
  128CHL1    C415663  -1.582  -0.943  -1.939 -0.5080 -0.1278  1.0583
  128CHL1   H4A15664  -1.510  -1.019  -1.976 -1.0490  0.9540 -2.6663
  128CHL1   H4B15665  -1.554  -0.842  -1.975 -0.6229  0.0185  1.3751
  128CHL1    C515666  -1.578  -0.953  -1.791 -0.8010  0.2564 -0.0197
  128CHL1    C615667  -1.578  -0.838  -1.724 -0.3201  0.2874 -0.2843
  128CHL1    H615668  -1.580  -0.751  -1.791  1.4945 -1.4135 -2.7231
  128CHL1    C715669  -1.587  -0.833  -1.575 -0.5335 -0.1313  0.0225
  128CHL1   H7A15670  -1.505  -0.762  -1.553 -0.6058 -0.1747  0.4338
  128CHL1   H7B15671  -1.678  -0.785  -1.533  0.1196 -1.2009  2.8930
  128CHL1    C815672  -1.554  -0.974  -1.509 -0.1648 -0.2344 -0.0989
  128CHL1    H815673  -1.446  -0.994  -1.526 -0.1785  0.5752 -1.2763
  128CHL1   C1415674  -1.579  -0.964  -1.361  0.2256  0.6885 -0.3086
  128CHL1   H1415675  -1.689  -0.953  -1.348  0.3265  1.0542  0.2954
  128CHL1   C1515676  -1.509  -0.856  -1.286  0.7184 -0.4226 -0.0841
  128CHL1  H15A15677  -1.400  -0.871  -1.298  0.6417 -0.9540 -0.1333
  128CHL1  H15B15678  -1.538  -0.752  -1.311  0.5553 -0.6187 -0.7403
  128CHL1   C1615679  -1.535  -0.903  -1.139  0.0286 -0.2764  0.4601
  128CHL1  H16A15680  -1.439  -0.914  -1.085  0.7504  0.5243 -0.6336
  128CHL1  H16B15681  -1.596  -0.823  -1.092 -1.8627 -0.4895 -1.4555
  128CHL1   C1715682  -1.604  -1.043  -1.143 -0.0320 -0.4724  0.5012
  128CHL1   H1715683  -1.715  -1.043  -1.153  0.1394 -0.3236 -1.8227
  128CHL1   C1315684  -1.563  -1.098  -1.286 -0.5431 -0.5754 -0.7639
  128CHL1   C1815685  -1.412  -1.153  -1.279 -0.0481  0.1306 -0.1658
  128CHL1  H18A15686  -1.401  -1.241  -1.212 -2.0157  0.4459  0.6669
  128CHL1  H18B15687  -1.387  -1.181  -1.383  0.4307 -1.9432  0.4714
  128CHL1  H18C15688  -1.350  -1.070  -1.238 -0.2718 -1.0406  2.8399
  128CHL1   C1215689  -1.658  -1.202  -1.355  0.1238  0.2618  0.4046
  128CHL1  H12A15690  -1.655  -1.302  -1.306 -0.4852 -0.4756 -0.9932
  128CHL1  H12B15691  -1.759  -1.159  -1.341  0.3512  1.2871 -0.8402
  128CHL1   C1115692  -1.616  -1.225  -1.501 -0.1259 -0.0711  0.1038
  128CHL1  H11A15693  -1.511  -1.263  -1.506 -0.0523  0.0594  0.6531
  128CHL1  H11B15694  -1.682  -1.300  -1.548 -2.1182  0.0834  2.4895
  128CHL1    C915695  -1.632  -1.087  -1.578  0.1904  0.4686  0.7964
  128CHL1    H915696  -1.742  -1.074  -1.573  0.2197  1.0763 -0.1160
  128CHL1   C1015697  -1.600  -1.094  -1.730 -0.0304  0.5693 -0.3567
  128CHL1   C1915698  -1.479  -1.192  -1.743 -0.1031 -0.4623  0.3382
  128CHL1  H19A15699  -1.497  -1.298  -1.716 -0.0731 -0.6370 -0.3171
  128CHL1  H19B15700  -1.452  -1.197  -1.851 -0.8015  2.0236 -0.0316
  128CHL1  H19C15701  -1.401  -1.145  -1.679  1.2892 -3.1372  0.7323
  128CHL1    C115702  -1.716  -1.169  -1.804  0.2797  0.3561 -0.5579
  128CHL1   H1A15703  -1.729  -1.276  -1.780  0.4152  0.5299  0.3492
  128CHL1   H1B15704  -1.801  -1.120  -1.751  0.3397 -0.9728  0.8382
  128CHL1    C215705  -1.731  -1.138  -1.954 -0.1657 -0.4012  0.5715
  128CHL1   H2A15706  -1.830  -1.171  -1.992 -0.0748 -0.7822  0.6630
  128CHL1   H2B15707  -1.651  -1.199  -2.003 -1.1983 -1.9889  0.7922
  128CHL1   C2015708  -1.558  -1.128  -1.023 -0.0248 -0.3173 -0.2390
  128CHL1   H2015709  -1.450  -1.151  -1.015 -0.8143 -4.0925  2.4324
  128CHL1   C2115710  -1.632  -1.260  -1.025  0.1021 -0.1612  0.2610
  128CHL1  H21A15711  -1.602  -1.308  -1.120  1.4145 -1.1858  1.1577
  128CHL1  H21B15712  -1.741  -1.240  -1.024 -0.1154 -1.2063 -0.8151
  128CHL1  H21C15713  -1.600  -1.325  -0.941  0.6690  0.1202  0.2668
  128CHL1   C2215714  -1.601  -1.060  -0.882 -0.2713 -0.6952 -0.4416
  128CHL1  H22A15715  -1.552  -0.961  -0.871 -1.8069 -0.1184  2.1239
  128CHL1  H22B15716  -1.712  -1.052  -0.880 -0.2666 -0.3955 -1.0909
  128CHL1   C2315717  -1.548  -1.140  -0.757  0.0471  0.4641  0.1124
  128CHL1  H23A15718  -1.629  -1.213  -0.736 -0.8700  1.8284  1.5633
  128CHL1  H23B15719  -1.452  -1.188  -0.787 -0.1523  0.9323 -1.3692
  128CHL1   C2415720  -1.546  -1.053  -0.629 -0.2580 -0.1070  0.6331
  128CHL1  H24A15721  -1.489  -0.958  -0.642 -0.1722 -0.2723 -0.2277
  128CHL1  H24B15722  -1.651  -1.018  -0.619 -0.7956 -0.8457 -1.7447
  128CHL1   C2515723  -1.502  -1.116  -0.494 -0.5367 -0.0420  0.4202
  128CHL1   H2515724  -1.485  -1.034  -0.422  0.1351  1.6465 -1.5686
  128CHL1   C2615725  -1.609  -1.208  -0.442 -0.2709  0.1496  0.3233
  128CHL1  H26A15726  -1.584  -1.231  -0.337  1.4808  2.6187  0.5372
  128CHL1  H26B15727  -1.710  -1.161  -0.434 -1.2364 -1.9992  1.8341
  128CHL1  H26C15728  -1.618  -1.294  -0.512  1.9977 -0.3960  0.6363
  128CHL1   C2715729  -1.374  -1.193  -0.515  0.3137 -0.3114 -0.4649
  128CHL1  H27A15730  -1.391  -1.293  -0.560  0.3868 -0.4894 -0.0967
  128CHL1  H27B15731  -1.299  -1.139  -0.576  1.1754  0.2217  1.0138
  128CHL1  H27C15732  -1.331  -1.209  -0.414  0.8088  1.7268 -0.3107
  129CHL1    C315733   0.440   2.029  -1.973  0.4615  0.6696 -0.1368
  129CHL1    H315734   0.341   1.979  -1.975  0.1272  1.3349 -0.7448
  129CHL1    O315735   0.485   2.057  -2.110  0.0092 -0.3630 -0.1323
  129CHL1   H3'15736   0.569   2.104  -2.103  1.7962 -3.6100  2.8833
  129CHL1    C415737   0.424   2.163  -1.897 -0.0333  0.5333 -0.3511
  129CHL1   H4A15738   0.519   2.218  -1.916  0.7960 -1.1382 -1.1945
  129CHL1   H4B15739   0.338   2.214  -1.944  1.0060  2.0364 -0.7155
  129CHL1    C515740   0.417   2.162  -1.745  0.0039  0.5700 -0.0708
  129CHL1    C615741   0.321   2.228  -1.682  0.3281 -0.4180 -0.1057
  129CHL1    H615742   0.254   2.291  -1.742  0.5330  0.2107  0.3128
  129CHL1    C715743   0.304   2.239  -1.530  0.0903  0.2325 -0.5673
  129CHL1   H7A15744   0.276   2.341  -1.497 -0.2385  0.6132 -1.9796
  129CHL1   H7B15745   0.212   2.182  -1.504  0.6901 -0.3024  0.4562
  129CHL1    C815746   0.425   2.164  -1.456  0.2172  0.0697  0.0696
  129CHL1    H815747   0.513   2.230  -1.469  0.1786 -0.2802 -2.7491
  129CHL1   C1415748   0.391   2.138  -1.311 -0.6256  0.8410  0.2962
  129CHL1   H1415749   0.305   2.068  -1.313 -0.3531  0.3223  2.9408
  129CHL1   C1515750   0.334   2.253  -1.230 -0.3622  0.4176  0.6156
  129CHL1  H15A15751   0.396   2.344  -1.248  1.1046 -0.9831 -2.1398
  129CHL1  H15B15752   0.228   2.271  -1.257  0.5745  2.4659 -2.1347
  129CHL1   C1615753   0.368   2.211  -1.086 -0.6081  0.3468 -0.3772
  129CHL1  H16A15754   0.416   2.289  -1.023 -0.9467 -2.9822  4.5591
  129CHL1  H16B15755   0.275   2.174  -1.038 -0.5997 -0.8420 -1.2385
  129CHL1   C1715756   0.443   2.072  -1.092  1.0940 -0.1627  0.2572
  129CHL1   H1715757   0.361   1.997  -1.095  3.1959 -2.5867  0.3355
  129CHL1   C1315758   0.499   2.066  -1.235 -0.7909  0.2315 -0.5441
  129CHL1   C1815759   0.638   2.146  -1.238  0.0133 -0.1682  0.3876
  129CHL1  H18A15760   0.725   2.103  -1.184  0.6014  2.4419  1.6665
  129CHL1  H18B15761   0.667   2.158  -1.344 -0.0841  1.4113  0.5177
  129CHL1  H18C15762   0.611   2.243  -1.191 -0.1375 -0.4099  0.8045
  129CHL1   C1215763   0.519   1.935  -1.303 -0.5011  0.6578  0.3534
  129CHL1  H12A15764   0.598   1.875  -1.253 -0.9078  0.8561  1.2565
  129CHL1  H12B15765   0.425   1.879  -1.286 -1.4585  2.1615  0.1491
  129CHL1   C1115766   0.558   1.953  -1.449 -0.2265  0.3800 -0.1074
  129CHL1  H11A15767   0.661   1.991  -1.467  0.0125 -0.4084 -0.4654
  129CHL1  H11B15768   0.557   1.852  -1.495 -0.0558  0.0833  0.5144
  129CHL1    C915769   0.459   2.035  -1.534 -0.1150  0.0504  0.4485
  129CHL1    H915770   0.372   1.967  -1.548 -0.8696  0.9488  0.6332
  129CHL1   C1015771   0.506   2.064  -1.674  0.1799 -0.4186  0.0653
  129CHL1   C1915772   0.648   2.125  -1.671  0.2547 -0.0869 -0.0681
  129CHL1  H19A15773   0.658   2.205  -1.594  1.0527 -0.6390  0.4184
  129CHL1  H19B15774   0.726   2.047  -1.656  2.3610  1.7317 -0.9959
  129CHL1  H19C15775   0.672   2.167  -1.771  0.3779 -2.5755 -1.1590
  129CHL1    C115776   0.509   1.931  -1.756  1.0588  0.0796  0.7096
  129CHL1   H1A15777   0.583   1.865  -1.705  2.6546  0.9436 -0.4031
  129CHL1   H1B15778   0.407   1.887  -1.748  0.3110  0.9179 -2.6503
  129CHL1    C215779   0.550   1.946  -1.902 -0.0991  0.8437 -0.2110
  129CHL1   H2A15780   0.557   1.842  -1.941 -2.0107 -0.5603  2.8121
  129CHL1   H2B15781   0.651   1.989  -1.914  1.8415 -2.8738  1.2075
  129CHL1   C2015782   0.529   2.037  -0.962  0.2933 -0.1347 -0.2540
  129CHL1   H2015783   0.612   2.110  -0.962 -0.9165  1.2841 -0.0487
  129CHL1   C2115784   0.585   1.893  -0.974 -0.0736 -0.4002  0.9153
  129CHL1  H21A15785   0.503   1.819  -0.989 -1.2394  1.1837 -1.0311
  129CHL1  H21B15786   0.640   1.864  -0.882  0.7020 -1.0035  0.2825
  129CHL1  H21C15787   0.660   1.885  -1.056  0.3109  0.1947  1.1996
  129CHL1   C2215788   0.454   2.057  -0.833 -0.0833  0.2950 -0.1368
  129CHL1  H22A15789   0.436   2.165  -0.817  0.4909  0.5702 -1.2245
  129CHL1  H22B15790   0.357   2.003  -0.836  0.4623 -0.7701  0.6104
  129CHL1   C2315791   0.517   2.012  -0.699 -0.0393 -0.1877 -0.2434
  129CHL1  H23A15792   0.529   1.902  -0.699 -0.0030 -0.2329 -2.3853
  129CHL1  H23B15793   0.617   2.060  -0.702  0.3579 -1.0584 -1.8411
  129CHL1   C2415794   0.436   2.071  -0.582 -0.1742  0.0657  0.4827
  129CHL1  H24A15795   0.432   2.181  -0.595 -2.8536 -0.1637 -1.5575
  129CHL1  H24B15796   0.332   2.031  -0.581 -1.4773  3.1789  0.1778
  129CHL1   C2515797   0.500   2.033  -0.446  0.1479  0.1738 -0.2569
  129CHL1   H2515798   0.611   2.038  -0.454  0.2348 -2.2186 -1.2266
  129CHL1   C2615799   0.445   2.123  -0.340  0.2398  0.0764  0.3085
  129CHL1  H26A15800   0.488   2.098  -0.241  1.2233 -0.0999 -0.1561
  129CHL1  H26B15801   0.477   2.228  -0.355  1.3590 -0.1229  1.2181
  129CHL1  H26C15802   0.335   2.110  -0.345  0.1237  1.2626 -2.1747
  129CHL1   C2715803   0.459   1.894  -0.405  0.1251  0.3052  0.5987
  129CHL1  H27A15804   0.511   1.825  -0.475  0.0091  0.9871 -0.1787
  129CHL1  H27B15805   0.476   1.848  -0.306  0.6206  0.8457  0.7655
  129CHL1  H27C15806   0.349   1.880  -0.418  0.0661 -0.5028  1.8391
  130CHL1    C315807  -3.210   2.521  -1.904  0.4342 -0.2661  0.0538
  130CHL1    H315808  -3.266   2.616  -1.891  3.3013  1.2689  1.9895
  130CHL1    O315809  -3.176   2.517  -2.039 -0.2655 -0.4370  0.0504
  130CHL1   H3'15810  -3.119   2.441  -2.050 -0.5506 -0.4958 -1.1286
  130CHL1    C415811  -3.093   2.526  -1.805  0.1238  0.2357 -0.8152
  130CHL1   H4A15812  -3.041   2.428  -1.796  0.4615  0.5236  0.6950
  130CHL1   H4B15813  -3.015   2.601  -1.831 -0.5553  1.8521  1.5073
  130CHL1    C515814  -3.156   2.548  -1.667 -0.3413 -0.2145 -0.4053
  130CHL1    C615815  -3.119   2.661  -1.596  0.1466 -0.2083 -0.2641
  130CHL1    H615816  -3.034   2.721  -1.632  3.6573 -5.3766 -1.7510
  130CHL1    C715817  -3.166   2.694  -1.460 -0.2114  0.1535  0.4007
  130CHL1   H7A15818  -3.075   2.723  -1.403  0.0587  0.2688 -0.0834
  130CHL1   H7B15819  -3.244   2.773  -1.463 -1.9424 -1.4776  0.5012
  130CHL1    C815820  -3.231   2.568  -1.399  0.3795 -0.1972 -0.1293
  130CHL1    H815821  -3.148   2.497  -1.381  0.3736 -0.5975 -1.5659
  130CHL1   C1415822  -3.317   2.610  -1.281  0.9968  0.0752 -0.3158
  130CHL1   H1415823  -3.411   2.658  -1.314  1.4241  1.4801  0.4306
  130CHL1   C1515824  -3.251   2.708  -1.187 -0.2926  0.3368 -0.7346
  130CHL1  H15A15825  -3.147   2.675  -1.168 -0.8658 -0.4775  1.2274
  130CHL1  H15B15826  -3.259   2.815  -1.217  0.5217  0.2765 -1.1912
  130CHL1   C1615827  -3.322   2.687  -1.053 -0.0869 -0.5842 -0.3584
  130CHL1  H16A15828  -3.248   2.662  -0.974 -0.7371  0.3069  0.5446
  130CHL1  H16B15829  -3.371   2.779  -1.015  1.2939 -0.1748  0.5281
  130CHL1   C1715830  -3.428   2.575  -1.080 -0.6358  0.1911  0.2448
  130CHL1   H1715831  -3.507   2.644  -1.116  1.6022  1.7156 -2.0483
  130CHL1   C1315832  -3.372   2.491  -1.201 -0.2907 -0.0897  0.5439
  130CHL1   C1815833  -3.246   2.413  -1.148 -0.4622  0.0603 -0.4023
  130CHL1  H18A15834  -3.195   2.378  -1.241  0.6933  1.1797 -0.2135
  130CHL1  H18B15835  -3.181   2.472  -1.080 -1.7437  0.4428  0.5271
  130CHL1  H18C15836  -3.281   2.320  -1.098  0.1756  1.4848  2.9060
  130CHL1   C1215837  -3.470   2.404  -1.283  0.1252  0.3560  0.3051
  130CHL1  H12A15838  -3.484   2.307  -1.231 -2.1534  0.9493  0.9058
  130CHL1  H12B15839  -3.568   2.448  -1.310  0.2906  0.8874  0.5563
  130CHL1   C1115840  -3.403   2.376  -1.421  0.5287  0.5368 -0.2226
  130CHL1  H11A15841  -3.322   2.306  -1.391  0.9525  1.5718  1.1551
  130CHL1  H11B15842  -3.483   2.332  -1.483  1.3316  0.4057 -1.1863
  130CHL1    C915843  -3.332   2.493  -1.494 -0.3644 -0.4561  0.0542
  130CHL1    H915844  -3.405   2.571  -1.524 -0.5933 -0.3668  0.8139
  130CHL1   C1015845  -3.263   2.445  -1.622  0.2799 -1.0033 -0.2411
  130CHL1   C1915846  -3.185   2.313  -1.602  0.1320  0.1215 -0.1919
  130CHL1  H19A15847  -3.148   2.266  -1.695 -1.6793 -1.3386 -0.2383
  130CHL1  H19B15848  -3.114   2.332  -1.519 -1.2536  0.4066  0.9722
  130CHL1  H19C15849  -3.252   2.232  -1.565 -0.4413  1.3151  1.5322
  130CHL1    C115850  -3.370   2.432  -1.732 -0.1038  0.2331  0.2211
  130CHL1   H1A15851  -3.442   2.350  -1.710 -3.0421  2.6377  0.2600
  130CHL1   H1B15852  -3.424   2.529  -1.745 -1.5269 -0.3641  1.3806
  130CHL1    C215853  -3.300   2.405  -1.874 -0.2075 -0.1633 -0.6008
  130CHL1   H2A15854  -3.376   2.395  -1.955 -0.4175 -0.9563 -0.3069
  130CHL1   H2B15855  -3.239   2.313  -1.865 -0.8575 -0.8633 -2.7406
  130CHL1   C2015856  -3.474   2.502  -0.948  0.0367  0.1646 -0.2482
  130CHL1   H2015857  -3.397   2.427  -0.921 -1.7531 -1.6477  0.0565
  130CHL1   C2115858  -3.611   2.447  -0.986 -0.0873 -0.2872  0.4225
  130CHL1  H21A15859  -3.660   2.398  -0.899  0.6786 -2.3286 -0.2287
  130CHL1  H21B15860  -3.602   2.372  -1.067  0.9755  1.6614 -1.3577
  130CHL1  H21C15861  -3.665   2.539  -1.018 -0.5803 -0.8956 -0.5414
  130CHL1   C2215862  -3.490   2.602  -0.827 -0.0387 -0.0959  0.5034
  130CHL1  H22A15863  -3.392   2.651  -0.812  0.1657 -0.3803  0.1273
  130CHL1  H22B15864  -3.569   2.678  -0.847 -0.8598 -0.9538  0.4100
  130CHL1   C2315865  -3.526   2.540  -0.688  0.7874  0.1224  0.5818
  130CHL1  H23A15866  -3.629   2.500  -0.701  1.1323 -0.3443 -0.8355
  130CHL1  H23B15867  -3.464   2.448  -0.676 -0.3037 -0.5550  1.2837
  130CHL1   C2415868  -3.493   2.632  -0.568  0.9700  0.6227  0.3123
  130CHL1  H24A15869  -3.479   2.570  -0.477 -0.3913 -0.5593 -0.2415
  130CHL1  H24B15870  -3.405   2.696  -0.592 -0.3239  2.4555  0.2379
  130CHL1   C2515871  -3.614   2.725  -0.548  0.2727  0.1925  0.5324
  130CHL1   H2515872  -3.658   2.763  -0.643 -1.3871  3.1036  2.3237
  130CHL1   C2615873  -3.733   2.653  -0.488  0.3233  0.1544  0.1457
  130CHL1  H26A15874  -3.695   2.614  -0.391  1.5143  2.4186  0.6567
  130CHL1  H26B15875  -3.819   2.721  -0.468  0.7090  0.4845  0.7373
  130CHL1  H26C15876  -3.763   2.562  -0.544  0.4222 -0.9017  1.7285
  130CHL1   C2715877  -3.577   2.849  -0.468 -0.5640  0.1374 -0.2938
  130CHL1  H27A15878  -3.546   2.935  -0.531 -3.6298  0.3990 -1.6201
  130CHL1  H27B15879  -3.668   2.896  -0.425  0.2429  0.1093  1.5055
  130CHL1  H27C15880  -3.506   2.822  -0.387  0.4346  2.4416 -0.3118
  131CHL1    C315881  -1.369   2.058  -1.474 -0.2246  0.5414  0.2431
  131CHL1    H315882  -1.383   1.949  -1.488  3.8256  0.0334 -1.1992
  131CHL1    O315883  -1.366   2.123  -1.602 -0.2061 -0.5995 -0.4488
  131CHL1   H3'15884  -1.327   2.208  -1.578  0.9888 -1.8064  2.2078
  131CHL1    C415885  -1.478   2.129  -1.389  0.9297 -0.1279  0.2061
  131CHL1   H4A15886  -1.459   2.238  -1.395 -1.5947  0.3450 -0.2640
  131CHL1   H4B15887  -1.579   2.113  -1.432  1.3031 -1.9327 -0.0971
  131CHL1    C515888  -1.474   2.084  -1.242 -0.3360 -0.0834  0.5500
  131CHL1    C615889  -1.576   2.017  -1.190 -0.3834  0.3003 -0.0080
  131CHL1    H615890  -1.666   2.007  -1.253 -0.0296  2.0511 -0.8369
  131CHL1    C715891  -1.571   1.957  -1.051 -0.6186 -0.3309 -0.2782
  131CHL1   H7A15892  -1.669   1.972  -1.001 -0.5507  1.1315 -0.5343
  131CHL1   H7B15893  -1.541   1.851  -1.048  0.8869  0.0780 -0.1371
  131CHL1    C815894  -1.468   2.026  -0.959  0.5214 -0.1323  0.7090
  131CHL1    H815895  -1.506   2.130  -0.948 -0.1829 -0.4418  1.2769
  131CHL1   C1415896  -1.453   1.973  -0.815  0.2644 -0.0940 -0.1347
  131CHL1   H1415897  -1.421   1.868  -0.835 -1.3147 -0.7791  0.7861
  131CHL1   C1515898  -1.583   1.956  -0.741  0.6925 -1.0481 -0.0783
  131CHL1  H15A15899  -1.632   2.056  -0.739  2.2203 -0.2633 -0.1418
  131CHL1  H15B15900  -1.653   1.880  -0.781 -1.4119  1.5740 -1.7303
  131CHL1   C1615901  -1.525   1.926  -0.596  0.6966 -0.3536  0.5062
  131CHL1  H16A15902  -1.588   1.983  -0.524 -0.6259 -2.7974  1.3810
  131CHL1  H16B15903  -1.530   1.818  -0.573  1.2405 -1.3509 -3.2828
  131CHL1   C1715904  -1.375   1.972  -0.591  0.7570 -0.0181 -0.3053
  131CHL1   H1715905  -1.322   1.875  -0.591 -0.8330 -0.9369 -1.4174
  131CHL1   C1315906  -1.354   2.048  -0.722 -0.2000 -0.0934 -0.1198
  131CHL1   C1815907  -1.399   2.197  -0.703  0.1555  0.1155 -0.7337
  131CHL1  H18A15908  -1.418   2.240  -0.803 -4.7140 -0.8019 -0.4733
  131CHL1  H18B15909  -1.494   2.196  -0.644  0.7573  1.1776  0.2965
  131CHL1  H18C15910  -1.322   2.260  -0.654  0.9036 -1.4233  0.1647
  131CHL1   C1215911  -1.215   2.039  -0.797  0.0757  0.1213 -0.1578
  131CHL1  H12A15912  -1.131   2.078  -0.735 -0.3368  0.0675  0.4502
  131CHL1  H12B15913  -1.193   1.931  -0.806 -0.0676  0.2368 -2.6921
  131CHL1   C1115914  -1.222   2.095  -0.939  0.3014  0.0980  0.0778
  131CHL1  H11A15915  -1.225   2.206  -0.936 -1.3888  0.0779  2.0083
  131CHL1  H11B15916  -1.124   2.074  -0.987 -0.6206  0.7529 -2.2227
  131CHL1    C915917  -1.338   2.036  -1.029  0.0382  0.4945 -0.2421
  131CHL1    H915918  -1.307   1.931  -1.052 -1.7772 -1.0808  3.5781
  131CHL1   C1015919  -1.339   2.108  -1.170 -0.3618  0.0243 -0.2135
  131CHL1   C1915920  -1.299   2.258  -1.167 -0.3245  0.3818  0.0779
  131CHL1  H19A15921  -1.326   2.312  -1.260 -1.3094 -2.1945 -1.2305
  131CHL1  H19B15922  -1.352   2.303  -1.080 -0.4003 -2.2344  1.4997
  131CHL1  H19C15923  -1.189   2.270  -1.158  0.0153 -2.0215 -0.1025
  131CHL1    C115924  -1.238   2.039  -1.266  0.3730 -0.1118  0.6965
  131CHL1   H1A15925  -1.135   2.058  -1.229  1.3504 -1.1208 -1.3404
  131CHL1   H1B15926  -1.258   1.929  -1.268 -0.7085  0.0514 -1.8381
  131CHL1    C215927  -1.238   2.083  -1.417  0.0420  0.2976 -0.1821
  131CHL1   H2A15928  -1.151   2.034  -1.467 -0.2250  0.0437 -0.4018
  131CHL1   H2B15929  -1.221   2.193  -1.418 -1.7665  0.6768  2.1243
  131CHL1   C2015930  -1.341   2.040  -0.463  1.0237  0.3123 -0.4176
  131CHL1   H2015931  -1.402   2.131  -0.446  2.1946  1.0866 -0.2481
  131CHL1   C2115932  -1.196   2.087  -0.454 -0.7113  0.4107 -0.5080
  131CHL1  H21A15933  -1.167   2.152  -0.539  1.4934  0.5882  0.3298
  131CHL1  H21B15934  -1.128   2.000  -0.453 -0.4413  0.6181 -0.6184
  131CHL1  H21C15935  -1.182   2.152  -0.364 -3.1446  2.4940 -1.4838
  131CHL1   C2215936  -1.370   1.945  -0.340  0.1761  0.1064  0.1033
  131CHL1  H22A15937  -1.475   1.911  -0.347  0.6283 -1.0664 -1.9118
  131CHL1  H22B15938  -1.308   1.853  -0.341  0.4329  0.2318  2.0359
  131CHL1   C2315939  -1.340   2.008  -0.201  0.2945  0.4630 -0.7358
  131CHL1  H23A15940  -1.232   2.012  -0.177  0.1706  0.2488 -0.1200
  131CHL1  H23B15941  -1.369   2.116  -0.205 -0.9009  0.2463  0.9314
  131CHL1   C2415942  -1.413   1.949  -0.075  0.2962 -0.6490 -0.3749
  131CHL1  H24A15943  -1.367   1.989   0.019  0.5190 -2.2521  0.2198
  131CHL1  H24B15944  -1.522   1.970  -0.078  0.1898 -0.7592  1.5390
  131CHL1   C2515945  -1.415   1.800  -0.076  0.0546 -0.1802 -0.7196
  131CHL1   H2515946  -1.463   1.780  -0.174 -0.2554  0.9871 -0.8246
  131CHL1   C2615947  -1.273   1.748  -0.064  0.3552 -0.6964  0.2644
  131CHL1  H26A15948  -1.200   1.783  -0.140  1.4156  0.0968  1.5937
  131CHL1  H26B15949  -1.234   1.786   0.033 -1.4965  0.3358  0.6446
  131CHL1  H26C15950  -1.269   1.637  -0.053 -0.8846 -0.7636  0.1309
  131CHL1   C2715951  -1.506   1.736   0.037  0.5694  0.0637  0.2806
  131CHL1  H27A15952  -1.604   1.788   0.029 -0.7779 -1.7888  3.0701
  131CHL1  H27B15953  -1.514   1.628   0.013 -1.4548  0.2944 -0.2985
  131CHL1  H27C15954  -1.466   1.761   0.137 -0.3643 -0.7355  0.8664
  132CHL1    C315955  -0.856  -2.364  -1.622 -0.7116  0.4894  0.7059
  132CHL1    H315956  -0.964  -2.389  -1.623 -0.6516  0.1570  1.7853
  132CHL1    O315957  -0.816  -2.326  -1.753 -0.0110 -0.6242 -0.5046
  132CHL1   H3'15958  -0.722  -2.312  -1.744  0.0501 -1.0926 -0.3749
  132CHL1    C415959  -0.816  -2.259  -1.523 -0.2871 -0.2175 -1.1363
  132CHL1   H4A15960  -0.709  -2.236  -1.545  0.2092 -0.6531  0.6555
  132CHL1   H4B15961  -0.883  -2.171  -1.530 -1.6171 -0.9302  1.5821
  132CHL1    C515962  -0.827  -2.306  -1.379 -1.0434 -1.1136  0.8702
  132CHL1    C615963  -0.888  -2.235  -1.283  0.3935  0.5256  0.4651
  132CHL1    H615964  -0.932  -2.137  -1.304  0.6952  0.2007 -1.8773
  132CHL1    C715965  -0.914  -2.290  -1.146  0.0137  0.4951 -0.3564
  132CHL1   H7A15966  -0.919  -2.207  -1.072  1.2073  0.8446 -0.6431
  132CHL1   H7B15967  -1.016  -2.334  -1.148  0.4204 -0.4472 -0.4978
  132CHL1    C815968  -0.814  -2.393  -1.095 -0.3239 -0.6192 -0.1474
  132CHL1    H815969  -0.711  -2.351  -1.089 -1.1292  1.4257  0.1358
  132CHL1   C1415970  -0.869  -2.462  -0.966 -0.4736 -0.1567  0.2903
  132CHL1   H1415971  -0.965  -2.503  -1.003  0.5698 -1.6699 -0.9203
  132CHL1   C1515972  -0.906  -2.381  -0.839 -0.6136  0.0653  0.4894
  132CHL1  H15A15973  -0.816  -2.321  -0.813 -1.3625  1.5275 -0.1819
  132CHL1  H15B15974  -0.999  -2.321  -0.848 -2.2485 -2.1478  1.7818
  132CHL1   C1615975  -0.930  -2.494  -0.742  0.2950  0.8141  0.3992
  132CHL1  H16A15976  -0.861  -2.483  -0.655 -0.1581 -1.2359  1.0728
  132CHL1  H16B15977  -1.037  -2.493  -0.712 -0.7746  0.8125 -3.0155
  132CHL1   C1715978  -0.895  -2.635  -0.810 -0.5140 -0.3308 -0.1364
  132CHL1   H1715979  -0.986  -2.669  -0.864  0.3721 -0.4351 -1.6437
  132CHL1   C1315980  -0.805  -2.600  -0.928 -0.3349 -0.1780  0.0920
  132CHL1   C1815981  -0.658  -2.580  -0.887 -0.4168  0.1566 -0.0519
  132CHL1  H18A15982  -0.600  -2.672  -0.864 -0.1946 -0.0284 -1.2958
  132CHL1  H18B15983  -0.604  -2.536  -0.973 -1.1629  0.9345 -0.1342
  132CHL1  H18C15984  -0.636  -2.508  -0.806 -1.3000  1.3987 -0.8753
  132CHL1   C1215985  -0.820  -2.688  -1.046  0.3600  0.4676 -0.1015
  132CHL1  H12A15986  -0.778  -2.786  -1.015 -0.9710 -0.0053  0.2461
  132CHL1  H12B15987  -0.924  -2.719  -1.067  0.0487 -1.4917  3.5812
  132CHL1   C1115988  -0.756  -2.638  -1.174 -0.2161 -0.2158 -0.6419
  132CHL1  H11A15989  -0.648  -2.624  -1.154 -0.3894  1.3407 -0.7025
  132CHL1  H11B15990  -0.773  -2.720  -1.247 -0.6184 -1.6767  1.0164
  132CHL1    C915991  -0.813  -2.497  -1.209  0.0611  0.3754 -0.0080
  132CHL1    H915992  -0.921  -2.517  -1.229  0.8985 -2.0604 -2.6985
  132CHL1   C1015993  -0.766  -2.444  -1.346  0.0319 -0.2817 -0.0468
  132CHL1   C1915994  -0.617  -2.416  -1.340 -0.4220 -0.3094 -0.4554
  132CHL1  H19A15995  -0.595  -2.336  -1.266 -2.8976  0.1809 -0.1508
  132CHL1  H19B15996  -0.558  -2.508  -1.320  0.6302  0.4692  0.1019
  132CHL1  H19C15997  -0.577  -2.382  -1.438  2.0400  0.4929  0.7643
  132CHL1    C115998  -0.795  -2.538  -1.460  0.4126 -0.1678 -0.2196
  132CHL1   H1A15999  -0.765  -2.643  -1.439  0.4779  0.0082  0.6148
  132CHL1   H1B16000  -0.903  -2.554  -1.441  0.3414  0.7859  0.1937
  132CHL1    C216001  -0.779  -2.492  -1.602  0.1831  0.9859 -0.3481
  132CHL1   H2A16002  -0.838  -2.557  -1.670 -0.8483 -0.5180  1.8447
  132CHL1   H2B16003  -0.672  -2.483  -1.628  0.0334  0.7295 -1.0781
  132CHL1   C2016004  -0.853  -2.734  -0.697  0.2655 -0.5299  0.1392
  132CHL1   H2016005  -0.752  -2.694  -0.673  0.8182 -0.4893 -2.0202
  132CHL1   C2116006  -0.842  -2.873  -0.746 -0.6873  0.1885 -0.2862
  132CHL1  H21A16007  -0.792  -2.877  -0.845 -2.1684 -0.1223 -1.0456
  132CHL1  H21B16008  -0.938  -2.928  -0.748 -1.0891  0.8326 -3.0542
  132CHL1  H21C16009  -0.778  -2.933  -0.678 -1.8918  0.0484  0.7610
  132CHL1   C2216010  -0.946  -2.727  -0.569 -0.4039  0.6564 -0.0900
  132CHL1  H22A16011  -0.972  -2.629  -0.523 -0.6602 -0.2934  1.9037
  132CHL1  H22B16012  -1.035  -2.780  -0.609  0.2594 -0.8227  0.3097
  132CHL1   C2316013  -0.896  -2.809  -0.449  0.5469  0.4862 -0.9653
  132CHL1  H23A16014  -0.876  -2.914  -0.479  1.8428  0.8182 -1.3259
  132CHL1  H23B16015  -0.795  -2.767  -0.425  0.3999  1.1348 -1.4351
  132CHL1   C2416016  -1.003  -2.810  -0.334 -0.5614 -0.3071 -0.8165
  132CHL1  H24A16017  -1.034  -2.709  -0.301  0.7962 -0.1841  0.1530
  132CHL1  H24B16018  -1.095  -2.859  -0.371 -1.0645  1.5834 -2.2607
  132CHL1   C2516019  -0.971  -2.889  -0.200  0.6162  0.4288 -0.3395
  132CHL1   H2516020  -0.980  -2.998  -0.220 -0.3861  0.0586  1.7802
  132CHL1   C2616021  -0.820  -2.871  -0.160 -0.2717 -0.0608  0.0281
  132CHL1  H26A16022  -0.797  -2.933  -0.071 -1.3198 -1.1966 -0.4749
  132CHL1  H26B16023  -0.754  -2.902  -0.244 -0.0620 -3.0545  1.1609
  132CHL1  H26C16024  -0.808  -2.765  -0.128 -1.7759  0.0605  0.2313
  132CHL1   C2716025  -1.075  -2.850  -0.099 -0.8000  0.4012 -0.7355
  132CHL1  H27A16026  -1.067  -2.912  -0.007  0.2654  1.9433  0.2877
  132CHL1  H27B16027  -1.052  -2.746  -0.065 -0.6799 -0.2199  1.1865
  132CHL1  H27C16028  -1.179  -2.848  -0.138 -0.6624 -1.4788 -1.2605
  133CHL1    C316029   3.138  -0.505  -1.788  0.7603  0.0390 -0.3666
  133CHL1    H316030   3.090  -0.405  -1.783  0.9782  0.2432 -1.8051
  133CHL1    O316031   3.159  -0.530  -1.928  0.0109  0.2367  0.2129
  133CHL1   H3'16032   3.167  -0.626  -1.933  0.8550  0.1231  2.4633
  133CHL1    C416033   3.271  -0.489  -1.717 -0.2531 -0.1060 -0.4638
  133CHL1   H4A16034   3.330  -0.583  -1.729  0.3924  0.3318 -0.7475
  133CHL1   H4B16035   3.330  -0.405  -1.760  0.0480 -1.0668 -2.0142
  133CHL1    C516036   3.252  -0.464  -1.570  0.2492 -1.0140 -0.0535
  133CHL1    C616037   3.313  -0.358  -1.511 -0.2807 -0.3110 -0.4665
  133CHL1    H616038   3.379  -0.296  -1.572 -1.3895  1.4620  0.0658
  133CHL1    C716039   3.310  -0.336  -1.360 -0.8900  0.3674  0.0597
  133CHL1   H7A16040   3.415  -0.326  -1.325  0.0489  0.5843 -2.6118
  133CHL1   H7B16041   3.263  -0.235  -1.362  1.6216  1.7005 -3.9799
  133CHL1    C816042   3.244  -0.455  -1.274 -0.4575  0.0838  0.2556
  133CHL1    H816043   3.319  -0.538  -1.280 -0.4736  0.1149 -0.5449
  133CHL1   C1416044   3.218  -0.400  -1.133 -0.3800 -0.2858 -0.5432
  133CHL1   H1416045   3.152  -0.314  -1.157 -0.9067 -0.9188 -1.4187
  133CHL1   C1516046   3.332  -0.333  -1.050 -0.1988 -0.1034  0.2238
  133CHL1  H15A16047   3.431  -0.380  -1.070  0.8548  1.0947  2.2714
  133CHL1  H15B16048   3.329  -0.230  -1.091 -1.3546 -0.0605  0.3814
  133CHL1   C1616049   3.275  -0.348  -0.908  0.0811  0.0944 -0.1623
  133CHL1  H16A16050   3.347  -0.419  -0.863 -1.3410 -1.2342  0.1037
  133CHL1  H16B16051   3.275  -0.255  -0.847 -0.2901  0.0126 -0.0358
  133CHL1   C1716052   3.138  -0.414  -0.915 -0.4671  0.1590 -0.1029
  133CHL1   H1716053   3.059  -0.337  -0.925 -1.9148 -1.1044  1.1304
  133CHL1   C1316054   3.133  -0.495  -1.049 -0.2458 -0.2830 -0.0385
  133CHL1   C1816055   3.206  -0.639  -1.041 -0.5078  0.6938 -0.0670
  133CHL1  H18A16056   3.301  -0.625  -0.985 -0.5696 -0.5594  0.3815
  133CHL1  H18B16057   3.146  -0.712  -0.983 -0.8645  1.0357  0.0005
  133CHL1  H18C16058   3.232  -0.675  -1.143  1.3795 -2.3749  1.3661
  133CHL1   C1216059   2.996  -0.506  -1.126  0.1216 -1.0801 -0.4499
  133CHL1  H12A16060   2.924  -0.568  -1.067  0.7248  0.4460  2.0600
  133CHL1  H12B16061   2.948  -0.405  -1.125 -0.4681 -1.3144  2.2621
  133CHL1   C1116062   3.014  -0.564  -1.265 -0.9202 -0.6337  0.3511
  133CHL1  H11A16063   3.040  -0.671  -1.248 -2.5129 -0.8909  1.4286
  133CHL1  H11B16064   2.922  -0.568  -1.327 -0.4014 -0.1956 -0.4554
  133CHL1    C916065   3.119  -0.491  -1.351 -0.2190  0.5615 -0.5875
  133CHL1    H916066   3.075  -0.392  -1.376 -0.7115  0.6577  0.5975
  133CHL1   C1016067   3.151  -0.553  -1.493  0.9422  0.0410 -0.2597
  133CHL1   C1916068   3.212  -0.694  -1.472  1.5753 -0.2419 -0.5545
  133CHL1  H19A16069   3.219  -0.741  -1.572  0.9977  1.1614 -1.2871
  133CHL1  H19B16070   3.297  -0.699  -1.401  0.5780  2.2626  0.9563
  133CHL1  H19C16071   3.125  -0.749  -1.430  0.6319  1.9912  0.5647
  133CHL1    C116072   3.022  -0.573  -1.577  0.1420 -0.0157 -0.1420
  133CHL1   H1A16073   2.945  -0.640  -1.533 -0.5800  1.5974  1.2093
  133CHL1   H1B16074   2.953  -0.485  -1.574 -0.6973 -0.4986 -2.8421
  133CHL1    C216075   3.049  -0.612  -1.728 -0.4705  0.2187 -1.1101
  133CHL1   H2A16076   2.956  -0.600  -1.788  0.1231  2.2125 -1.7173
  133CHL1   H2B16077   3.088  -0.715  -1.739 -1.3846 -0.2042 -0.4549
  133CHL1   C2016078   3.108  -0.493  -0.787 -0.0055  0.4043  0.6205
  133CHL1   H2016079   3.179  -0.579  -0.782  3.0088  2.4007 -2.9836
  133CHL1   C2116080   2.962  -0.552  -0.790 -0.5703 -0.0616 -0.6184
  133CHL1  H21A16081   2.919  -0.565  -0.689 -0.9356 -0.1030 -0.7784
  133CHL1  H21B16082   2.964  -0.650  -0.843  0.4778  0.2113 -1.1201
  133CHL1  H21C16083   2.899  -0.469  -0.828  2.2585  2.9218  0.6844
  133CHL1   C2216084   3.127  -0.410  -0.656  0.3250  0.3513 -0.4741
  133CHL1  H22A16085   3.085  -0.464  -0.568  1.6355 -0.3667 -0.2574
  133CHL1  H22B16086   3.235  -0.415  -0.630 -0.0714 -0.5623  1.1097
  133CHL1   C2316087   3.063  -0.268  -0.646  0.2455 -0.5635  0.6307
  133CHL1  H23A16088   3.112  -0.195  -0.713 -1.7226  0.8394  0.6653
  133CHL1  H23B16089   2.959  -0.287  -0.677  0.2026 -0.3454  0.6426
  133CHL1   C2416090   3.060  -0.222  -0.496  0.1093  0.3277 -0.4883
  133CHL1  H24A16091   3.004  -0.126  -0.496  0.3728  0.4831 -0.9241
  133CHL1  H24B16092   3.008  -0.303  -0.441  3.2262 -0.5069  1.4397
  133CHL1   C2516093   3.204  -0.210  -0.446  0.9962 -0.1294 -1.0593
  133CHL1   H2516094   3.264  -0.301  -0.464 -0.8969 -1.4817 -0.7510
  133CHL1   C2616095   3.287  -0.090  -0.511  0.8241  0.2962 -0.6620
  133CHL1  H26A16096   3.229   0.005  -0.509 -2.0573 -1.3634  0.0704
  133CHL1  H26B16097   3.382  -0.078  -0.455 -0.5363 -0.6274  1.9943
  133CHL1  H26C16098   3.316  -0.121  -0.614  2.5346 -0.1665 -0.0652
  133CHL1   C2716099   3.192  -0.187  -0.293 -0.0948 -0.3632  0.3679
  133CHL1  H27A16100   3.289  -0.180  -0.239 -0.0876 -0.8774  0.4210
  133CHL1  H27B16101   3.136  -0.096  -0.261 -2.9763 -1.9166  0.0764
  133CHL1  H27C16102   3.142  -0.273  -0.244  0.3208  0.6282  2.6771
  134CHL1    C316103   1.304   0.870  -2.220  1.1937  0.1746 -0.0685
  134CHL1    H316104   1.205   0.829  -2.192  1.0160 -0.2981 -1.3265
  134CHL1    O316105   1.322   0.873  -2.368  1.0452 -0.4037 -0.3628
  134CHL1   H3'16106   1.313   0.779  -2.386  2.3146 -0.7513  0.6515
  134CHL1    C416107   1.321   1.003  -2.166 -0.1804 -0.4705  0.2374
  134CHL1   H4A16108   1.416   1.044  -2.205  0.0020 -0.8803  0.2474
  134CHL1   H4B16109   1.245   1.067  -2.218  1.6282  2.1909  0.6684
  134CHL1    C516110   1.323   1.001  -2.013 -0.0540 -0.1952 -0.4698
  134CHL1    C616111   1.233   1.075  -1.946  0.1359 -0.2945 -0.5872
  134CHL1    H616112   1.171   1.142  -2.007 -2.0593 -2.0881 -0.5052
  134CHL1    C716113   1.242   1.081  -1.790  0.4123  0.1172  0.5186
  134CHL1   H7A16114   1.250   1.187  -1.758  0.8444  1.1566 -2.7123
  134CHL1   H7B16115   1.158   1.040  -1.730  0.2397  2.1542  1.7642
  134CHL1    C816116   1.370   1.028  -1.724 -0.2789 -0.1223  0.1274
  134CHL1    H816117   1.451   1.101  -1.743 -0.0307 -0.2016  0.8318
  134CHL1   C1416118   1.339   1.007  -1.579  0.8788  0.0749 -0.3175
  134CHL1   H1416119   1.269   0.922  -1.565 -0.2181  0.5159 -2.6397
  134CHL1   C1516120   1.273   1.124  -1.506 -0.0838 -0.0959 -0.3397
  134CHL1  H15A16121   1.304   1.227  -1.535  0.2028 -0.3441 -0.9309
  134CHL1  H15B16122   1.162   1.117  -1.506 -0.1931  1.0965 -2.1382
  134CHL1   C1616123   1.309   1.095  -1.358 -0.8458  0.2820 -0.2559
  134CHL1  H16A16124   1.352   1.179  -1.298 -0.0452 -0.9932  1.0055
  134CHL1  H16B16125   1.224   1.082  -1.289  0.4070 -0.3549  1.2291
  134CHL1   C1716126   1.399   0.970  -1.350 -0.5922  0.2046 -0.4832
  134CHL1   H1716127   1.324   0.889  -1.342 -1.4347  0.8823 -1.3163
  134CHL1   C1316128   1.461   0.960  -1.494  1.0152  0.1642 -0.8987
  134CHL1   C1816129   1.575   1.059  -1.493  0.2578 -0.4153  0.8284
  134CHL1  H18A16130   1.609   1.077  -1.597  1.5394 -1.1351  1.1011
  134CHL1  H18B16131   1.552   1.157  -1.446 -0.1031 -0.7592  1.3868
  134CHL1  H18C16132   1.658   1.011  -1.436  1.1159 -1.2939 -1.0781
  134CHL1   C1216133   1.516   0.822  -1.548  0.1734  0.7099 -0.1135
  134CHL1  H12A16134   1.612   0.795  -1.499 -0.6776  1.2766  2.0169
  134CHL1  H12B16135   1.439   0.748  -1.518 -0.2915  1.2074 -0.0700
  134CHL1   C1116136   1.529   0.830  -1.702  0.0421 -0.5348 -0.0283
  134CHL1  H11A16137   1.622   0.887  -1.726 -0.5437 -0.2155 -1.7222
  134CHL1  H11B16138   1.533   0.728  -1.745 -2.6569 -0.0807 -1.5749
  134CHL1    C916139   1.410   0.893  -1.782  0.1341 -0.0896  0.2855
  134CHL1    H916140   1.324   0.824  -1.768 -0.3811 -0.1312 -2.5926
  134CHL1   C1016141   1.421   0.909  -1.936 -0.3691  0.5072  0.4336
  134CHL1   C1916142   1.552   0.988  -1.959 -0.8474  0.1642 -1.1000
  134CHL1  H19A16143   1.566   1.017  -2.066 -4.0340  2.6480 -0.9971
  134CHL1  H19B16144   1.556   1.079  -1.896  1.8301  0.2652 -1.3142
  134CHL1  H19C16145   1.637   0.927  -1.922 -1.7639  0.3014  1.4450
  134CHL1    C116146   1.416   0.772  -2.006  0.7999 -0.4400 -0.4276
  134CHL1   H1A16147   1.515   0.730  -1.977  0.1399  0.0586  3.0276
  134CHL1   H1B16148   1.339   0.709  -1.958 -0.3025  1.7139  0.8195
  134CHL1    C216149   1.404   0.773  -2.154  0.2267 -0.5253 -0.3177
  134CHL1   H2A16150   1.388   0.677  -2.206  2.2906 -1.2030  0.1935
  134CHL1   H2B16151   1.503   0.809  -2.190  0.1889  0.0743  0.1446
  134CHL1   C2016152   1.496   0.963  -1.236 -0.2946  0.8270 -0.5996
  134CHL1   H2016153   1.553   1.058  -1.250 -1.7669  1.8606  0.0929
  134CHL1   C2116154   1.577   0.823  -1.243 -0.2894  0.3681 -0.0218
  134CHL1  H21A16155   1.502   0.743  -1.261  0.2377 -0.8409  2.6914
  134CHL1  H21B16156   1.634   0.804  -1.150 -1.1300  1.2722  0.7064
  134CHL1  H21C16157   1.652   0.816  -1.324 -1.9041  1.7873 -1.7402
  134CHL1   C2216158   1.424   0.970  -1.096 -0.0832  0.4368 -0.4109
  134CHL1  H22A16159   1.379   1.072  -1.100  0.2042  0.5452 -1.1152
  134CHL1  H22B16160   1.342   0.896  -1.091 -0.5278  0.9806  3.0247
  134CHL1   C2316161   1.510   0.957  -0.972  0.0295  0.2542 -0.8873
  134CHL1  H23A16162   1.564   0.860  -0.969  0.0180  0.2686  0.1303
  134CHL1  H23B16163   1.585   1.038  -0.966  0.0390  0.1760  0.6221
  134CHL1   C2416164   1.423   0.961  -0.845 -0.1613 -0.3089 -0.3859
  134CHL1  H24A16165   1.399   1.068  -0.824  0.9096  0.1175 -1.2561
  134CHL1  H24B16166   1.328   0.905  -0.860 -0.6652  0.4603 -0.1291
  134CHL1   C2516167   1.496   0.893  -0.725 -0.7204 -0.6220  0.2385
  134CHL1   H2516168   1.515   0.789  -0.758 -2.1374 -0.5489 -0.9325
  134CHL1   C2616169   1.639   0.964  -0.696 -0.2433  0.0696  0.4664
  134CHL1  H26A16170   1.703   1.010  -0.775 -0.8797  2.5170  1.2636
  134CHL1  H26B16171   1.611   1.048  -0.628  1.2435  0.7645  0.2780
  134CHL1  H26C16172   1.696   0.888  -0.638 -1.4283 -0.4112  1.0302
  134CHL1   C2716173   1.404   0.890  -0.602 -0.3668 -0.1500  0.2306
  134CHL1  H27A16174   1.385   0.990  -0.557 -1.8064 -1.6038  3.1466
  134CHL1  H27B16175   1.308   0.839  -0.625 -0.0789 -0.6372  0.0944
  134CHL1  H27C16176   1.457   0.835  -0.522 -2.1621 -2.3233  0.0047
  135CHL1    C316177   2.948   0.066  -2.093 -0.2898  0.3362  0.2457
  135CHL1    H316178   3.055   0.064  -2.066 -0.5712  2.1753  1.6978
  135CHL1    O316179   2.941   0.043  -2.235  0.1035  0.0368  0.0965
  135CHL1   H3'16180   2.848   0.057  -2.257  0.0063 -0.2838  0.2912
  135CHL1    C416181   2.881  -0.051  -2.015  0.2549 -0.0567  0.6521
  135CHL1   H4A16182   2.774  -0.049  -2.046  0.7251  1.5115 -1.0145
  135CHL1   H4B16183   2.906  -0.156  -2.043  1.2033  0.5001 -0.6277
  135CHL1    C516184   2.893  -0.037  -1.868 -0.6198 -0.0748 -0.4133
  135CHL1    C616185   2.947  -0.131  -1.791  0.3071  0.4637 -0.0760
  135CHL1    H616186   2.976  -0.224  -1.843  0.9667  0.0799  0.9641
  135CHL1    C716187   2.962  -0.129  -1.642 -0.7067  0.4887  0.2682
  135CHL1   H7A16188   2.930  -0.222  -1.589 -0.4648 -0.1338 -0.6453
  135CHL1   H7B16189   3.069  -0.115  -1.618 -0.2687 -1.5116 -0.2836
  135CHL1    C816190   2.894  -0.011  -1.574 -0.2073  0.0305 -0.4394
  135CHL1    H816191   2.785  -0.032  -1.578 -0.4891  1.4988 -0.9935
  135CHL1   C1416192   2.952   0.005  -1.439  0.3161  0.2930 -0.9113
  135CHL1   H1416193   3.059   0.031  -1.455 -0.4238  2.3315 -3.1841
  135CHL1   C1516194   2.945  -0.116  -1.346 -0.0710 -0.1740 -1.0562
  135CHL1  H15A16195   2.859  -0.184  -1.364 -2.0762  1.8804  0.1678
  135CHL1  H15B16196   3.035  -0.174  -1.376 -0.9481 -1.9581 -0.3698
  135CHL1   C1616197   2.952  -0.052  -1.202  0.4690 -0.1078 -0.2169
  135CHL1  H16A16198   2.862  -0.084  -1.145  0.9576 -1.2336 -0.0539
  135CHL1  H16B16199   3.046  -0.085  -1.153 -0.4609 -3.2391 -0.3102
  135CHL1   C1716200   2.939   0.107  -1.224 -0.2179  0.2466 -0.0453
  135CHL1   H1716201   3.040   0.153  -1.225 -0.9428  1.9389  0.2036
  135CHL1   C1316202   2.886   0.116  -1.364  0.4891  0.0490 -0.0571
  135CHL1   C1816203   2.731   0.095  -1.339  0.1224  0.4921 -1.4064
  135CHL1  H18A16204   2.700  -0.002  -1.295  2.3656  0.5727  0.5387
  135CHL1  H18B16205   2.671   0.169  -1.281 -0.9265 -2.1437  1.1296
  135CHL1  H18C16206   2.683   0.087  -1.439 -0.6760 -1.6637 -0.8997
  135CHL1   C1216207   2.934   0.244  -1.443 -0.0197  0.0852 -0.3241
  135CHL1  H12A16208   2.904   0.340  -1.397 -1.9512 -1.1142  1.0604
  135CHL1  H12B16209   3.045   0.240  -1.446 -0.0379 -1.2137  0.0467
  135CHL1   C1116210   2.875   0.242  -1.584 -0.0728 -0.0268  0.3271
  135CHL1  H11A16211   2.766   0.264  -1.573 -0.2207 -0.3404 -0.4722
  135CHL1  H11B16212   2.915   0.330  -1.638  1.6750 -0.6944  0.4972
  135CHL1    C916213   2.904   0.115  -1.662  0.0663 -0.9200  0.1465
  135CHL1    H916214   3.014   0.125  -1.673  0.0451 -1.3481 -0.5200
  135CHL1   C1016215   2.854   0.104  -1.812 -0.2874 -0.2243  0.0310
  135CHL1   C1916216   2.701   0.109  -1.807  0.6236 -0.2221 -0.2574
  135CHL1  H19A16217   2.668   0.096  -1.912  0.2497 -0.7977 -0.0762
  135CHL1  H19B16218   2.638   0.043  -1.743 -0.9823  0.6124 -0.9361
  135CHL1  H19C16219   2.671   0.212  -1.777  0.0801 -0.3469 -0.3680
  135CHL1    C116220   2.909   0.223  -1.892  0.2353  0.5122 -0.4691
  135CHL1   H1A16221   2.880   0.324  -1.858  0.0367  0.5929 -0.8715
  135CHL1   H1B16222   3.016   0.226  -1.862 -0.1901 -1.6857  1.6346
  135CHL1    C216223   2.890   0.201  -2.039  0.0376 -0.0699 -0.2277
  135CHL1   H2A16224   2.914   0.286  -2.105 -1.3488  1.7701  1.5195
  135CHL1   H2B16225   2.785   0.188  -2.073  0.3094 -2.3968 -0.3688
  135CHL1   C2016226   2.874   0.177  -1.101  0.8628  0.3380  1.3693
  135CHL1   H2016227   2.770   0.140  -1.103  0.3249  1.5331 -2.9054
  135CHL1   C2116228   2.883   0.330  -1.122 -0.2842  0.0648 -0.4861
  135CHL1  H21A16229   2.988   0.359  -1.144  0.7284 -1.3482  2.1051
  135CHL1  H21B16230   2.846   0.396  -1.040 -0.1976  1.3379 -1.4455
  135CHL1  H21C16231   2.831   0.353  -1.218  2.4792 -2.2858 -2.7303
  135CHL1   C2216232   2.932   0.133  -0.966  0.2157  0.2644  0.2555
  135CHL1  H22A16233   2.927   0.022  -0.960  2.0840  0.2023  1.2444
  135CHL1  H22B16234   3.037   0.165  -0.978  0.1553  0.2664 -0.2708
  135CHL1   C2316235   2.880   0.191  -0.830  0.3327  0.7258 -0.2403
  135CHL1  H23A16236   2.950   0.153  -0.752  1.8235  1.6634 -1.0770
  135CHL1  H23B16237   2.873   0.302  -0.822 -3.0702  0.5221  1.2474
  135CHL1   C2416238   2.743   0.131  -0.800 -0.1875  0.3407 -0.2671
  135CHL1  H24A16239   2.662   0.192  -0.845  1.0644  3.0426  0.9104
  135CHL1  H24B16240   2.729   0.028  -0.838  0.5012  0.2515 -0.3010
  135CHL1   C2516241   2.719   0.131  -0.649  0.4257  0.2014 -0.6540
  135CHL1   H2516242   2.797   0.068  -0.602 -1.9218 -0.7468  2.3194
  135CHL1   C2616243   2.722   0.266  -0.590 -0.1266  0.2969  0.3354
  135CHL1  H26A16244   2.643   0.324  -0.642  1.3070 -0.1930 -2.5982
  135CHL1  H26B16245   2.706   0.264  -0.480 -3.7770 -0.3060 -0.0729
  135CHL1  H26C16246   2.814   0.321  -0.619 -0.8916  0.5109 -1.8318
  135CHL1   C2716247   2.583   0.057  -0.607 -0.6922  0.1417 -0.4712
  135CHL1  H27A16248   2.584   0.033  -0.498 -1.0417  0.3542 -0.4195
  135CHL1  H27B16249   2.491   0.115  -0.626 -1.1966 -0.6556 -0.4916
  135CHL1  H27C16250   2.573  -0.038  -0.665 -1.2820 -0.2267  0.2197
  136CHL1    C316251   1.528  -2.948  -1.735  0.0433 -0.2885  0.3095
  136CHL1    H316252   1.639  -2.957  -1.728  0.4991  2.8870 -1.1691
  136CHL1    O316253   1.488  -2.974  -1.868  0.6807 -0.5708  0.5556
  136CHL1   H3'16254   1.446  -3.060  -1.875  0.9613 -0.6831  0.2146
  136CHL1    C416255   1.455  -3.051  -1.644 -0.1804  0.4922 -0.1407
  136CHL1   H4A16256   1.345  -3.058  -1.656 -0.0054 -0.3934 -1.2843
  136CHL1   H4B16257   1.497  -3.153  -1.652 -2.4051 -0.7341  2.2604
  136CHL1    C516258   1.469  -3.019  -1.493 -0.0876  0.3336  0.4103
  136CHL1    C616259   1.509  -3.111  -1.400  0.2064  0.1351  0.3807
  136CHL1    H616260   1.528  -3.217  -1.421 -0.8373 -0.3817  1.8201
  136CHL1    C716261   1.519  -3.083  -1.255  0.9369  0.6602  0.5396
  136CHL1   H7A16262   1.488  -3.173  -1.197 -0.8768  0.8204 -0.1329
  136CHL1   H7B16263   1.629  -3.075  -1.243  1.4845 -1.4295 -2.0027
  136CHL1    C816264   1.451  -2.957  -1.197  0.7437 -0.6824  0.6011
  136CHL1    H816265   1.341  -2.970  -1.196  0.7174 -0.5760 -0.3209
  136CHL1   C1416266   1.473  -2.919  -1.054 -0.1538  0.5047 -0.3655
  136CHL1   H1416267   1.579  -2.892  -1.034  0.0722 -0.3891 -0.3271
  136CHL1   C1516268   1.438  -3.019  -0.944 -0.2930  0.3494 -0.6612
  136CHL1  H15A16269   1.330  -3.034  -0.961 -0.0370 -0.0512 -2.0676
  136CHL1  H15B16270   1.490  -3.118  -0.940 -1.0859 -0.0363  0.8374
  136CHL1   C1616271   1.456  -2.937  -0.817  0.0923  0.4268 -0.1327
  136CHL1  H16A16272   1.374  -2.969  -0.748 -0.6110  0.9914 -0.6830
  136CHL1  H16B16273   1.553  -2.953  -0.765 -1.2584 -1.0970  2.1363
  136CHL1   C1716274   1.443  -2.782  -0.858 -0.1289  0.2546  0.4198
  136CHL1   H1716275   1.545  -2.739  -0.856 -0.9583  2.3411  2.5394
  136CHL1   C1316276   1.406  -2.780  -1.001  0.2567 -0.7656  0.8769
  136CHL1   C1816277   1.249  -2.790  -1.018  0.2731 -0.0392 -0.8915
  136CHL1  H18A16278   1.203  -2.873  -0.960 -2.2853  0.5550 -1.9666
  136CHL1  H18B16279   1.206  -2.697  -0.976 -1.0745 -1.1848  0.4156
  136CHL1  H18C16280   1.230  -2.804  -1.126  2.9868 -0.8029 -1.3610
  136CHL1   C1216281   1.467  -2.667  -1.092 -0.5336 -0.0389 -0.7014
  136CHL1  H12A16282   1.443  -2.562  -1.066  2.2721  0.0928  1.8897
  136CHL1  H12B16283   1.577  -2.676  -1.087 -0.5262 -0.6923 -1.7493
  136CHL1   C1116284   1.438  -2.692  -1.239 -0.0532  0.3989  0.0320
  136CHL1  H11A16285   1.330  -2.668  -1.243 -0.5456 -1.0639  2.4225
  136CHL1  H11B16286   1.490  -2.614  -1.299 -0.8884  0.5793 -0.4765
  136CHL1    C916287   1.484  -2.833  -1.295 -0.0268  0.2532  0.4617
  136CHL1    H916288   1.593  -2.815  -1.301 -0.2109  1.0993 -1.1508
  136CHL1   C1016289   1.445  -2.869  -1.447  0.1337 -0.7018  0.4807
  136CHL1   C1916290   1.292  -2.849  -1.447 -0.9286  0.9242  0.0503
  136CHL1  H19A16291   1.239  -2.884  -1.538 -0.1864 -1.9994  0.6411
  136CHL1  H19B16292   1.250  -2.896  -1.355  1.0525 -0.8524  0.1050
  136CHL1  H19C16293   1.273  -2.739  -1.442 -0.1719  1.0499  0.2492
  136CHL1    C116294   1.518  -2.769  -1.548 -1.1260  0.8863 -0.1428
  136CHL1   H1A16295   1.472  -2.669  -1.529 -1.1504  0.4173  2.6757
  136CHL1   H1B16296   1.628  -2.766  -1.530 -0.7959  0.0028 -1.8349
  136CHL1    C216297   1.492  -2.804  -1.698 -0.2702  0.1327 -0.3943
  136CHL1   H2A16298   1.544  -2.726  -1.757 -0.6192  3.1604  2.9033
  136CHL1   H2B16299   1.382  -2.799  -1.714 -0.0766  1.0610 -1.5392
  136CHL1   C2016300   1.368  -2.704  -0.747 -0.5435  0.1972 -0.2356
  136CHL1   H2016301   1.264  -2.740  -0.735 -0.5382  0.7570  1.7543
  136CHL1   C2116302   1.373  -2.559  -0.785 -0.4699  0.1603  0.2838
  136CHL1  H21A16303   1.318  -2.488  -0.719 -2.6250 -2.7204  1.7994
  136CHL1  H21B16304   1.315  -2.555  -0.879  1.5987  0.5708 -1.0391
  136CHL1  H21C16305   1.476  -2.529  -0.812 -0.8854 -1.1352 -3.2100
  136CHL1   C2216306   1.431  -2.727  -0.603 -0.5273 -0.1984 -0.6559
  136CHL1  H22A16307   1.452  -2.835  -0.585  2.1288  0.1182 -1.3251
  136CHL1  H22B16308   1.532  -2.680  -0.594 -0.9554  0.6302 -0.0167
  136CHL1   C2316309   1.337  -2.670  -0.495 -0.5426 -0.3166  0.1152
  136CHL1  H23A16310   1.356  -2.561  -0.490 -0.0385 -0.4455  1.3260
  136CHL1  H23B16311   1.231  -2.692  -0.517 -0.1810 -2.8258  0.5448
  136CHL1   C2416312   1.365  -2.738  -0.356  0.0319  1.0177  0.1128
  136CHL1  H24A16313   1.474  -2.758  -0.347 -0.1415  0.4501  1.0522
  136CHL1  H24B16314   1.345  -2.672  -0.269 -0.6171 -0.5355  1.1720
  136CHL1   C2516315   1.286  -2.869  -0.331  0.3301 -0.4820  0.7342
  136CHL1   H2516316   1.313  -2.935  -0.417  3.1900 -0.8090  1.7844
  136CHL1   C2616317   1.332  -2.947  -0.208  0.4285 -0.3522  0.0324
  136CHL1  H26A16318   1.295  -2.888  -0.121 -2.0363  0.4121 -1.4300
  136CHL1  H26B16319   1.276  -3.043  -0.200  0.6744 -0.7250 -2.1763
  136CHL1  H26C16320   1.441  -2.962  -0.196  0.6221 -1.0920 -2.2889
  136CHL1   C2716321   1.132  -2.842  -0.334  0.4403  0.4094  0.2458
  136CHL1  H27A16322   1.103  -2.766  -0.258  1.0971 -0.8687  1.8407
  136CHL1  H27B16323   1.096  -2.812  -0.435 -2.4812  0.3176  1.1450
  136CHL1  H27C16324   1.076  -2.934  -0.306 -1.8664  0.7879 -2.6046
  137CHL1    C316325  -2.349  -0.699  -2.046 -0.0797  1.0507 -1.1853
  137CHL1    H316326  -2.253  -0.751  -2.030 -0.7951 -0.3076 -1.1585
  137CHL1    O316327  -2.377  -0.684  -2.182  0.1451 -0.4870  0.3617
  137CHL1   H3'16328  -2.414  -0.770  -2.203  1.7981 -0.9981 -0.6256
  137CHL1    C416329  -2.470  -0.782  -1.983 -0.2368 -0.5667 -0.2064
  137CHL1   H4A16330  -2.559  -0.723  -2.013 -0.3768 -1.0361 -0.7314
  137CHL1   H4B16331  -2.476  -0.884  -2.026 -0.0521  0.1590 -2.0395
  137CHL1    C516332  -2.463  -0.793  -1.829  0.1276  0.2613  0.2651
  137CHL1    C616333  -2.459  -0.916  -1.765 -0.1335  0.5767  0.3960
  137CHL1    H616334  -2.465  -1.008  -1.825 -3.5735  0.7302  0.3052
  137CHL1    C716335  -2.472  -0.930  -1.620  0.0443 -0.0084  0.4394
  137CHL1   H7A16336  -2.542  -1.009  -1.585  0.5473 -0.0121  1.4744
  137CHL1   H7B16337  -2.372  -0.967  -1.587 -0.7800 -2.5351  0.3599
  137CHL1    C816338  -2.488  -0.800  -1.544  0.3068  0.1864 -0.3466
  137CHL1    H816339  -2.596  -0.774  -1.548  0.0419 -0.6647  0.6444
  137CHL1   C1416340  -2.442  -0.820  -1.397 -0.1358  0.4742 -0.0317
  137CHL1   H1416341  -2.333  -0.837  -1.407  0.0531  1.0005  1.0051
  137CHL1   C1516342  -2.491  -0.943  -1.319  0.2472 -0.3539  0.0381
  137CHL1  H15A16343  -2.602  -0.947  -1.312  0.0773  2.0608 -0.5705
  137CHL1  H15B16344  -2.454  -1.041  -1.356 -2.7716 -1.6978  0.3012
  137CHL1   C1616345  -2.437  -0.912  -1.176  0.6198  0.5452 -0.2545
  137CHL1  H16A16346  -2.515  -0.927  -1.099  0.3598 -0.6631 -0.7441
  137CHL1  H16B16347  -2.348  -0.975  -1.153  0.8860  1.2247  0.6352
  137CHL1   C1716348  -2.382  -0.763  -1.178  0.5067 -0.0701  0.3386
  137CHL1   H1716349  -2.276  -0.761  -1.210  0.4874  0.0965  0.2824
  137CHL1   C1316350  -2.446  -0.699  -1.303  0.7512 -0.0534  0.7549
  137CHL1   C1816351  -2.593  -0.671  -1.276  0.2827  0.0894  0.1143
  137CHL1  H18A16352  -2.639  -0.674  -1.377  0.8499  1.3731 -0.1931
  137CHL1  H18B16353  -2.633  -0.746  -1.204  1.3304 -0.7463 -0.1454
  137CHL1  H18C16354  -2.616  -0.576  -1.224 -0.2956  0.0863 -0.1256
  137CHL1   C1216355  -2.372  -0.582  -1.375 -0.5139 -0.0053 -0.3120
  137CHL1  H12A16356  -2.367  -0.490  -1.313 -0.9099  0.8246 -1.4767
  137CHL1  H12B16357  -2.268  -0.622  -1.381 -1.0793 -1.5780 -0.1474
  137CHL1   C1116358  -2.419  -0.553  -1.519 -0.6352  0.1522 -0.0377
  137CHL1  H11A16359  -2.525  -0.521  -1.516 -0.0510  2.1343  1.2789
  137CHL1  H11B16360  -2.352  -0.472  -1.555  0.0544  0.0676  1.0091
  137CHL1    C916361  -2.407  -0.683  -1.610  0.3722 -0.3620  0.2102
  137CHL1    H916362  -2.300  -0.711  -1.608  0.0946 -1.4689  0.7136
  137CHL1   C1016363  -2.450  -0.658  -1.754 -0.2891  0.2160 -0.2468
  137CHL1   C1916364  -2.593  -0.597  -1.758 -0.4061 -0.3225 -0.3113
  137CHL1  H19A16365  -2.592  -0.493  -1.719  0.0698 -0.3399 -0.2640
  137CHL1  H19B16366  -2.640  -0.594  -1.858 -0.8150  0.4343 -0.0989
  137CHL1  H19C16367  -2.662  -0.651  -1.690  1.1801  0.8273  2.3712
  137CHL1    C116368  -2.341  -0.578  -1.828  0.0380 -0.4566 -0.0558
  137CHL1   H1A16369  -2.335  -0.478  -1.781 -0.3840  0.4053 -1.7443
  137CHL1   H1B16370  -2.243  -0.630  -1.816  0.6801  0.9690  1.2861
  137CHL1    C216371  -2.349  -0.565  -1.975  0.5662  0.2881 -0.2936
  137CHL1   H2A16372  -2.271  -0.494  -2.009 -0.1311  0.9893 -0.4497
  137CHL1   H2B16373  -2.447  -0.519  -1.999 -0.7733 -3.1684 -2.1788
  137CHL1   C2016374  -2.388  -0.693  -1.041 -0.4572  0.0015 -0.4097
  137CHL1   H2016375  -2.494  -0.670  -1.018 -0.0500  1.6157 -0.0484
  137CHL1   C2116376  -2.309  -0.561  -1.057  0.4125  0.0440 -0.1712
  137CHL1  H21A16377  -2.364  -0.480  -1.109  2.2446  2.0909  0.9081
  137CHL1  H21B16378  -2.211  -0.582  -1.106  0.0877 -1.5952 -0.1732
  137CHL1  H21C16379  -2.279  -0.510  -0.964  0.6816  1.7025 -1.1386
  137CHL1   C2216380  -2.335  -0.774  -0.924 -0.0067  0.3713 -0.3309
  137CHL1  H22A16381  -2.365  -0.881  -0.929  0.4181  0.2923 -1.5742
  137CHL1  H22B16382  -2.226  -0.767  -0.944 -0.0848  0.6676 -0.6670
  137CHL1   C2316383  -2.356  -0.716  -0.786 -0.2882 -0.6516 -0.9278
  137CHL1  H23A16384  -2.317  -0.612  -0.787  1.6671 -1.3502 -1.8960
  137CHL1  H23B16385  -2.467  -0.708  -0.775  0.0235  1.2262  1.7823
  137CHL1   C2416386  -2.282  -0.790  -0.672  0.1122  1.0483  0.8148
  137CHL1  H24A16387  -2.313  -0.896  -0.681 -0.0355  0.8396  3.2153
  137CHL1  H24B16388  -2.172  -0.788  -0.685 -0.0321 -1.3976 -1.7419
  137CHL1   C2516389  -2.302  -0.732  -0.527 -0.5953  0.6417 -0.1253
  137CHL1   H2516390  -2.246  -0.803  -0.463  0.1854  0.7532 -0.6811
  137CHL1   C2616391  -2.253  -0.593  -0.497  0.0928 -0.1484 -0.5066
  137CHL1  H26A16392  -2.305  -0.521  -0.564 -1.5714 -1.3225 -0.5406
  137CHL1  H26B16393  -2.278  -0.558  -0.395 -2.2936  0.0671 -1.1086
  137CHL1  H26C16394  -2.145  -0.599  -0.522 -0.2500 -1.1487 -1.8729
  137CHL1   C2716395  -2.454  -0.737  -0.482  0.3808 -0.2473  0.2421
  137CHL1  H27A16396  -2.517  -0.665  -0.538  0.5620 -0.7619 -0.6512
  137CHL1  H27B16397  -2.496  -0.840  -0.484 -1.5104  0.3520  2.8920
  137CHL1  H27C16398  -2.454  -0.715  -0.373 -0.0539 -3.5975  1.0353
  138CHL1    C316399   2.408  -2.332  -1.619 -0.5431 -0.2898  0.0531
  138CHL1    H316400   2.464  -2.426  -1.600  1.7772  1.1268  0.4989
  138CHL1    O316401   2.384  -2.321  -1.763  0.4024  0.2123  0.4149
  138CHL1   H3'16402   2.341  -2.238  -1.784  0.0818  0.6696  2.5982
  138CHL1    C416403   2.268  -2.345  -1.553 -0.5952  0.1401  0.7155
  138CHL1   H4A16404   2.200  -2.271  -1.599 -0.9415  1.0031  2.5485
  138CHL1   H4B16405   2.239  -2.444  -1.596  2.4812  0.1355 -1.7268
  138CHL1    C516406   2.276  -2.336  -1.397 -0.1058  0.5888 -0.6381
  138CHL1    C616407   2.210  -2.428  -1.325  1.0620  0.0029 -0.1153
  138CHL1    H616408   2.172  -2.518  -1.375 -1.2062  0.2708  1.0263
  138CHL1    C716409   2.221  -2.425  -1.178  0.5606 -0.0951 -0.6231
  138CHL1   H7A16410   2.128  -2.454  -1.125 -0.3286  2.9078 -0.3634
  138CHL1   H7B16411   2.306  -2.490  -1.151 -1.6141 -2.2358  1.5735
  138CHL1    C816412   2.280  -2.291  -1.116  0.4774 -0.3137 -0.0848
  138CHL1    H816413   2.205  -2.210  -1.124  3.4430  2.5318 -1.6765
  138CHL1   C1416414   2.313  -2.300  -0.969 -0.3685 -0.3746  0.6645
  138CHL1   H1416415   2.396  -2.374  -0.968 -0.8953 -1.0498  3.6239
  138CHL1   C1516416   2.215  -2.357  -0.862 -0.0430 -0.5242  0.3479
  138CHL1  H15A16417   2.110  -2.327  -0.885 -0.2203 -0.7602  0.8330
  138CHL1  H15B16418   2.211  -2.468  -0.866  0.9246 -0.6109  1.5031
  138CHL1   C1616419   2.256  -2.308  -0.729  0.9260 -0.2427 -0.6596
  138CHL1  H16A16420   2.183  -2.250  -0.668 -1.6378 -3.3258 -0.5629
  138CHL1  H16B16421   2.289  -2.389  -0.660  0.7122  0.0184 -0.2438
  138CHL1   C1716422   2.381  -2.213  -0.754 -0.3862 -0.3657  0.8632
  138CHL1   H1716423   2.467  -2.284  -0.753  0.0740  0.1181 -0.7401
  138CHL1   C1316424   2.377  -2.171  -0.904  0.4559  0.1253  0.6957
  138CHL1   C1816425   2.266  -2.063  -0.914  0.4183 -0.3151 -0.0122
  138CHL1  H18A16426   2.292  -1.979  -0.846  0.6527 -0.7243  0.4098
  138CHL1  H18B16427   2.245  -2.036  -1.020  1.0853 -2.2495 -0.6748
  138CHL1  H18C16428   2.172  -2.110  -0.878 -0.1919  0.5387 -0.4381
  138CHL1   C1216429   2.503  -2.128  -0.977  0.9335  0.3809  0.2363
  138CHL1  H12A16430   2.536  -2.025  -0.948  0.0621  1.2555 -1.7272
  138CHL1  H12B16431   2.587  -2.199  -0.961 -0.6046 -1.6440 -0.2518
  138CHL1   C1116432   2.482  -2.118  -1.124 -0.5507  0.3730 -0.0587
  138CHL1  H11A16433   2.415  -2.032  -1.150 -0.3281  0.1293 -1.5122
  138CHL1  H11B16434   2.573  -2.094  -1.183 -1.8279 -2.0636 -3.2804
  138CHL1    C916435   2.406  -2.244  -1.191 -0.0952  0.7771  0.0424
  138CHL1    H916436   2.478  -2.329  -1.182  1.3146  1.9969  0.7107
  138CHL1   C1016437   2.368  -2.214  -1.340  0.9890  0.8335 -0.1126
  138CHL1   C1916438   2.287  -2.082  -1.370 -0.0803  0.4595  0.1452
  138CHL1  H19A16439   2.196  -2.081  -1.306  0.3935 -0.6494  0.8692
  138CHL1  H19B16440   2.360  -2.003  -1.342  1.1135 -0.3190 -0.6450
  138CHL1  H19C16441   2.266  -2.076  -1.479  2.5175  0.9554 -0.3981
  138CHL1    C116442   2.500  -2.204  -1.420  0.3441 -0.5725  0.4422
  138CHL1   H1A16443   2.549  -2.106  -1.399  1.4564 -0.3312 -2.7949
  138CHL1   H1B16444   2.566  -2.286  -1.384 -0.5946 -1.3312  0.4591
  138CHL1    C216445   2.481  -2.215  -1.578  0.1695  0.0219  0.1631
  138CHL1   H2A16446   2.574  -2.215  -1.639 -0.5126  2.3632 -0.9922
  138CHL1   H2B16447   2.427  -2.122  -1.608 -0.8341 -1.2076 -2.0198
  138CHL1   C2016448   2.406  -2.106  -0.642  0.7137  0.2137 -0.0396
  138CHL1   H2016449   2.334  -2.023  -0.655 -0.4382 -1.1424 -3.1545
  138CHL1   C2116450   2.543  -2.029  -0.668 -1.0873 -0.4869 -0.6657
  138CHL1  H21A16451   2.623  -2.101  -0.696 -1.5303 -1.2433 -0.0250
  138CHL1  H21B16452   2.582  -1.989  -0.572 -3.7474  1.2232 -0.2013
  138CHL1  H21C16453   2.534  -1.951  -0.747  0.3553  0.1094 -0.2737
  138CHL1   C2216454   2.393  -2.171  -0.501 -0.1574  0.1331 -0.0308
  138CHL1  H22A16455   2.291  -2.213  -0.493 -0.0236 -0.5765 -1.5914
  138CHL1  H22B16456   2.458  -2.261  -0.485  1.3874  1.2429  0.2159
  138CHL1   C2316457   2.406  -2.068  -0.384 -0.5015 -0.8642  0.2907
  138CHL1  H23A16458   2.506  -2.022  -0.365  0.1329 -2.1120  0.0934
  138CHL1  H23B16459   2.326  -1.994  -0.404 -1.4027 -2.3438 -1.9840
  138CHL1   C2416460   2.378  -2.141  -0.250 -0.3600 -0.4049  0.3482
  138CHL1  H24A16461   2.278  -2.186  -0.264 -0.6448  0.6429 -1.2429
  138CHL1  H24B16462   2.454  -2.222  -0.238  0.9979  0.9225  1.0045
  138CHL1   C2516463   2.380  -2.055  -0.119 -0.0061  0.1836 -0.4830
  138CHL1   H2516464   2.484  -2.022  -0.103  0.0834 -1.0423  1.7766
  138CHL1   C2616465   2.288  -1.930  -0.128 -0.1522 -0.3831 -0.0906
  138CHL1  H26A16466   2.315  -1.867  -0.215  1.4160 -1.3337 -0.3300
  138CHL1  H26B16467   2.182  -1.959  -0.120 -0.0711 -0.3424  1.4877
  138CHL1  H26C16468   2.306  -1.865  -0.039 -0.7682  0.5612 -0.6419
  138CHL1   C2716469   2.348  -2.138   0.009  0.2709  0.3462 -0.1343
  138CHL1  H27A16470   2.419  -2.214   0.047 -0.2971  0.3351  0.9281
  138CHL1  H27B16471   2.353  -2.059   0.087 -1.1753  2.6189 -2.1932
  138CHL1  H27C16472   2.244  -2.173   0.024  0.7797  0.0006  3.5380
  139CHL1    C316473   2.980   2.804  -1.603  0.4167 -0.2553 -0.0372
  139CHL1    H316474   2.884   2.754  -1.625  1.2637 -1.7217 -0.5224
  139CHL1    O316475   3.051   2.799  -1.729  0.7449  0.6876  0.4499
  139CHL1   H3'16476   3.002   2.860  -1.784 -0.4283 -1.0248 -0.5138
  139CHL1    C416477   2.943   2.948  -1.559  0.3175  0.4276 -0.3400
  139CHL1   H4A16478   3.039   3.003  -1.549  0.6755 -0.1636 -0.5324
  139CHL1   H4B16479   2.892   3.005  -1.640  0.3623 -0.9163 -1.3398
  139CHL1    C516480   2.874   2.943  -1.418 -0.3973  0.1352  0.2349
  139CHL1    C616481   2.754   2.999  -1.402  0.1893  1.2694 -0.7601
  139CHL1    H616482   2.704   3.040  -1.491 -0.6958  2.2452  0.1612
  139CHL1    C716483   2.675   3.012  -1.272  0.7052  0.2041 -0.0268
  139CHL1   H7A16484   2.648   3.117  -1.248  1.8775  0.4962  0.0866
  139CHL1   H7B16485   2.584   2.948  -1.283 -0.5408  2.1743 -2.0588
  139CHL1    C816486   2.763   2.967  -1.156 -0.4498 -0.1254 -0.7443
  139CHL1    H816487   2.823   3.053  -1.122 -1.0352 -1.4381  4.3844
  139CHL1   C1416488   2.670   2.927  -1.045  0.3613 -0.6333  0.0344
  139CHL1   H1416489   2.608   2.840  -1.075 -0.2442  0.4825 -2.1979
  139CHL1   C1516490   2.560   3.034  -1.008 -0.6589 -0.5716  0.1460
  139CHL1  H15A16491   2.607   3.134  -0.996  1.1005 -1.5335  1.8951
  139CHL1  H15B16492   2.474   3.028  -1.078 -1.1498 -1.5595  0.8107
  139CHL1   C1616493   2.531   3.000  -0.863 -0.1492 -0.6404  0.1193
  139CHL1  H16A16494   2.553   3.081  -0.790 -1.0720 -0.9947  0.8213
  139CHL1  H16B16495   2.424   2.971  -0.849 -0.3148  0.1238  0.5053
  139CHL1   C1716496   2.607   2.869  -0.820  0.5704 -0.1009  0.0116
  139CHL1   H1716497   2.537   2.789  -0.853 -1.8940  1.9794 -0.1482
  139CHL1   C1316498   2.730   2.876  -0.916  0.4265 -0.3918 -0.2204
  139CHL1   C1816499   2.829   2.977  -0.856 -0.9821 -0.1121 -0.0362
  139CHL1  H18A16500   2.884   2.946  -0.764 -0.1698  3.0090  0.6709
  139CHL1  H18B16501   2.913   2.988  -0.928 -1.5185 -0.8155 -0.7719
  139CHL1  H18C16502   2.774   3.072  -0.839  0.8026  0.8305  0.7666
  139CHL1   C1216503   2.808   2.746  -0.955 -1.2902  0.3658 -0.1523
  139CHL1  H12A16504   2.849   2.700  -0.862 -0.8826  1.7930  0.3982
  139CHL1  H12B16505   2.738   2.668  -0.993 -2.2075  0.7385  0.7206
  139CHL1   C1116506   2.911   2.779  -1.065 -0.3899  0.2378  0.3871
  139CHL1  H11A16507   3.001   2.838  -1.038 -0.8611  0.4903  1.4727
  139CHL1  H11B16508   2.937   2.674  -1.092 -0.6610  0.0924  0.6802
  139CHL1    C916509   2.850   2.843  -1.192  0.9463  0.0454 -0.2841
  139CHL1    H916510   2.780   2.763  -1.227  0.4368  0.3814 -0.0517
  139CHL1   C1016511   2.944   2.866  -1.307 -0.2363 -0.6179  0.3790
  139CHL1   C1916512   3.068   2.948  -1.259 -0.2699 -0.0301 -0.3432
  139CHL1  H19A16513   3.124   2.883  -1.187 -1.2138  1.6773  2.0784
  139CHL1  H19B16514   3.142   2.963  -1.341 -0.5803  0.4356 -0.5377
  139CHL1  H19C16515   3.042   3.040  -1.202  3.0570 -0.0112  1.4653
  139CHL1    C116516   2.988   2.734  -1.367 -0.1542  0.1876 -0.5435
  139CHL1   H1A16517   3.068   2.689  -1.303 -1.6337 -1.3024  0.3322
  139CHL1   H1B16518   2.905   2.663  -1.387  0.0249  0.2102 -1.4055
  139CHL1    C216519   3.068   2.742  -1.500 -0.0162 -0.1518  0.1001
  139CHL1   H2A16520   3.090   2.638  -1.534  1.5017 -0.8071  2.7953
  139CHL1   H2B16521   3.161   2.800  -1.484 -0.2580  0.1912  0.2642
  139CHL1   C2016522   2.630   2.852  -0.670  0.1091 -0.3856  0.2713
  139CHL1   H2016523   2.729   2.893  -0.640  1.4309 -3.5777  0.6220
  139CHL1   C2116524   2.641   2.697  -0.638 -0.2755 -0.9630  0.2640
  139CHL1  H21A16525   2.718   2.651  -0.705  0.3520 -0.0634  0.3551
  139CHL1  H21B16526   2.535   2.664  -0.646 -1.0838  0.8926  2.4599
  139CHL1  H21C16527   2.668   2.690  -0.531 -1.3367  2.0078  0.8225
  139CHL1   C2216528   2.525   2.924  -0.585 -0.0766  0.5448 -0.8502
  139CHL1  H22A16529   2.523   3.034  -0.602 -3.0969  0.4185 -1.8597
  139CHL1  H22B16530   2.429   2.875  -0.613 -0.3663  0.8014 -0.3288
  139CHL1   C2316531   2.554   2.906  -0.436  0.2979  0.6128  0.3219
  139CHL1  H23A16532   2.520   2.810  -0.392  0.6137  1.0731  1.6323
  139CHL1  H23B16533   2.665   2.911  -0.430  0.6107 -0.5195 -2.9459
  139CHL1   C2416534   2.496   3.027  -0.358  0.4207  0.5137  0.3347
  139CHL1  H24A16535   2.528   3.124  -0.401 -4.9513  1.7224 -1.6613
  139CHL1  H24B16536   2.385   3.029  -0.360  0.3597  2.2801  2.4031
  139CHL1   C2516537   2.541   3.040  -0.209  0.3404 -0.3502  0.1805
  139CHL1   H2516538   2.512   2.953  -0.145  1.1898  0.3004  1.4992
  139CHL1   C2616539   2.700   3.056  -0.202  0.4258 -0.5127  0.7320
  139CHL1  H26A16540   2.722   3.082  -0.096 -2.4268 -1.2980  1.5973
  139CHL1  H26B16541   2.740   2.957  -0.231  0.0775 -0.7731  1.1397
  139CHL1  H26C16542   2.741   3.130  -0.275 -0.5568 -1.3183 -0.6827
  139CHL1   C2716543   2.481   3.168  -0.160  0.0608 -0.9213  0.5091
  139CHL1  H27A16544   2.519   3.209  -0.064 -1.8643  0.0732  0.8955
  139CHL1  H27B16545   2.507   3.251  -0.229  1.0942  0.1941  2.1752
  139CHL1  H27C16546   2.372   3.172  -0.137  0.0631 -0.6381  0.4798
  140CHL1    C316547   2.094  -3.003  -1.779  0.0314  0.2445  0.7226
  140CHL1    H316548   2.072  -3.110  -1.758 -1.1068  0.5070  0.9551
  140CHL1    O316549   2.101  -2.987  -1.916 -0.5245  0.3751  0.0039
  140CHL1   H3'16550   2.106  -2.892  -1.926 -1.3356  0.6617  1.9018
  140CHL1    C416551   1.988  -2.908  -1.723  0.1523  0.1751 -0.4131
  140CHL1   H4A16552   2.017  -2.803  -1.745  2.5398 -0.3886 -0.2848
  140CHL1   H4B16553   1.891  -2.926  -1.772 -0.2348  0.4151  0.2547
  140CHL1    C516554   1.983  -2.924  -1.570  0.2279  0.0230 -0.3524
  140CHL1    C616555   1.875  -2.964  -1.501 -0.2270 -0.1741 -0.3424
  140CHL1    H616556   1.786  -3.003  -1.553  0.5996 -3.1871  0.2950
  140CHL1    C716557   1.870  -2.967  -1.345 -0.5415  0.1534  0.8688
  140CHL1   H7A16558   1.772  -2.923  -1.315 -0.6525 -0.4376  1.3857
  140CHL1   H7B16559   1.871  -3.075  -1.321  1.1751 -1.0762 -3.6017
  140CHL1    C816560   1.994  -2.906  -1.275  0.2090  0.2436 -0.1820
  140CHL1    H816561   1.986  -2.795  -1.278  3.0053  0.5282  0.0909
  140CHL1   C1416562   2.005  -2.958  -1.128  0.4140  0.3194  0.0355
  140CHL1   H1416563   2.022  -3.066  -1.148  0.2886  0.2880  0.0997
  140CHL1   C1516564   1.883  -2.944  -1.034  0.3963 -0.9972  0.4971
  140CHL1  H15A16565   1.823  -2.851  -1.043 -0.3837 -1.6176 -1.1410
  140CHL1  H15B16566   1.801  -3.015  -1.057 -0.3996  0.0843 -0.1012
  140CHL1   C1616567   1.928  -2.947  -0.888  0.7080  0.6332 -0.0500
  140CHL1  H16A16568   1.894  -2.853  -0.839 -1.7273 -0.6687  0.9145
  140CHL1  H16B16569   1.876  -3.027  -0.832  0.8766  0.2761 -0.3998
  140CHL1   C1716570   2.078  -2.952  -0.897  0.5390  0.3910  0.4703
  140CHL1   H1716571   2.101  -3.060  -0.896  1.7547  0.6390  0.7161
  140CHL1   C1316572   2.118  -2.901  -1.043 -0.4659 -0.1110  1.0882
  140CHL1   C1816573   2.125  -2.748  -1.034  0.4387 -0.1201  0.4380
  140CHL1  H18A16574   2.224  -2.719  -0.993  1.0417 -1.6130  0.1234
  140CHL1  H18B16575   2.121  -2.704  -1.135  0.9717 -2.2939 -0.5997
  140CHL1  H18C16576   2.048  -2.702  -0.969  1.7217  3.6735 -0.4968
  140CHL1   C1216577   2.252  -2.956  -1.112  0.4745 -1.1823 -0.0562
  140CHL1  H12A16578   2.351  -2.920  -1.076 -0.5030  1.7209 -0.0130
  140CHL1  H12B16579   2.248  -3.067  -1.105 -2.0408 -1.1340  0.1172
  140CHL1   C1116580   2.247  -2.916  -1.264 -0.4950 -0.3311 -0.5896
  140CHL1  H11A16581   2.268  -2.807  -1.274 -0.1285 -0.5832 -3.4467
  140CHL1  H11B16582   2.334  -2.957  -1.320 -0.3108 -0.4815 -0.1925
  140CHL1    C916583   2.121  -2.955  -1.347  0.4434  0.5972  0.3409
  140CHL1    H916584   2.126  -3.065  -1.357 -2.9330  0.3689 -0.2335
  140CHL1   C1016585   2.117  -2.904  -1.492  0.5897 -0.6602 -0.3986
  140CHL1   C1916586   2.150  -2.750  -1.496 -0.0659  0.6777  0.1684
  140CHL1  H19A16587   2.149  -2.701  -1.596  0.7460  1.0999  0.3574
  140CHL1  H19B16588   2.086  -2.697  -1.423 -0.9719 -1.9693  1.4080
  140CHL1  H19C16589   2.254  -2.734  -1.461  0.0583  1.9649 -0.6785
  140CHL1    C116590   2.225  -2.985  -1.565  0.1651  0.9581  0.4935
  140CHL1   H1A16591   2.328  -2.947  -1.548  1.0610 -0.3396 -1.6147
  140CHL1   H1B16592   2.222  -3.093  -1.542 -2.0761  1.4611  3.0929
  140CHL1    C216593   2.228  -2.968  -1.717  0.0444 -0.1651  0.7997
  140CHL1   H2A16594   2.300  -3.043  -1.757 -0.4352  0.6701 -1.7765
  140CHL1   H2B16595   2.264  -2.865  -1.738 -0.4879 -0.3255 -1.0341
  140CHL1   C2016596   2.151  -2.889  -0.774 -0.1424 -0.0625  0.0371
  140CHL1   H2016597   2.133  -2.780  -0.781 -0.1389 -0.1034 -0.6902
  140CHL1   C2116598   2.305  -2.910  -0.793  0.4833  0.5975  0.1462
  140CHL1  H21A16599   2.313  -3.018  -0.820 -1.2586  0.2521  0.8690
  140CHL1  H21B16600   2.364  -2.902  -0.699  3.6178 -2.0077 -1.3948
  140CHL1  H21C16601   2.346  -2.841  -0.869 -0.5121 -0.3394 -1.2930
  140CHL1   C2216602   2.101  -2.943  -0.640  0.2602  0.1948 -0.0592
  140CHL1  H22A16603   1.993  -2.923  -0.622  1.2177  4.1085  2.3523
  140CHL1  H22B16604   2.111  -3.054  -0.646 -1.6767  0.0348 -1.7211
  140CHL1   C2316605   2.167  -2.886  -0.521  0.0525 -0.0967  0.3924
  140CHL1  H23A16606   2.127  -2.952  -0.441 -0.6392 -0.8141 -0.5144
  140CHL1  H23B16607   2.277  -2.906  -0.519  0.4114  1.7425  1.7515
  140CHL1   C2416608   2.139  -2.742  -0.484  0.5996 -0.5101  0.5162
  140CHL1  H24A16609   2.149  -2.684  -0.578  2.1484  1.3718  1.7654
  140CHL1  H24B16610   2.034  -2.717  -0.457  0.9337  0.7006  0.7733
  140CHL1   C2516611   2.209  -2.690  -0.365 -0.4755 -0.7376  0.2518
  140CHL1   H2516612   2.312  -2.732  -0.371 -0.8959 -1.6229 -3.5895
  140CHL1   C2616613   2.154  -2.745  -0.234  0.3995  0.4951  0.1586
  140CHL1  H26A16614   2.224  -2.696  -0.164 -1.7510  1.7143  1.5463
  140CHL1  H26B16615   2.054  -2.707  -0.207 -0.1528  0.7310 -2.0499
  140CHL1  H26C16616   2.165  -2.856  -0.225 -0.3279  0.3975 -0.0929
  140CHL1   C2716617   2.218  -2.538  -0.353  0.3492 -0.0571  0.9513
  140CHL1  H27A16618   2.114  -2.497  -0.356 -0.6927 -2.4737 -1.7000
  140CHL1  H27B16619   2.275  -2.504  -0.264 -0.4257  0.3934  1.2942
  140CHL1  H27C16620   2.265  -2.502  -0.447  0.5384 -2.1580  0.2005
  141DOPC     N16621   0.388   0.982   2.574  0.1784  0.5140  0.2721
  141DOPC   C1216622   0.337   1.042   2.442  0.5539  0.0246  0.0938
  141DOPC  H12A16623   0.403   1.008   2.364  0.7634 -0.0320  0.2926
  141DOPC  H12B16624   0.345   1.149   2.446 -3.7574  0.5540 -0.1912
  141DOPC   C1316625   0.330   1.059   2.689  0.5377  0.3976 -0.1501
  141DOPC  H13A16626   0.225   1.053   2.666  0.3869 -1.1481  0.8194
  141DOPC  H13B16627   0.355   1.022   2.787  0.3445 -0.2467 -0.3428
  141DOPC  H13C16628   0.364   1.161   2.695  2.3756 -0.1790 -0.2661
  141DOPC   C1416629   0.538   0.996   2.584 -0.4374 -0.4130 -0.5026
  141DOPC  H14A16630   0.564   1.101   2.584  0.0801 -0.5399  0.0573
  141DOPC  H14B16631   0.573   0.946   2.673  3.0519  1.5306 -0.6110
  141DOPC  H14C16632   0.594   0.959   2.500  0.6155 -1.1449  0.4858
  141DOPC   C1516633   0.353   0.834   2.581 -0.4737 -0.2170  0.1781
  141DOPC  H15A16634   0.392   0.787   2.669  1.8191 -1.5183 -1.4299
  141DOPC  H15B16635   0.408   0.773   2.511  1.1651 -3.1748  3.7359
  141DOPC  H15C16636   0.246   0.821   2.586 -0.4389 -0.1169  1.3560
  141DOPC   C1116637   0.195   0.994   2.400 -0.3739 -0.1592  0.2760
  141DOPC  H11A16638   0.180   1.048   2.304 -2.1359  0.5603  0.9046
  141DOPC  H11B16639   0.193   0.886   2.376 -0.8567 -0.5770  2.0598
  141DOPC     P16640  -0.023   0.922   2.517  0.6249  0.1888 -0.0252
  141DOPC   O1316641  -0.129   0.978   2.607  0.3591 -0.2930  0.3839
  141DOPC   O1416642   0.026   0.790   2.563 -0.3821  0.0602 -0.2697
  141DOPC   O1216643   0.097   1.023   2.506 -0.1640  0.0569 -0.0449
  141DOPC   O1116644  -0.068   0.896   2.368  0.3485  0.1481 -0.3359
  141DOPC    C116645  -0.140   0.992   2.281 -0.2208  0.2219 -0.6110
  141DOPC    HA16646  -0.103   1.096   2.281 -1.4813  0.6947 -1.4661
  141DOPC    HB16647  -0.244   1.003   2.321  0.0450 -0.1877  0.2213
  141DOPC    C216648  -0.135   0.955   2.126  0.0733  0.0359  0.4101
  141DOPC    HS16649  -0.182   1.038   2.070  0.3096 -0.6044 -0.7782
  141DOPC   O2116650  -0.199   0.830   2.079  0.1294 -0.0436 -0.0995
  141DOPC   C2116651  -0.333   0.836   2.089 -0.2664 -0.3144 -0.6664
  141DOPC   O2216652  -0.399   0.935   2.126  0.4362 -0.4155 -0.2877
  141DOPC   C2216653  -0.387   0.711   2.026 -0.0894  0.2099 -0.0204
  141DOPC   H2R16654  -0.498   0.716   2.033 -0.0322  2.0332  0.0495
  141DOPC   H2S16655  -0.334   0.631   2.081 -0.0537  0.3951  0.2185
  141DOPC    C316656   0.016   0.962   2.085  0.2225  0.0324  0.1540
  141DOPC    HX16657   0.063   0.877   2.138  0.2465 -0.9183 -1.3240
  141DOPC    HY16658   0.050   1.061   2.121  2.2509  0.2078 -2.0056
  141DOPC   O3116659   0.029   0.952   1.940  0.1412  0.0069 -0.3191
  141DOPC   C3116660   0.031   0.835   1.886 -0.2208  0.7339 -0.0751
  141DOPC   O3216661   0.048   0.729   1.946  0.1266 -0.0891 -0.0031
  141DOPC   C3216662   0.013   0.850   1.730  0.2913 -0.1914 -0.3707
  141DOPC   H2X16663  -0.096   0.861   1.709 -0.1931  0.8687  2.2098
  141DOPC   H2Y16664   0.050   0.952   1.705 -0.9803 -0.1151 -2.1195
  141DOPC   C2316665  -0.333   0.710   1.880  0.4348 -0.4045  1.0316
  141DOPC   H3R16666  -0.225   0.685   1.872  0.7905  1.5852 -2.4120
  141DOPC   H3S16667  -0.349   0.808   1.830  0.0797 -1.0190 -0.0972
  141DOPC   C2416668  -0.402   0.612   1.777  0.6703  0.8610  0.3810
  141DOPC   H4R16669  -0.512   0.624   1.770  0.2085 -2.4022  0.4610
  141DOPC   H4S16670  -0.382   0.507   1.808  1.6491  0.9834  0.1909
  141DOPC   C2516671  -0.344   0.622   1.630  0.6849  0.2433 -0.2008
  141DOPC   H5R16672  -0.234   0.612   1.638  0.5057 -0.6628  1.6278
  141DOPC   H5S16673  -0.374   0.722   1.592 -2.6746 -0.5387  0.0140
  141DOPC   C2616674  -0.391   0.509   1.536 -0.4672 -0.4114  0.5403
  141DOPC   H6R16675  -0.491   0.536   1.495 -1.5029  0.2938  3.3116
  141DOPC   H6S16676  -0.396   0.406   1.578  0.0917  0.6864  3.4986
  141DOPC   C2716677  -0.287   0.502   1.416  0.5505 -0.6719 -0.3546
  141DOPC   H7R16678  -0.183   0.487   1.453  0.8146  2.0083  0.2253
  141DOPC   H7S16679  -0.291   0.605   1.373 -2.9157 -0.4462  0.2723
  141DOPC   C2816680  -0.331   0.392   1.315 -0.6685  0.0631  0.1764
  141DOPC   H8R16681  -0.437   0.415   1.289 -0.1379  1.6266 -0.7236
  141DOPC   H8S16682  -0.319   0.294   1.366  1.0198 -1.7791 -3.4487
  141DOPC   C2916683  -0.226   0.372   1.204  0.4849 -0.6028  0.3702
  141DOPC   H9R16684  -0.164   0.282   1.218 -0.6503 -1.6303 -0.8768
  141DOPC  C21016685  -0.203   0.452   1.093 -0.0169 -0.6620 -0.7555
  141DOPC  H10R16686  -0.133   0.404   1.023  0.5259 -0.0292 -0.6575
  141DOPC  C21116687  -0.276   0.575   1.051  0.1636 -0.0591  0.1055
  141DOPC  H11R16688  -0.195   0.651   1.055 -0.8659  1.0062  1.9918
  141DOPC  H11S16689  -0.366   0.586   1.115  0.5368 -0.4814  0.7176
  141DOPC  C21216690  -0.321   0.569   0.898  0.6740  0.3460 -0.4116
  141DOPC  H12R16691  -0.386   0.657   0.880  1.7074  0.8554 -1.7718
  141DOPC  H12S16692  -0.390   0.482   0.887  0.9503  0.1614 -0.7082
  141DOPC  C21316693  -0.219   0.575   0.788  0.9795  0.2150 -0.1183
  141DOPC  H13R16694  -0.151   0.491   0.813  0.3917 -0.0401  0.6623
  141DOPC  H13S16695  -0.163   0.671   0.795  1.5937  0.0183 -1.8106
  141DOPC  C21416696  -0.287   0.590   0.649  0.6144  0.8089 -0.2753
  141DOPC  H14R16697  -0.352   0.680   0.646  0.3227  0.5806 -3.1071
  141DOPC  H14S16698  -0.347   0.500   0.624  0.3477  0.4420  1.5185
  141DOPC  C21516699  -0.185   0.600   0.533 -0.6222 -0.0743  0.0585
  141DOPC  H15R16700  -0.128   0.506   0.539 -0.6437 -0.0626  0.4955
  141DOPC  H15S16701  -0.114   0.682   0.556  1.0458 -1.7241  1.0239
  141DOPC  C21616702  -0.241   0.623   0.386  0.7360  0.0026  0.1279
  141DOPC  H16R16703  -0.162   0.619   0.308  1.4902  0.0535  0.8789
  141DOPC  H16S16704  -0.275   0.728   0.380  1.9440  0.3111 -2.4667
  141DOPC  C21716705  -0.356   0.527   0.344 -0.8465 -0.0700  0.6056
  141DOPC  H17R16706  -0.444   0.536   0.411 -2.0432  0.7621 -1.0007
  141DOPC  H17S16707  -0.311   0.426   0.344  1.2166  0.7842 -0.2452
  141DOPC  C21816708  -0.411   0.561   0.201 -0.5051 -0.0721  0.1648
  141DOPC  H18R16709  -0.320   0.571   0.138  0.2685 -2.0355  0.8684
  141DOPC  H18S16710  -0.467   0.657   0.204 -1.3342 -0.4903 -1.0877
  141DOPC  H18T16711  -0.475   0.473   0.177  1.4972 -1.0805 -1.9453
  141DOPC   C3316712   0.094   0.743   1.660  0.2149 -0.6114  0.4942
  141DOPC   H3X16713   0.059   0.644   1.695 -4.3704  1.0974  1.4770
  141DOPC   H3Y16714   0.202   0.763   1.681 -0.0543  2.7595 -0.7699
  141DOPC   C3416715   0.057   0.743   1.509 -0.0659  0.2601 -0.0483
  141DOPC   H4X16716  -0.050   0.771   1.501 -0.5788 -1.5382  0.0155
  141DOPC   H4Y16717   0.074   0.642   1.464 -1.4614  0.3175 -0.7828
  141DOPC   C3516718   0.141   0.840   1.436  0.4587 -0.1846 -0.9061
  141DOPC   H5X16719   0.247   0.808   1.440  0.9158  1.2940  2.3345
  141DOPC   H5Y16720   0.124   0.941   1.479 -1.5342 -0.4267 -1.0374
  141DOPC   C3616721   0.107   0.858   1.288 -0.1141 -0.0634  0.8975
  141DOPC   H6X16722   0.005   0.892   1.261  0.3786 -0.8781 -2.4850
  141DOPC   H6Y16723   0.176   0.931   1.241 -1.5770  1.2909  0.7640
  141DOPC   C3716724   0.136   0.724   1.202 -0.1751 -0.4991  0.5134
  141DOPC   H7X16725   0.243   0.701   1.219 -0.4862 -1.1946  1.6122
  141DOPC   H7Y16726   0.073   0.641   1.239 -1.3015 -0.8181 -1.8689
  141DOPC   C3816727   0.103   0.724   1.049 -0.2960 -0.2313  0.8430
  141DOPC   H8X16728  -0.005   0.750   1.043 -0.1966  0.4692  1.9126
  141DOPC   H8Y16729   0.123   0.627   0.999  0.1808  1.1619 -1.8690
  141DOPC   C3916730   0.190   0.822   0.976 -0.9867  0.5902  0.0312
  141DOPC   H9X16731   0.260   0.874   1.043 -0.8359 -0.1924  0.4886
  141DOPC  C31016732   0.204   0.828   0.842  0.7555  0.4328  0.6918
  141DOPC  H10X16733   0.287   0.885   0.798 -0.7800  1.3153 -1.1885
  141DOPC  C31116734   0.133   0.735   0.747 -0.1561  0.2045  0.2727
  141DOPC  H11X16735   0.023   0.753   0.752 -0.5507 -1.9827  0.8854
  141DOPC  H11Y16736   0.150   0.629   0.775  1.3183  0.8872  2.1336
  141DOPC  C31216737   0.182   0.747   0.597  0.0693  0.5407  0.4388
  141DOPC  H12X16738   0.121   0.667   0.549  0.0352  0.3316  0.8229
  141DOPC  H12Y16739   0.288   0.714   0.601  0.9022  2.8538 -0.7918
  141DOPC  C31316740   0.156   0.888   0.540  0.7369 -0.9887 -0.7205
  141DOPC  H13X16741   0.049   0.904   0.563  1.5334  1.3589  1.8551
  141DOPC  H13Y16742   0.214   0.962   0.599 -0.0071 -0.4438 -0.6604
  141DOPC  C31416743   0.190   0.894   0.387  0.2971 -0.3968  0.3453
  141DOPC  H14X16744   0.183   0.998   0.351  0.7652 -0.5172 -0.1069
  141DOPC  H14Y16745   0.296   0.862   0.376  0.9915  1.6624  0.7303
  141DOPC  C31516746   0.101   0.803   0.301  0.3336 -0.0343  0.1599
  141DOPC  H15X16747  -0.004   0.840   0.295 -0.3350 -2.0600 -2.5081
  141DOPC  H15Y16748   0.091   0.708   0.356 -2.2432  1.6274  2.8424
  141DOPC  C31616749   0.145   0.768   0.158 -0.7371 -0.1898  0.1324
  141DOPC  H16X16750   0.161   0.852   0.087  0.3306 -0.9917 -0.6158
  141DOPC  H16Y16751   0.238   0.710   0.176 -1.9526 -1.4655  2.8613
  141DOPC  C31716752   0.038   0.689   0.088 -0.2462  0.3812  0.2568
  141DOPC  H17X16753   0.091   0.668  -0.007  3.3020  2.1892  1.6626
  141DOPC  H17Y16754   0.014   0.601   0.151  0.4242  0.0500  0.0571
  141DOPC  C31816755  -0.095   0.766   0.053  0.1583 -0.0695 -0.0806
  141DOPC  H18X16756  -0.180   0.697   0.036 -0.0637 -0.1413  1.2087
  141DOPC  H18Y16757  -0.126   0.846   0.124  0.3845  2.3157 -2.5116
  141DOPC  H18Z16758  -0.078   0.813  -0.046 -0.1816 -0.9359 -0.5556
  142DOPC     N16759   1.406   0.657   2.189  0.1887  0.2138  0.7785
  142DOPC   C1216760   1.327   0.586   2.304 -0.4393 -0.3358 -0.0752
  142DOPC  H12A16761   1.344   0.636   2.398  2.5809  2.8601 -2.0709
  142DOPC  H12B16762   1.373   0.489   2.318  0.1584 -0.0472  0.0156
  142DOPC   C1316763   1.549   0.670   2.229 -0.1247 -0.0294  0.4242
  142DOPC  H13A16764   1.592   0.573   2.247 -1.5382 -0.6748  0.4692
  142DOPC  H13B16765   1.597   0.716   2.144 -0.4508 -2.1974 -1.0349
  142DOPC  H13C16766   1.562   0.737   2.313  2.6700 -1.5740  1.3563
  142DOPC   C1416767   1.346   0.790   2.153 -0.3267 -0.1825  0.4935
  142DOPC  H14A16768   1.333   0.862   2.233 -0.3705  2.2796 -1.6103
  142DOPC  H14B16769   1.399   0.845   2.076  0.3974 -1.1883  0.2559
  142DOPC  H14C16770   1.247   0.758   2.124  0.3589 -1.6994 -0.2765
  142DOPC   C1516771   1.394   0.572   2.067 -0.1402  0.0849 -0.2040
  142DOPC  H15A16772   1.462   0.597   1.986  1.0196 -1.0427  0.3788
  142DOPC  H15B16773   1.290   0.573   2.037 -0.7528 -0.7719  1.7667
  142DOPC  H15C16774   1.412   0.470   2.100  1.3685  0.3702 -0.0852
  142DOPC   C1116775   1.174   0.562   2.284  0.0479  0.3080  0.1764
  142DOPC  H11A16776   1.173   0.500   2.192 -0.6519  2.2994 -1.2233
  142DOPC  H11B16777   1.130   0.506   2.370 -0.5226  2.2956  1.2597
  142DOPC     P16778   1.056   0.777   2.377 -0.2570  0.1049  0.9472
  142DOPC   O1316779   1.182   0.830   2.440 -0.2782 -0.1209 -0.6255
  142DOPC   O1416780   0.949   0.724   2.465 -0.3127 -0.4115 -0.5362
  142DOPC   O1216781   1.096   0.676   2.264 -0.1953 -0.2414 -0.1345
  142DOPC   O1116782   1.002   0.889   2.287 -0.3504 -0.7420  0.3274
  142DOPC    C116783   0.878   0.896   2.223 -0.1518 -0.7632 -0.0332
  142DOPC    HA16784   0.846   0.999   2.196 -1.7787 -1.2467 -0.0669
  142DOPC    HB16785   0.799   0.860   2.292  0.2826  0.8520  1.3572
  142DOPC    C216786   0.882   0.800   2.101  0.6117  0.3062 -0.5902
  142DOPC    HS16787   0.915   0.700   2.137  0.0138  0.4679  0.4333
  142DOPC   O2116788   0.982   0.852   2.014 -0.3895  0.0373 -0.2876
  142DOPC   C2116789   1.014   0.795   1.901 -0.1647  0.0688 -0.0845
  142DOPC   O2216790   0.989   0.683   1.862  0.3538 -0.1332 -0.2667
  142DOPC   C2216791   1.100   0.888   1.829  0.0144  0.4357 -0.0671
  142DOPC   H2R16792   1.113   0.837   1.731  0.2498 -1.3167  0.8398
  142DOPC   H2S16793   1.200   0.903   1.875  0.1217  0.4974 -0.3165
  142DOPC    C316794   0.742   0.787   2.034 -0.9454  0.4280 -0.1877
  142DOPC    HX16795   0.666   0.759   2.111  0.6591 -0.4372  1.1661
  142DOPC    HY16796   0.744   0.698   1.967 -0.9870  1.8486 -2.1304
  142DOPC   O3116797   0.703   0.898   1.961  0.3086  0.0007  0.1191
  142DOPC   C3116798   0.626   0.991   2.021  0.1127  0.6040  0.6863
  142DOPC   O3216799   0.596   0.988   2.137  0.1947  0.1130 -0.3242
  142DOPC   C3216800   0.591   1.100   1.926 -0.3098 -0.7075 -0.1379
  142DOPC   H2X16801   0.519   1.180   1.953  0.5217  0.4788 -1.2777
  142DOPC   H2Y16802   0.686   1.147   1.892  0.1993  0.6177  2.8288
  142DOPC   C2316803   1.040   1.028   1.786 -1.0489 -0.3273  0.1558
  142DOPC   H3R16804   1.107   1.077   1.713  2.6993 -0.2397  3.3660
  142DOPC   H3S16805   1.046   1.085   1.881 -2.3898  0.0653  0.0267
  142DOPC   C2416806   0.905   1.030   1.731 -0.0569 -0.3943 -0.0357
  142DOPC   H4R16807   0.882   1.137   1.714  0.0212 -0.3050  0.4026
  142DOPC   H4S16808   0.835   0.990   1.808 -2.1742  2.0714 -0.5302
  142DOPC   C2516809   0.886   0.945   1.604  0.7684  0.1225 -0.0472
  142DOPC   H5R16810   0.778   0.925   1.586  1.1515 -1.5150 -0.7419
  142DOPC   H5S16811   0.929   0.844   1.621  1.0665  0.1706 -0.5071
  142DOPC   C2616812   0.942   1.015   1.482  0.6043  0.3153  0.5642
  142DOPC   H6R16813   1.034   1.076   1.495  0.2706  0.6941  1.2248
  142DOPC   H6S16814   0.873   1.094   1.445  0.2369  1.4256  3.3402
  142DOPC   C2716815   0.963   0.912   1.371 -0.1797  0.0936 -0.6189
  142DOPC   H7R16816   0.863   0.900   1.324  0.2392 -1.6032 -1.1776
  142DOPC   H7S16817   0.983   0.807   1.403  0.7740  0.3555 -0.2985
  142DOPC   C2816818   1.059   0.964   1.252  0.6218 -0.1743  0.1053
  142DOPC   H8R16819   1.168   0.962   1.274  0.6626  1.9800  0.2483
  142DOPC   H8S16820   1.036   1.072   1.240 -1.4815 -0.4746  0.9451
  142DOPC   C2916821   1.019   0.893   1.131 -0.2622  0.1410  0.3356
  142DOPC   H9R16822   0.963   0.800   1.143  0.1242 -0.6871 -3.1401
  142DOPC  C21016823   1.051   0.920   1.002  0.0635  0.1580 -0.0132
  142DOPC  H10R16824   1.013   0.858   0.920 -3.2124  2.7387 -0.6721
  142DOPC  C21116825   1.125   1.042   0.951  0.3495  0.4691 -0.0286
  142DOPC  H11R16826   1.235   1.032   0.957  0.2861  0.5005  1.3939
  142DOPC  H11S16827   1.086   1.129   1.007 -1.1017  0.7665 -1.4331
  142DOPC  C21216828   1.082   1.080   0.806 -0.1775  0.3894 -0.5006
  142DOPC  H12R16829   1.136   1.175   0.784 -0.5491  0.1973 -2.4304
  142DOPC  H12S16830   0.973   1.084   0.788 -0.5540 -0.5534  1.3931
  142DOPC  C21316831   1.133   0.977   0.700 -0.5007 -0.0368  0.1144
  142DOPC  H13R16832   1.098   0.874   0.721  1.2378 -0.3224  1.9160
  142DOPC  H13S16833   1.243   0.976   0.708 -0.4284  0.3165 -0.7109
  142DOPC  C21416834   1.120   1.017   0.555 -0.0358 -0.2117 -0.1928
  142DOPC  H14R16835   1.185   1.106   0.539 -1.9002  1.3738  0.7020
  142DOPC  H14S16836   1.019   1.058   0.536 -0.7236 -1.2475  1.0614
  142DOPC  C21516837   1.168   0.914   0.446 -0.2926 -0.2274 -0.9768
  142DOPC  H15R16838   1.132   0.952   0.348 -0.3833  0.1639 -0.7926
  142DOPC  H15S16839   1.121   0.814   0.464 -0.3893  0.2522  1.9131
  142DOPC  C21616840   1.318   0.907   0.444 -0.3220 -0.4219 -0.9637
  142DOPC  H16R16841   1.362   0.871   0.540  0.9272  0.6144 -1.1115
  142DOPC  H16S16842   1.371   1.005   0.439 -0.7912 -0.1689 -0.9866
  142DOPC  C21716843   1.366   0.831   0.317 -0.3935 -0.0661 -0.8842
  142DOPC  H17R16844   1.307   0.880   0.237 -0.1680 -1.5301 -1.9989
  142DOPC  H17S16845   1.323   0.729   0.316 -0.8405  0.1198 -1.8060
  142DOPC  C21816846   1.515   0.848   0.285  0.1507 -0.3958 -0.3666
  142DOPC  H18R16847   1.579   0.838   0.375  2.4842  0.8964 -1.7678
  142DOPC  H18S16848   1.529   0.949   0.239 -1.5742 -1.2112 -2.8606
  142DOPC  H18T16849   1.554   0.770   0.216  2.6257 -0.1049  0.6023
  142DOPC   C3316850   0.531   1.032   1.802 -0.4307  0.0701 -0.0362
  142DOPC   H3X16851   0.430   0.992   1.828  0.3926 -1.5371  0.8534
  142DOPC   H3Y16852   0.593   0.942   1.783  0.4315  0.2798  1.5274
  142DOPC   C3416853   0.506   1.119   1.682 -0.8321  0.3418 -0.1666
  142DOPC   H4X16854   0.608   1.129   1.637  0.9883  0.4020  3.5433
  142DOPC   H4Y16855   0.470   1.220   1.709 -1.1667 -0.0226  0.7757
  142DOPC   C3516856   0.415   1.060   1.574 -0.2970  0.1044  0.1328
  142DOPC   H5X16857   0.310   1.083   1.604 -0.1470  2.0824 -0.7386
  142DOPC   H5Y16858   0.439   0.952   1.567  2.2857  0.4577  2.1482
  142DOPC   C3616859   0.432   1.132   1.439 -0.1829  0.1868 -0.1397
  142DOPC   H6X16860   0.336   1.128   1.383  0.0559 -0.5417 -0.5049
  142DOPC   H6Y16861   0.444   1.242   1.456 -1.1539  0.1789  0.7448
  142DOPC   C3716862   0.552   1.077   1.358  0.1087 -0.3794  0.1013
  142DOPC   H7X16863   0.640   1.090   1.426 -0.8630 -1.7171  1.7087
  142DOPC   H7Y16864   0.546   0.969   1.331 -0.3841 -0.4665  0.5488
  142DOPC   C3816865   0.588   1.163   1.233 -0.0177 -0.0860 -0.4614
  142DOPC   H8X16866   0.694   1.149   1.205 -0.5398 -0.9143 -2.1457
  142DOPC   H8Y16867   0.586   1.270   1.260  2.9499  0.4464 -1.9902
  142DOPC   C3916868   0.495   1.133   1.114  0.3632  0.1307 -0.4075
  142DOPC   H9X16869   0.403   1.192   1.122  1.6871  2.2031  0.1384
  142DOPC  C31016870   0.506   1.037   1.026 -0.2230  0.1006  0.5056
  142DOPC  H10X16871   0.439   1.026   0.939  1.1093 -0.1125 -0.5326
  142DOPC  C31116872   0.625   0.947   1.013  0.1305 -0.4878 -0.3459
  142DOPC  H11X16873   0.602   0.841   1.039  0.0912  0.0107  1.8465
  142DOPC  H11Y16874   0.712   0.984   1.070  0.1680  0.8945 -1.2554
  142DOPC  C31216875   0.681   0.940   0.868  0.3145  0.2549 -0.1150
  142DOPC  H12X16876   0.776   0.881   0.872  0.2152  0.0188 -1.0201
  142DOPC  H12Y16877   0.706   1.044   0.841  1.2413 -0.0365 -0.4299
  142DOPC  C31316878   0.595   0.869   0.768  0.7155  0.5227  0.0949
  142DOPC  H13X16879   0.574   0.765   0.801  0.8349  0.4886  0.0670
  142DOPC  H13Y16880   0.498   0.922   0.775  0.4654 -0.0953  1.4642
  142DOPC  C31416881   0.662   0.857   0.626 -0.5286 -0.8341 -0.0287
  142DOPC  H14X16882   0.699   0.955   0.589  1.4156 -1.2614  0.6666
  142DOPC  H14Y16883   0.746   0.784   0.624  0.1497 -0.0723  0.1840
  142DOPC  C31516884   0.563   0.809   0.518 -0.5122 -0.2067  0.4052
  142DOPC  H15X16885   0.495   0.893   0.494 -2.2567 -1.0650  2.1007
  142DOPC  H15Y16886   0.511   0.716   0.550 -1.0249  0.2468  0.9089
  142DOPC  C31616887   0.643   0.770   0.389  0.2551 -0.2002  0.4171
  142DOPC  H16X16888   0.703   0.859   0.361 -0.3779 -1.0503 -4.4101
  142DOPC  H16Y16889   0.699   0.677   0.409  0.2318 -0.0475  1.2514
  142DOPC  C31716890   0.551   0.746   0.266  0.6802 -0.0946 -0.2559
  142DOPC  H17X16891   0.473   0.667   0.274  0.0043  0.6073  0.3000
  142DOPC  H17Y16892   0.489   0.837   0.253 -0.3796 -0.5356  1.3250
  142DOPC  C31816893   0.630   0.724   0.135 -0.0388  0.2006 -0.0132
  142DOPC  H18X16894   0.694   0.633   0.144 -0.3218  0.0396  0.4412
  142DOPC  H18Y16895   0.549   0.706   0.062 -0.1735 -0.1558  0.2197
  142DOPC  H18Z16896   0.695   0.811   0.111 -2.4971  2.2837  0.4366
  143DOPC     N16897  -1.478  -0.706   2.227  0.6949 -0.4866 -0.2850
  143DOPC   C1216898  -1.439  -0.599   2.126  0.3028 -0.1178  0.6460
  143DOPC  H12A16899  -1.414  -0.649   2.034 -0.2738 -0.9875  0.9473
  143DOPC  H12B16900  -1.346  -0.559   2.164 -0.0589 -1.3703  3.0775
  143DOPC   C1316901  -1.615  -0.754   2.210  0.5254  0.2349  0.2954
  143DOPC  H13A16902  -1.627  -0.792   2.110  1.1228 -0.1098  0.3490
  143DOPC  H13B16903  -1.634  -0.837   2.276 -1.5089 -0.7318 -1.3686
  143DOPC  H13C16904  -1.682  -0.670   2.225  2.1100  1.2740  1.9703
  143DOPC   C1416905  -1.475  -0.658   2.372  0.6094  0.6482 -0.2652
  143DOPC  H14A16906  -1.374  -0.622   2.386  0.9357 -0.1778 -0.3905
  143DOPC  H14B16907  -1.557  -0.589   2.383 -2.4598 -2.8263  0.9887
  143DOPC  H14C16908  -1.495  -0.748   2.428 -1.5627  1.1031 -0.2443
  143DOPC   C1516909  -1.390  -0.818   2.216 -0.2474 -0.0045 -0.0092
  143DOPC  H15A16910  -1.401  -0.863   2.119  1.3888 -0.2274 -0.1133
  143DOPC  H15B16911  -1.409  -0.893   2.292 -1.1672 -0.9436 -1.1348
  143DOPC  H15C16912  -1.286  -0.789   2.221 -0.1994 -0.2103  0.1875
  143DOPC   C1116913  -1.545  -0.488   2.103 -0.5777  0.6148 -0.0163
  143DOPC  H11A16914  -1.503  -0.433   2.015 -0.1773  1.2809  0.5831
  143DOPC  H11B16915  -1.645  -0.517   2.064  0.1521  1.0573 -2.3700
  143DOPC     P16916  -1.681  -0.366   2.304  0.0630  0.7223 -0.1650
  143DOPC   O1316917  -1.628  -0.337   2.440 -0.0638 -0.3899 -0.2955
  143DOPC   O1416918  -1.769  -0.483   2.298 -0.0176 -0.2261  0.0288
  143DOPC   O1216919  -1.550  -0.394   2.216  0.0739  0.4790  0.3957
  143DOPC   O1116920  -1.730  -0.230   2.246  0.5901 -0.4478  0.0098
  143DOPC    C116921  -1.647  -0.136   2.191 -0.1803 -0.4248  0.0020
  143DOPC    HA16922  -1.538  -0.156   2.193 -0.3102 -1.1794 -0.3146
  143DOPC    HB16923  -1.654  -0.038   2.243  2.4212 -0.4955  0.6131
  143DOPC    C216924  -1.682  -0.102   2.045  0.2610 -0.2341  0.1265
  143DOPC    HS16925  -1.779  -0.050   2.033  0.2729 -0.3146 -0.3607
  143DOPC   O2116926  -1.687  -0.218   1.967  0.5548  0.3158 -1.1125
  143DOPC   C2116927  -1.808  -0.259   1.924 -0.6003  0.1420 -0.2901
  143DOPC   O2216928  -1.916  -0.204   1.946 -0.3702  0.4806  0.2617
  143DOPC   C2216929  -1.796  -0.394   1.852  0.2854 -0.2730  0.0491
  143DOPC   H2R16930  -1.831  -0.466   1.930  0.0952 -0.0271  0.1943
  143DOPC   H2S16931  -1.694  -0.427   1.825  1.4818  1.0356  2.6420
  143DOPC    C316932  -1.569  -0.015   1.986 -0.1076  0.6129  0.3697
  143DOPC    HX16933  -1.473  -0.071   1.992 -0.5022  0.0763  3.4750
  143DOPC    HY16934  -1.569   0.072   2.055 -0.1587  1.3796 -0.5741
  143DOPC   O3116935  -1.595   0.019   1.849  0.4723  0.5885 -0.0641
  143DOPC   C3116936  -1.531   0.126   1.810 -0.1863  0.2231  0.2437
  143DOPC   O3216937  -1.460   0.193   1.884 -0.2665  0.3812  0.4262
  143DOPC   C3216938  -1.551   0.150   1.664 -0.5949 -0.6120 -0.7423
  143DOPC   H2X16939  -1.502   0.249   1.652 -0.5341 -0.2994  1.6269
  143DOPC   H2Y16940  -1.491   0.072   1.614 -1.0694 -1.3136 -0.2414
  143DOPC   C2316941  -1.897  -0.413   1.734  0.1012 -0.1516  1.0314
  143DOPC   H3R16942  -1.988  -0.349   1.738  1.9033  3.0176 -2.8001
  143DOPC   H3S16943  -1.929  -0.519   1.719  0.0731  0.0780 -0.6103
  143DOPC   C2416944  -1.831  -0.386   1.604 -0.2337 -0.4111  0.3882
  143DOPC   H4R16945  -1.736  -0.444   1.598  0.2873  0.5320 -0.7816
  143DOPC   H4S16946  -1.813  -0.278   1.591 -0.7612 -0.5535 -2.0274
  143DOPC   C2516947  -1.924  -0.438   1.488 -0.1635 -0.1460 -0.7286
  143DOPC   H5R16948  -2.013  -0.373   1.505 -0.3745 -0.3218 -1.1416
  143DOPC   H5S16949  -1.939  -0.547   1.495  0.7969 -0.1730  1.6832
  143DOPC   C2616950  -1.856  -0.413   1.352  0.7990  0.4467  0.2814
  143DOPC   H6R16951  -1.796  -0.504   1.336  0.1891  0.4135 -2.0909
  143DOPC   H6S16952  -1.795  -0.320   1.351  1.1294  0.2713 -2.4558
  143DOPC   C2716953  -1.956  -0.401   1.229 -0.4232 -0.3940 -0.1547
  143DOPC   H7R16954  -2.022  -0.312   1.239 -0.3273 -0.3282 -0.1006
  143DOPC   H7S16955  -2.028  -0.485   1.236 -2.0823  1.0401  0.6715
  143DOPC   C2816956  -1.898  -0.392   1.088  0.2285 -0.1577 -0.2248
  143DOPC   H8R16957  -1.987  -0.413   1.025 -0.0237 -1.2919  0.4749
  143DOPC   H8S16958  -1.828  -0.478   1.079 -0.8801 -1.5272  2.8339
  143DOPC   C2916959  -1.826  -0.261   1.053  0.4721 -0.0415 -0.0036
  143DOPC   H9R16960  -1.719  -0.272   1.075  0.4224 -0.5673 -0.0100
  143DOPC  C21016961  -1.879  -0.154   0.999 -0.0609 -0.4569  0.4979
  143DOPC  H10R16962  -1.821  -0.063   0.976 -0.2857 -0.6393 -0.9032
  143DOPC  C21116963  -2.022  -0.148   0.944  0.2405 -0.1395  0.3083
  143DOPC  H11R16964  -2.072  -0.063   0.995 -1.0738 -0.9761  0.4638
  143DOPC  H11S16965  -2.082  -0.239   0.964  0.8150 -0.4344  0.7473
  143DOPC  C21216966  -2.027  -0.116   0.794  0.8783  0.2583 -0.5206
  143DOPC  H12R16967  -1.975  -0.193   0.733  1.7174 -1.0853  1.7796
  143DOPC  H12S16968  -1.974  -0.021   0.775  0.7943  0.4908  0.3528
  143DOPC  C21316969  -2.173  -0.116   0.752  0.4039 -0.4001 -0.6067
  143DOPC  H13R16970  -2.233  -0.030   0.789  1.8213  0.6700 -0.6679
  143DOPC  H13S16971  -2.216  -0.210   0.791 -1.0569  1.0684  1.5116
  143DOPC  C21416972  -2.199  -0.113   0.601  0.1776 -0.4489 -0.2268
  143DOPC  H14R16973  -2.140  -0.028   0.560  0.3764  0.4928  1.8331
  143DOPC  H14S16974  -2.307  -0.091   0.584 -0.2436 -2.1258  0.1744
  143DOPC  C21516975  -2.161  -0.244   0.525  0.1350  0.5902 -0.0460
  143DOPC  H15R16976  -2.208  -0.338   0.562  1.9671 -0.9851 -1.4866
  143DOPC  H15S16977  -2.051  -0.252   0.517  0.2670 -0.6828  2.1734
  143DOPC  C21616978  -2.210  -0.230   0.374 -0.1213 -0.3180 -1.1218
  143DOPC  H16R16979  -2.160  -0.140   0.331 -3.7259  1.7643 -1.3654
  143DOPC  H16S16980  -2.312  -0.189   0.381  0.2535  0.2792  1.8686
  143DOPC  C21716981  -2.187  -0.360   0.297 -0.1026 -0.0561 -0.2212
  143DOPC  H17R16982  -2.257  -0.443   0.323 -1.1732 -0.3635 -3.6460
  143DOPC  H17S16983  -2.088  -0.391   0.336 -0.4933 -0.4784  0.4546
  143DOPC  C21816984  -2.184  -0.336   0.149 -0.0693 -0.4247  0.3431
  143DOPC  H18R16985  -2.129  -0.243   0.128  0.1578 -0.6085  0.1258
  143DOPC  H18S16986  -2.285  -0.324   0.104 -0.1201 -0.1635  0.5219
  143DOPC  H18T16987  -2.133  -0.421   0.099 -2.2652 -1.0083 -1.0433
  143DOPC   C3316988  -1.700   0.155   1.622 -0.9190 -0.2432 -0.6025
  143DOPC   H3X16989  -1.750   0.239   1.674 -0.0341  0.5678 -1.0427
  143DOPC   H3Y16990  -1.753   0.065   1.659 -0.8879  0.7266  1.9628
  143DOPC   C3416991  -1.722   0.157   1.471  0.3053 -0.6843  0.2363
  143DOPC   H4X16992  -1.671   0.247   1.430 -0.0041 -0.6798 -0.1489
  143DOPC   H4Y16993  -1.830   0.178   1.458  0.0978 -0.9286  1.5144
  143DOPC   C3516994  -1.686   0.028   1.400  0.0311  0.3983 -0.5543
  143DOPC   H5X16995  -1.743  -0.060   1.437 -0.9698  0.2254 -2.4067
  143DOPC   H5Y16996  -1.578   0.014   1.422  0.0773  1.1531 -0.2889
  143DOPC   C3616997  -1.697   0.027   1.246  0.3786  0.3026 -0.6608
  143DOPC   H6X16998  -1.646  -0.066   1.215 -0.0829  0.1280 -0.8975
  143DOPC   H6Y16999  -1.803   0.023   1.215 -0.3154 -1.4097  1.7042
  143DOPC   C3717000  -1.624   0.139   1.175 -0.8274 -0.2438 -0.1708
  143DOPC   H7X17001  -1.677   0.236   1.190  0.2420  0.6667 -1.8540
  143DOPC   H7Y17002  -1.523   0.145   1.221 -0.6294 -1.3253 -0.4343
  143DOPC   C3817003  -1.620   0.132   1.024 -1.0289  0.5533  1.0646
  143DOPC   H8X17004  -1.595   0.231   0.979 -0.4390  1.0355  2.4067
  143DOPC   H8Y17005  -1.721   0.123   0.978 -0.1870  0.7163 -0.9106
  143DOPC   C3917006  -1.538   0.020   0.962  0.1288 -0.1139 -0.4370
  143DOPC   H9X17007  -1.469  -0.028   1.033 -1.9789 -1.1045  1.0494
  143DOPC  C31017008  -1.539  -0.010   0.829 -0.3864 -0.2416  0.1808
  143DOPC  H10X17009  -1.465  -0.081   0.789  1.6991 -0.8997  4.5612
  143DOPC  C31117010  -1.640   0.046   0.734  0.2444  0.1595 -0.7379
  143DOPC  H11X17011  -1.588   0.112   0.662 -2.1729  2.8975 -0.1423
  143DOPC  H11Y17012  -1.720   0.108   0.779 -2.4024 -2.2772 -1.7728
  143DOPC  C31217013  -1.708  -0.067   0.656 -0.2771 -0.3426  0.4255
  143DOPC  H12X17014  -1.753  -0.136   0.730  2.5218 -1.9291  0.7995
  143DOPC  H12Y17015  -1.628  -0.130   0.610  0.6162  1.4485 -0.6038
  143DOPC  C31317016  -1.812  -0.012   0.557 -0.2529  0.0818  0.3808
  143DOPC  H13X17017  -1.900  -0.079   0.559  0.7753 -1.3626 -0.4672
  143DOPC  H13Y17018  -1.858   0.080   0.599 -0.0485 -0.7160  2.4605
  143DOPC  C31417019  -1.773   0.014   0.413  0.6390  0.3239  0.4957
  143DOPC  H14X17020  -1.684   0.081   0.399  1.3628 -0.8107 -0.5536
  143DOPC  H14Y17021  -1.740  -0.083   0.370 -1.0478  0.5288 -1.4195
  143DOPC  C31517022  -1.889   0.061   0.326 -0.5355  0.2432  0.2435
  143DOPC  H15X17023  -1.930   0.157   0.361  0.4139 -0.2113  2.8122
  143DOPC  H15Y17024  -1.975  -0.009   0.336 -1.3831  1.5061  2.2574
  143DOPC  C31617025  -1.848   0.072   0.169 -0.3857 -0.1541 -0.5167
  143DOPC  H16X17026  -1.759   0.138   0.160  1.3409 -2.1042  0.8502
  143DOPC  H16Y17027  -1.814  -0.031   0.146  0.9262  0.2008 -0.2637
  143DOPC  C31717028  -1.959   0.123   0.085  0.1636  0.4786  0.1216
  143DOPC  H17X17029  -2.056   0.079   0.120  0.8143  0.1795  1.6594
  143DOPC  H17Y17030  -1.963   0.233   0.101  0.9158  0.2774  1.8903
  143DOPC  C31817031  -1.925   0.093  -0.065  0.5451  0.6229  0.2363
  143DOPC  H18X17032  -2.011   0.129  -0.125 -0.7052  0.3367  1.7974
  143DOPC  H18Y17033  -1.832   0.136  -0.109  0.7834 -1.6452 -1.7168
  143DOPC  H18Z17034  -1.908  -0.013  -0.095  1.5944  0.5885  0.9088
  144DOPC     N17035  -1.120   1.142   2.663  0.9369  0.5541 -0.2927
  144DOPC   C1217036  -1.163   1.090   2.530 -0.5118  0.2527 -0.1410
  144DOPC  H12A17037  -1.194   1.174   2.470 -0.4832  0.5793  0.2911
  144DOPC  H12B17038  -1.251   1.030   2.548  0.2049 -1.0050 -0.7665
  144DOPC   C1317039  -1.076   1.041   2.768  0.2249  0.1660  0.4471
  144DOPC  H13A17040  -0.989   0.984   2.738  0.8474  0.7480  1.1216
  144DOPC  H13B17041  -1.050   1.093   2.858  0.3156 -1.1041  1.1767
  144DOPC  H13C17042  -1.160   0.977   2.791  1.2287 -0.7855  1.6313
  144DOPC   C1417043  -1.245   1.203   2.723  0.1347 -0.4687 -0.8335
  144DOPC  H14A17044  -1.273   1.293   2.671  0.3854  0.2141  0.1864
  144DOPC  H14B17045  -1.330   1.137   2.731  0.1624 -0.2662  3.4658
  144DOPC  H14C17046  -1.229   1.231   2.826 -0.5123 -0.0736 -0.8377
  144DOPC   C1517047  -1.018   1.248   2.642  0.3942 -0.0654 -0.4299
  144DOPC  H15A17048  -1.065   1.324   2.582  1.9651  1.0947 -0.2614
  144DOPC  H15B17049  -0.934   1.224   2.577  0.4143  1.4199 -0.9843
  144DOPC  H15C17050  -0.974   1.293   2.730 -1.0421 -0.5894  0.6037
  144DOPC   C1117051  -1.060   1.002   2.453  0.3239 -0.4163 -0.2060
  144DOPC  H11A17052  -1.102   0.976   2.353  3.1576 -1.5645 -1.1776
  144DOPC  H11B17053  -0.971   1.065   2.433  0.2995 -0.2426  0.2287
  144DOPC     P17054  -1.097   0.752   2.537  0.0008 -0.3745 -0.3680
  144DOPC   O1317055  -1.240   0.778   2.547  0.5938  0.3978 -0.1577
  144DOPC   O1417056  -1.042   0.671   2.652  0.6525 -0.5374 -0.0121
  144DOPC   O1217057  -1.017   0.891   2.531  0.5721 -0.4848  0.0721
  144DOPC   O1117058  -1.067   0.680   2.404 -0.3575  0.5622 -0.1286
  144DOPC    C117059  -0.931   0.644   2.375  0.6697 -0.0433 -0.5424
  144DOPC    HA17060  -0.909   0.545   2.421  0.2977  0.6563  1.2056
  144DOPC    HB17061  -0.864   0.720   2.421 -1.8839  1.8634  0.2041
  144DOPC    C217062  -0.897   0.646   2.219  0.1910 -0.6619 -1.1038
  144DOPC    HS17063  -0.792   0.612   2.212  0.9382  0.9445  1.1220
  144DOPC   O2117064  -0.912   0.780   2.159 -0.5640  0.4983  0.1247
  144DOPC   C2117065  -0.815   0.866   2.198  0.0231  0.4818 -0.3663
  144DOPC   O2217066  -0.720   0.834   2.266  0.0695 -0.0677 -0.2125
  144DOPC   C2217067  -0.857   1.009   2.146 -0.6918 -0.5895  0.0156
  144DOPC   H2R17068  -0.777   1.084   2.164  1.2059 -2.0936 -1.6215
  144DOPC   H2S17069  -0.948   1.046   2.197  0.8761  3.5190  0.2824
  144DOPC    C317070  -0.996   0.554   2.150  0.7294 -0.1205  0.2467
  144DOPC    HX17071  -1.102   0.581   2.173  0.9187  0.4372  0.4986
  144DOPC    HY17072  -0.985   0.449   2.182  1.4221 -0.6013 -1.4588
  144DOPC   O3117073  -0.971   0.547   2.002  0.4936 -0.2298 -0.6118
  144DOPC   C3117074  -1.060   0.612   1.926 -0.2841 -0.2313 -0.2107
  144DOPC   O3217075  -1.147   0.686   1.965 -0.3566  0.1289 -0.4027
  144DOPC   C3217076  -1.020   0.604   1.781 -0.5355  0.3154  0.1035
  144DOPC   H2X17077  -1.058   0.696   1.732 -0.4766  0.1234 -0.3117
  144DOPC   H2Y17078  -0.909   0.606   1.776 -0.5015 -1.1870 -0.2653
  144DOPC   C2317079  -0.893   0.995   1.999 -0.1660 -0.6555  0.1372
  144DOPC   H3R17080  -0.907   1.100   1.968 -0.2747 -0.9746 -0.9300
  144DOPC   H3S17081  -0.985   0.942   1.967 -0.2479 -0.7605  0.5465
  144DOPC   C2417082  -0.768   0.948   1.916  0.0159  0.1682  0.5215
  144DOPC   H4R17083  -0.736   0.847   1.950 -1.6557  0.0404  1.8368
  144DOPC   H4S17084  -0.683   1.019   1.916  0.4214 -0.3053  0.9092
  144DOPC   C2517085  -0.796   0.932   1.772  0.0519  0.2700  0.3776
  144DOPC   H5R17086  -0.833   1.031   1.737  1.0563  0.7325  0.5904
  144DOPC   H5S17087  -0.864   0.845   1.760  0.6561  0.0290 -1.8450
  144DOPC   C2617088  -0.670   0.886   1.693 -0.8359  0.7464  0.8234
  144DOPC   H6R17089  -0.657   0.776   1.706  0.8177  0.6267 -1.1894
  144DOPC   H6S17090  -0.583   0.937   1.741 -1.1592  1.9508  0.1663
  144DOPC   C2717091  -0.656   0.938   1.545 -0.1247  0.1981  0.0355
  144DOPC   H7R17092  -0.557   0.911   1.503  0.0262 -2.0930  1.6427
  144DOPC   H7S17093  -0.661   1.046   1.571 -2.3668 -0.3671  2.4325
  144DOPC   C2817094  -0.761   0.886   1.451 -0.3153  0.0632 -1.0976
  144DOPC   H8R17095  -0.739   0.912   1.345  0.9658  2.0797 -0.4002
  144DOPC   H8S17096  -0.850   0.949   1.474  0.7487  0.5466  2.1540
  144DOPC   C2917097  -0.771   0.742   1.467  0.4517  0.4541  0.4221
  144DOPC   H9R17098  -0.844   0.707   1.542 -1.3849  1.2507 -0.9147
  144DOPC  C21017099  -0.723   0.651   1.383  0.5389  0.0737  0.2940
  144DOPC  H10R17100  -0.759   0.549   1.401  0.4478  0.6162  3.8325
  144DOPC  C21117101  -0.642   0.676   1.259 -0.1202  0.1710 -0.5613
  144DOPC  H11R17102  -0.576   0.587   1.257 -0.7059 -0.3658  1.4951
  144DOPC  H11S17103  -0.575   0.761   1.284 -0.7019  0.8420 -1.2375
  144DOPC  C21217104  -0.723   0.693   1.130  0.5026 -0.5072  0.2974
  144DOPC  H12R17105  -0.811   0.760   1.137  1.6227  0.9269  1.2605
  144DOPC  H12S17106  -0.758   0.590   1.106 -1.1325 -1.0194  4.1348
  144DOPC  C21317107  -0.639   0.762   1.019  0.1747  0.7339  0.0364
  144DOPC  H13R17108  -0.540   0.716   1.002  1.1518  2.1104  1.7333
  144DOPC  H13S17109  -0.624   0.864   1.059 -1.4898  1.1235 -0.2515
  144DOPC  C21417110  -0.713   0.778   0.887  0.1286 -0.5109 -1.2689
  144DOPC  H14R17111  -0.807   0.833   0.912  0.0676 -1.3196  0.4090
  144DOPC  H14S17112  -0.730   0.679   0.840  1.3264 -2.3605  1.8638
  144DOPC  C21517113  -0.625   0.869   0.787  0.2320  0.9187  0.1226
  144DOPC  H15R17114  -0.531   0.812   0.775 -0.1644  0.3010 -0.0765
  144DOPC  H15S17115  -0.604   0.966   0.838  0.2878  0.7538  0.4128
  144DOPC  C21617116  -0.693   0.889   0.658  0.1739 -0.5640 -0.0164
  144DOPC  H16R17117  -0.633   0.958   0.595 -0.7284 -0.8269 -1.1858
  144DOPC  H16S17118  -0.797   0.927   0.661  0.6318  0.9075 -1.5164
  144DOPC  C21717119  -0.691   0.761   0.564  0.3825  0.2603 -0.0067
  144DOPC  H17R17120  -0.766   0.686   0.597  0.0342  0.6521  0.1021
  144DOPC  H17S17121  -0.595   0.706   0.574 -1.2856 -2.8671  0.1997
  144DOPC  C21817122  -0.711   0.791   0.419 -0.1656  0.2499 -0.4483
  144DOPC  H18R17123  -0.651   0.878   0.384  0.3855  0.6754  1.4220
  144DOPC  H18S17124  -0.819   0.799   0.397 -1.4950 -0.4020  4.5876
  144DOPC  H18T17125  -0.676   0.703   0.361  2.5842  0.6589  0.4352
  144DOPC   C3317126  -1.077   0.480   1.699 -1.0489 -0.2378  0.3345
  144DOPC   H3X17127  -1.187   0.469   1.711 -1.1444 -0.7488 -0.8977
  144DOPC   H3Y17128  -1.023   0.391   1.739  1.8400  2.0587  1.9491
  144DOPC   C3417129  -1.039   0.494   1.551 -0.0073 -0.4477 -0.2255
  144DOPC   H4X17130  -0.928   0.499   1.545  0.0434  1.2605  1.4184
  144DOPC   H4Y17131  -1.073   0.592   1.512  1.6295  0.1784 -0.1618
  144DOPC   C3517132  -1.099   0.388   1.464  0.3320  0.1602 -0.5825
  144DOPC   H5X17133  -1.202   0.372   1.500  1.4680 -1.8837  2.0961
  144DOPC   H5Y17134  -1.043   0.295   1.486 -1.2673 -0.7217 -0.1291
  144DOPC   C3617135  -1.116   0.418   1.308  0.2231  0.1718  0.1794
  144DOPC   H6X17136  -1.190   0.501   1.299 -1.9743 -1.8544 -1.9944
  144DOPC   H6Y17137  -1.017   0.448   1.268  1.0916 -2.0386  0.5574
  144DOPC   C3717138  -1.173   0.302   1.232  0.4621  0.2115  0.6432
  144DOPC   H7X17139  -1.096   0.222   1.234 -0.2643 -0.4863  2.2380
  144DOPC   H7Y17140  -1.256   0.275   1.300 -0.8121  2.9213  0.3198
  144DOPC   C3817141  -1.205   0.350   1.093  0.4511 -0.5535 -0.1409
  144DOPC   H8X17142  -1.110   0.390   1.052 -1.6100  4.4203 -0.8319
  144DOPC   H8Y17143  -1.266   0.443   1.100 -0.2128 -1.0408  0.8352
  144DOPC   C3917144  -1.271   0.235   1.017  0.3287  0.6009  0.5790
  144DOPC   H9X17145  -1.379   0.232   1.039  0.5268  1.6318  1.7673
  144DOPC  C31017146  -1.215   0.174   0.910 -0.0555  0.5778 -1.1753
  144DOPC  H10X17147  -1.286   0.117   0.848  0.1562 -1.5818  0.4597
  144DOPC  C31117148  -1.070   0.170   0.860  1.0137 -0.4442 -0.2387
  144DOPC  H11X17149  -1.051   0.066   0.828 -2.3786 -0.9417 -0.9269
  144DOPC  H11Y17150  -0.999   0.177   0.945 -0.6730 -0.8262  1.2569
  144DOPC  C31217151  -1.035   0.244   0.730  0.2115  1.1024 -0.6704
  144DOPC  H12X17152  -0.935   0.214   0.692 -0.1494 -1.5599  0.3012
  144DOPC  H12Y17153  -1.016   0.352   0.747  1.7717  0.6938  0.3492
  144DOPC  C31317154  -1.150   0.232   0.625 -0.2564 -0.4279  0.4690
  144DOPC  H13X17155  -1.244   0.279   0.659  0.1875  2.1766 -1.5340
  144DOPC  H13Y17156  -1.121   0.291   0.535 -0.4332  0.1242  0.7693
  144DOPC  C31417157  -1.176   0.093   0.572 -0.6006  0.3157 -0.3320
  144DOPC  H14X17158  -1.082   0.040   0.546  0.3635  1.9376 -0.2792
  144DOPC  H14Y17159  -1.223   0.028   0.650 -0.4396  0.2122 -0.3209
  144DOPC  C31517160  -1.271   0.085   0.448  0.3815 -0.1686 -0.1673
  144DOPC  H15X17161  -1.217   0.133   0.364  1.2261 -0.7514  0.0299
  144DOPC  H15Y17162  -1.357   0.149   0.478  0.9231  0.3478  0.3184
  144DOPC  C31617163  -1.322  -0.054   0.406  0.2593  0.9866  0.4775
  144DOPC  H16X17164  -1.227  -0.101   0.373 -1.1061 -0.8703 -0.9862
  144DOPC  H16Y17165  -1.361  -0.122   0.485 -1.2624  2.2702  0.8878
  144DOPC  C31717166  -1.416  -0.060   0.282 -0.1473  0.6121 -0.1628
  144DOPC  H17X17167  -1.446  -0.164   0.256  2.1991  0.1581 -1.3358
  144DOPC  H17Y17168  -1.510  -0.002   0.299 -0.1312  0.2919  1.1558
  144DOPC  C31817169  -1.337  -0.000   0.160 -0.5616 -0.0097  0.0930
  144DOPC  H18X17170  -1.395  -0.028   0.070  1.5600 -1.1010 -0.9917
  144DOPC  H18Y17171  -1.332   0.111   0.161 -2.1816  0.1081 -0.8782
  144DOPC  H18Z17172  -1.238  -0.051   0.157 -0.9690 -0.9144  1.1075
  145DOPC     N17173  -0.558   2.855   2.555  0.0684  0.2889 -0.3353
  145DOPC   C1217174  -0.657   2.739   2.533 -0.1219 -0.0823 -0.3941
  145DOPC  H12A17175  -0.751   2.776   2.496  0.1227  1.1541  0.1830
  145DOPC  H12B17176  -0.681   2.690   2.627 -0.6208 -2.2346 -1.5619
  145DOPC   C1317177  -0.507   2.916   2.428  0.5221  0.8448  0.0423
  145DOPC  H13A17178  -0.479   2.843   2.354 -2.3619 -3.2587  2.5285
  145DOPC  H13B17179  -0.591   2.968   2.385  1.3095  0.8156 -1.5945
  145DOPC  H13C17180  -0.417   2.976   2.436  2.1674 -1.4310 -0.5187
  145DOPC   C1417181  -0.442   2.813   2.641  0.2720 -0.1975 -0.0465
  145DOPC  H14A17182  -0.399   2.910   2.660 -1.4550  0.5849  0.0575
  145DOPC  H14B17183  -0.474   2.766   2.733 -1.7454  0.1207 -0.5451
  145DOPC  H14C17184  -0.374   2.749   2.586 -0.1841 -0.9495  0.2413
  145DOPC   C1517185  -0.635   2.963   2.622  0.6524  0.3542 -0.1257
  145DOPC  H15A17186  -0.668   2.942   2.723  0.5040  2.1331  0.2216
  145DOPC  H15B17187  -0.711   3.010   2.562  1.3310  2.6584  0.7100
  145DOPC  H15C17188  -0.560   3.040   2.633  1.1736 -0.2886  1.0428
  145DOPC   C1117189  -0.615   2.627   2.441  0.0820 -0.4279 -0.1492
  145DOPC  H11A17190  -0.705   2.569   2.411  0.5609 -0.6557 -1.1939
  145DOPC  H11B17191  -0.577   2.668   2.345 -0.1738  0.9362  0.3123
  145DOPC     P17192  -0.560   2.445   2.614 -0.0232 -0.1966 -0.4281
  145DOPC   O1317193  -0.684   2.493   2.685 -0.7300  0.2554 -0.4938
  145DOPC   O1417194  -0.444   2.416   2.700  0.0659  0.3933  0.3127
  145DOPC   O1217195  -0.507   2.542   2.499  0.8293 -0.0517 -0.4339
  145DOPC   O1117196  -0.600   2.309   2.546 -0.3569 -0.5553 -0.3012
  145DOPC    C117197  -0.504   2.252   2.450  0.3815 -0.1871 -0.1483
  145DOPC    HA17198  -0.510   2.142   2.464 -0.5951 -0.1618 -0.3157
  145DOPC    HB17199  -0.398   2.277   2.473  0.3053 -1.3015  1.6067
  145DOPC    C217200  -0.546   2.295   2.307  0.2969 -0.1749  0.4571
  145DOPC    HS17201  -0.543   2.406   2.303  2.1535 -0.1755  0.7090
  145DOPC   O2117202  -0.674   2.242   2.274  0.1590 -0.1698  0.1261
  145DOPC   C2117203  -0.769   2.326   2.233  0.4012  0.3149  0.4413
  145DOPC   O2217204  -0.756   2.446   2.201  0.8912  0.0046 -0.0358
  145DOPC   C2217205  -0.907   2.255   2.230 -0.1355 -0.4155  0.1898
  145DOPC   H2R17206  -0.975   2.324   2.283 -1.7641 -0.9397 -1.1105
  145DOPC   H2S17207  -0.905   2.154   2.277  0.5641 -0.2830  0.4625
  145DOPC    C317208  -0.441   2.250   2.201  0.7233 -0.4014 -0.1123
  145DOPC    HX17209  -0.421   2.141   2.210 -0.4298 -0.6248 -0.1136
  145DOPC    HY17210  -0.354   2.310   2.234  0.7079 -1.0611  1.2021
  145DOPC   O3117211  -0.492   2.267   2.060 -0.3545  0.4068 -0.2160
  145DOPC   C3117212  -0.448   2.374   2.007 -0.7979 -0.4878 -0.5575
  145DOPC   O3217213  -0.400   2.468   2.066  0.2809 -0.3467 -0.6044
  145DOPC   C3217214  -0.464   2.364   1.855  0.4588  0.3742 -0.2584
  145DOPC   H2X17215  -0.423   2.269   1.815 -0.0021  0.3925 -0.7781
  145DOPC   H2Y17216  -0.571   2.367   1.826 -0.1909 -0.3820  1.8317
  145DOPC   C2317217  -0.943   2.255   2.078 -0.0206  0.2820  0.1796
  145DOPC   H3R17218  -0.937   2.362   2.048  1.9560  1.0931  3.0406
  145DOPC   H3S17219  -1.049   2.224   2.063  0.3335 -0.3531 -1.2174
  145DOPC   C2417220  -0.867   2.151   1.996  0.1021  0.1757  0.1820
  145DOPC   H4R17221  -0.877   2.058   2.056  1.0406  0.7867  1.3064
  145DOPC   H4S17222  -0.759   2.175   1.988  0.2086 -0.2374  0.3627
  145DOPC   C2517223  -0.912   2.135   1.848 -0.4634  0.6099 -0.0001
  145DOPC   H5R17224  -1.014   2.091   1.848 -0.2209 -0.0251  1.8556
  145DOPC   H5S17225  -0.843   2.063   1.800  0.1506  2.2309 -1.6483
  145DOPC   C2617226  -0.910   2.267   1.771 -0.0364  0.1790  0.4684
  145DOPC   H6R17227  -0.808   2.309   1.761  1.0761 -2.2048  1.0402
  145DOPC   H6S17228  -0.952   2.349   1.833  1.9305  1.4498  0.2035
  145DOPC   C2717229  -0.971   2.268   1.629  0.4526  1.1779  0.3862
  145DOPC   H7R17230  -1.041   2.182   1.633  0.8677  0.8974  2.2037
  145DOPC   H7S17231  -0.901   2.247   1.544 -3.1043 -0.1056 -2.4784
  145DOPC   C2817232  -1.045   2.398   1.605  0.3216 -0.4839  0.3470
  145DOPC   H8R17233  -1.120   2.414   1.686  0.7380 -0.0087  0.6434
  145DOPC   H8S17234  -1.111   2.379   1.517 -1.2553  1.3162  1.0527
  145DOPC   C2917235  -0.960   2.519   1.587  0.3696 -0.9072 -0.7755
  145DOPC   H9R17236  -0.916   2.549   1.684 -1.2809 -0.5253 -0.1141
  145DOPC  C21017237  -0.945   2.600   1.481 -0.4238  0.2567  0.1290
  145DOPC  H10R17238  -0.875   2.684   1.476 -0.1111 -0.0533 -1.3355
  145DOPC  C21117239  -1.019   2.581   1.349  0.3211 -0.4350 -0.2064
  145DOPC  H11R17240  -1.109   2.645   1.353  0.4218 -0.3391  0.8850
  145DOPC  H11S17241  -1.047   2.473   1.343  2.9006 -1.3152  1.6958
  145DOPC  C21217242  -0.939   2.614   1.218  0.5449  0.6161 -0.5714
  145DOPC  H12R17243  -0.856   2.540   1.215 -0.6412 -0.8410  0.7692
  145DOPC  H12S17244  -0.882   2.709   1.214 -1.0154  1.6792  1.2957
  145DOPC  C21317245  -1.027   2.601   1.096 -0.0462 -0.2253 -0.0208
  145DOPC  H13R17246  -1.085   2.695   1.084 -1.9386 -1.1108  1.7064
  145DOPC  H13S17247  -1.097   2.517   1.113  1.2867 -1.2534  0.6388
  145DOPC  C21417248  -0.944   2.560   0.976  0.5938 -0.3261 -0.8630
  145DOPC  H14R17249  -0.900   2.461   1.002 -0.3282 -0.7015 -0.7030
  145DOPC  H14S17250  -0.858   2.628   0.961  1.3040 -1.1830 -0.7445
  145DOPC  C21517251  -1.020   2.558   0.844 -0.6249 -0.1100  0.3621
  145DOPC  H15R17252  -1.128   2.582   0.856 -0.7263 -1.2848  2.1158
  145DOPC  H15S17253  -1.013   2.455   0.801  0.5030  0.1753 -0.1800
  145DOPC  C21617254  -0.956   2.651   0.734  0.3918 -0.4680 -0.6633
  145DOPC  H16R17255  -0.850   2.620   0.725  1.1813  1.8831 -0.1678
  145DOPC  H16S17256  -0.966   2.759   0.757  1.0104 -0.2519 -1.3605
  145DOPC  C21717257  -1.040   2.626   0.608 -0.3032 -0.5342  0.2414
  145DOPC  H17R17258  -1.146   2.659   0.613  0.3212  2.1606 -1.7459
  145DOPC  H17S17259  -1.050   2.518   0.586  1.1521 -0.1333 -3.0930
  145DOPC  C21817260  -0.973   2.704   0.493  0.1579  0.2780 -0.0329
  145DOPC  H18R17261  -1.008   2.663   0.396  0.2988 -0.1530  0.0990
  145DOPC  H18S17262  -0.863   2.695   0.487  0.2364  0.2092  1.1700
  145DOPC  H18T17263  -0.997   2.813   0.497 -0.3676  0.1874 -0.5664
  145DOPC   C3317264  -0.420   2.480   1.762 -0.1314  0.3966 -0.2302
  145DOPC   H3X17265  -0.315   2.507   1.785  0.5641 -0.5464 -2.0916
  145DOPC   H3Y17266  -0.485   2.570   1.758 -1.6326 -0.6881 -2.5595
  145DOPC   C3417267  -0.412   2.432   1.614 -0.2420 -0.1944  0.4182
  145DOPC   H4X17268  -0.364   2.332   1.606 -0.0257 -0.1667  1.2980
  145DOPC   H4Y17269  -0.351   2.502   1.553 -0.9858 -0.2905 -0.4678
  145DOPC   C3517270  -0.553   2.413   1.558 -0.1525 -0.3331  0.0375
  145DOPC   H5X17271  -0.597   2.513   1.579  0.0247 -0.1514 -0.4305
  145DOPC   H5Y17272  -0.616   2.350   1.624 -0.8357  0.7476  0.4463
  145DOPC   C3617273  -0.561   2.368   1.413  0.2038 -0.2501 -0.0462
  145DOPC   H6X17274  -0.540   2.258   1.416 -1.4344 -0.5596  2.1725
  145DOPC   H6Y17275  -0.665   2.383   1.377 -0.0068 -0.7251  0.3506
  145DOPC   C3717276  -0.462   2.436   1.314  0.2395 -0.3081  0.3095
  145DOPC   H7X17277  -0.470   2.546   1.308  2.4298 -0.0912  0.5472
  145DOPC   H7Y17278  -0.355   2.425   1.343  0.4287 -2.0049 -0.8798
  145DOPC   C3817279  -0.463   2.370   1.172  0.3744 -0.0686 -0.4381
  145DOPC   H8X17280  -0.450   2.261   1.188 -0.3810 -0.1847 -0.5906
  145DOPC   H8Y17281  -0.375   2.404   1.113 -0.6097  2.2973 -0.6531
  145DOPC   C3917282  -0.590   2.391   1.091 -0.0623 -0.0494 -0.5415
  145DOPC   H9X17283  -0.672   2.433   1.150  2.0877  3.0239  0.4690
  145DOPC  C31017284  -0.612   2.367   0.962 -0.1734  0.7031  0.9360
  145DOPC  H10X17285  -0.707   2.404   0.919 -0.4255 -0.5535  0.3574
  145DOPC  C31117286  -0.500   2.326   0.870  0.0527  0.1033 -0.1927
  145DOPC  H11X17287  -0.472   2.220   0.885 -1.0330 -0.2403 -0.5028
  145DOPC  H11Y17288  -0.406   2.381   0.893  0.7826 -1.6486  1.1886
  145DOPC  C31217289  -0.541   2.348   0.726  0.2968 -0.2694 -0.4565
  145DOPC  H12X17290  -0.447   2.336   0.668  1.3319  2.5685  0.4921
  145DOPC  H12Y17291  -0.566   2.456   0.721 -2.0028 -0.7145  0.2968
  145DOPC  C31317292  -0.642   2.243   0.676  0.4682 -0.6864  0.2588
  145DOPC  H13X17293  -0.613   2.137   0.659 -2.5669 -1.5101 -0.2688
  145DOPC  H13Y17294  -0.743   2.249   0.721  0.5862  1.7939  0.2884
  145DOPC  C31417295  -0.668   2.281   0.526 -0.2234  0.2867  0.1365
  145DOPC  H14X17296  -0.591   2.233   0.462 -1.2897 -0.8624 -0.3141
  145DOPC  H14Y17297  -0.763   2.231   0.498 -1.2327  2.3897 -0.4297
  145DOPC  C31517298  -0.689   2.430   0.486  0.5273  0.0382 -0.6157
  145DOPC  H15X17299  -0.612   2.506   0.512  1.3509 -1.2094  0.7381
  145DOPC  H15Y17300  -0.783   2.468   0.530 -0.3399 -0.7576 -1.7418
  145DOPC  C31617301  -0.715   2.453   0.341  0.3671 -0.0065  0.9935
  145DOPC  H16X17302  -0.814   2.409   0.315  0.2693  1.7218 -2.0561
  145DOPC  H16Y17303  -0.717   2.562   0.323 -1.3522 -0.2748 -0.8619
  145DOPC  C31717304  -0.620   2.389   0.242 -0.2581  0.5990 -0.0092
  145DOPC  H17X17305  -0.522   2.438   0.262 -2.0967  3.6207  2.6076
  145DOPC  H17Y17306  -0.597   2.281   0.257 -1.5595 -0.1661 -2.7837
  145DOPC  C31817307  -0.673   2.394   0.099 -0.2020  0.8240  0.0949
  145DOPC  H18X17308  -0.675   2.503   0.076  0.1097  0.5789 -1.1514
  145DOPC  H18Y17309  -0.631   2.324   0.025 -2.1929 -0.0395 -0.2880
  145DOPC  H18Z17310  -0.772   2.344   0.104 -0.7409  1.3515 -3.1897
  146DOPC     N17311   0.617   0.019   2.407  0.1303 -0.0546  0.0462
  146DOPC   C1217312   0.647   0.168   2.380  0.1106  0.6195  0.0359
  146DOPC  H12A17313   0.562   0.214   2.331 -1.3419 -1.3549  0.5801
  146DOPC  H12B17314   0.732   0.172   2.313 -0.6509 -0.4393 -1.0414
  146DOPC   C1317315   0.500   0.003   2.496 -0.0133  0.3504  0.5140
  146DOPC  H13A17316   0.483  -0.104   2.505  1.1190  0.0880 -0.1745
  146DOPC  H13B17317   0.516   0.029   2.599  1.8381 -1.8992  0.8763
  146DOPC  H13C17318   0.411   0.048   2.456  0.2147 -0.3996 -0.9079
  146DOPC   C1417319   0.740  -0.054   2.456  0.6307  1.1169 -0.1981
  146DOPC  H14A17320   0.709  -0.148   2.500 -3.1284  1.9907 -0.6800
  146DOPC  H14B17321   0.794  -0.072   2.363  0.6451  0.6077 -0.0955
  146DOPC  H14C17322   0.787   0.007   2.532  3.5221  0.1537 -1.0693
  146DOPC   C1517323   0.587  -0.044   2.272 -0.2707 -0.3534  0.0022
  146DOPC  H15A17324   0.561  -0.145   2.302  2.9888 -1.2061  0.3633
  146DOPC  H15B17325   0.670  -0.045   2.202 -0.3219 -0.4093 -0.0575
  146DOPC  H15C17326   0.506   0.005   2.220  2.1218  0.7915 -2.8970
  146DOPC   C1117327   0.665   0.251   2.509 -0.0040 -0.1418 -0.2785
  146DOPC  H11A17328   0.731   0.193   2.577 -0.2878  0.9950  0.9970
  146DOPC  H11B17329   0.731   0.334   2.478  1.0437 -1.3206 -1.3190
  146DOPC     P17330   0.453   0.409   2.515  0.1151 -0.0318 -0.1070
  146DOPC   O1317331   0.527   0.536   2.527  0.3523  0.3129 -0.0544
  146DOPC   O1417332   0.320   0.403   2.581 -0.0675  0.5572 -0.0786
  146DOPC   O1217333   0.539   0.288   2.572  0.4457  0.0283 -0.2864
  146DOPC   O1117334   0.447   0.373   2.358  0.2027 -0.2617 -0.6172
  146DOPC    C117335   0.323   0.311   2.301 -0.3571  0.4610 -0.6140
  146DOPC    HA17336   0.233   0.375   2.309 -0.5803  0.3079 -1.6905
  146DOPC    HB17337   0.302   0.217   2.356 -1.1877 -0.5575 -2.5578
  146DOPC    C217338   0.349   0.255   2.160  0.6096 -0.4992 -0.5252
  146DOPC    HS17339   0.443   0.197   2.160  0.0743 -1.3885 -0.0319
  146DOPC   O2117340   0.341   0.365   2.069 -0.2104  0.3425 -0.6560
  146DOPC   C2117341   0.462   0.419   2.050  0.1449 -0.3671 -0.0693
  146DOPC   O2217342   0.566   0.371   2.094 -0.1383  0.8378 -0.1772
  146DOPC   C2217343   0.448   0.557   1.978 -0.7118  0.3706 -0.2581
  146DOPC   H2R17344   0.529   0.622   2.017  0.6583 -0.3276 -1.8396
  146DOPC   H2S17345   0.358   0.607   2.019  0.3076  1.3286  0.8983
  146DOPC    C317346   0.233   0.153   2.127 -0.0323  0.9298 -0.0575
  146DOPC    HX17347   0.136   0.200   2.154 -0.1386  0.0999  1.0801
  146DOPC    HY17348   0.251   0.070   2.198  0.2244  1.6658  0.7667
  146DOPC   O3117349   0.237   0.115   1.989 -0.6192  0.1271 -0.2045
  146DOPC   C3117350   0.327   0.029   1.958 -0.1558 -0.2708 -0.6281
  146DOPC   O3217351   0.406  -0.030   2.029  0.1278  0.8273  0.2933
  146DOPC   C3217352   0.326   0.010   1.800  0.0191  0.1664  0.0248
  146DOPC   H2X17353   0.220   0.033   1.774 -0.2619  0.6648  1.4903
  146DOPC   H2Y17354   0.399   0.081   1.756  2.2443 -1.8280  0.2898
  146DOPC   C2317355   0.445   0.548   1.827  0.5059  0.0348  0.3990
  146DOPC   H3R17356   0.420   0.651   1.794 -1.7117 -0.3341  0.8023
  146DOPC   H3S17357   0.374   0.471   1.790  0.2008  0.9665 -1.0349
  146DOPC   C2417358   0.584   0.524   1.764  0.7574 -0.0208  0.3440
  146DOPC   H4R17359   0.641   0.441   1.812  1.0561  0.2373  0.4389
  146DOPC   H4S17360   0.637   0.619   1.786 -0.7091  0.8814  0.0677
  146DOPC   C2517361   0.577   0.503   1.609  0.0684  0.4453 -0.4425
  146DOPC   H5R17362   0.493   0.432   1.588 -0.1915  0.2958  0.9988
  146DOPC   H5S17363   0.664   0.464   1.553 -0.0107 -1.0706  0.4258
  146DOPC   C2617364   0.537   0.635   1.540 -0.1121  0.8831  0.4495
  146DOPC   H6R17365   0.611   0.715   1.562  0.9360 -0.4592  2.0879
  146DOPC   H6S17366   0.446   0.660   1.598  0.2678 -2.6880  2.9100
  146DOPC   C2717367   0.493   0.623   1.392 -0.1992  0.1151  0.5521
  146DOPC   H7R17368   0.468   0.726   1.356  1.5496  0.2512 -0.3781
  146DOPC   H7S17369   0.399   0.565   1.383 -1.7364  2.4493  0.7294
  146DOPC   C2817370   0.599   0.554   1.298  0.2173 -0.3797 -0.1723
  146DOPC   H8R17371   0.627   0.456   1.342  0.2989 -0.0643  0.5041
  146DOPC   H8S17372   0.694   0.611   1.291 -0.9099  1.4957 -1.0674
  146DOPC   C2917373   0.534   0.533   1.163  0.2464 -0.5582 -0.4065
  146DOPC   H9R17374   0.426   0.513   1.172 -0.8047  3.2156 -2.4416
  146DOPC  C21017375   0.586   0.551   1.046 -0.2687  0.4409  0.9543
  146DOPC  H10R17376   0.519   0.538   0.960 -1.9532 -2.0846  2.5289
  146DOPC  C21117377   0.720   0.597   1.020 -0.7092 -0.5745  0.4977
  146DOPC  H11R17378   0.782   0.633   1.105  1.5192  0.8284 -1.5929
  146DOPC  H11S17379   0.725   0.684   0.951  1.3266 -0.5610  0.5980
  146DOPC  C21217380   0.804   0.490   0.948  0.1029  0.1696 -0.0918
  146DOPC  H12R17381   0.775   0.393   0.994  0.9939  0.3661  0.9297
  146DOPC  H12S17382   0.912   0.494   0.975  0.5867 -0.9181 -1.6924
  146DOPC  C21317383   0.791   0.505   0.791 -0.5543  0.5308  0.2736
  146DOPC  H13R17384   0.695   0.550   0.759 -0.6447 -1.4544 -2.6075
  146DOPC  H13S17385   0.794   0.405   0.744  1.7276  0.5676  0.2551
  146DOPC  C21417386   0.912   0.582   0.732  0.2285  0.2855  0.0124
  146DOPC  H14R17387   1.015   0.554   0.760  0.3645  0.9479  0.1740
  146DOPC  H14S17388   0.893   0.685   0.767  1.0184 -0.2054  1.9944
  146DOPC  C21517389   0.908   0.583   0.574  0.2106 -0.0944  0.1581
  146DOPC  H15R17390   0.938   0.683   0.536 -0.1823 -0.1895 -0.4256
  146DOPC  H15S17391   0.804   0.560   0.540  0.0176  1.1520 -0.1255
  146DOPC  C21617392   1.002   0.477   0.510 -0.5288  0.1931  0.4048
  146DOPC  H16R17393   0.995   0.373   0.550 -3.3149  0.6306  1.2916
  146DOPC  H16S17394   1.105   0.517   0.524 -0.9465  0.6502  2.4767
  146DOPC  C21717395   0.985   0.463   0.356 -0.1236  1.0975 -0.1050
  146DOPC  H17R17396   0.884   0.424   0.331  1.2855 -1.8737 -1.7403
  146DOPC  H17S17397   1.057   0.381   0.337 -1.3319 -0.3392  1.2647
  146DOPC  C21817398   1.024   0.582   0.276 -0.5130 -0.0998  0.3883
  146DOPC  H18R17399   1.017   0.566   0.166 -3.1940  1.1969  0.2814
  146DOPC  H18S17400   1.128   0.615   0.296 -0.5471  1.2186 -1.3146
  146DOPC  H18T17401   0.961   0.673   0.290  0.8205  0.8955  0.1661
  146DOPC   C3317402   0.363  -0.129   1.747 -0.6586  0.4111  0.2069
  146DOPC   H3X17403   0.288  -0.205   1.779  0.3678 -1.1327 -0.9536
  146DOPC   H3Y17404   0.467  -0.155   1.776 -0.3949  0.6972 -0.4607
  146DOPC   C3417405   0.355  -0.118   1.588  0.2227 -0.3389 -0.0178
  146DOPC   H4X17406   0.426  -0.033   1.572  1.6671 -1.3362  0.9421
  146DOPC   H4Y17407   0.249  -0.094   1.563 -0.3445 -2.0396  0.6392
  146DOPC   C3517408   0.401  -0.245   1.521 -0.0704  0.2860 -0.0022
  146DOPC   H5X17409   0.350  -0.336   1.558  0.4479  0.2769  0.7145
  146DOPC   H5Y17410   0.507  -0.262   1.549 -0.6181 -3.2947  0.3053
  146DOPC   C3617411   0.394  -0.242   1.370  0.1489  0.4271  0.0495
  146DOPC   H6X17412   0.434  -0.146   1.331  0.1731 -0.8366 -3.3772
  146DOPC   H6Y17413   0.460  -0.314   1.318  0.2938  1.1286 -0.7606
  146DOPC   C3717414   0.257  -0.255   1.311  0.6065 -0.3583  0.0821
  146DOPC   H7X17415   0.215  -0.348   1.355  0.1825  0.7971  2.2728
  146DOPC   H7Y17416   0.183  -0.181   1.349 -0.9717 -0.7294 -2.0782
  146DOPC   C3817417   0.255  -0.258   1.154  0.2614 -0.4507 -0.6178
  146DOPC   H8X17418   0.302  -0.167   1.112 -0.7391  0.7096  0.6791
  146DOPC   H8Y17419   0.150  -0.247   1.120  0.9125 -1.8055 -3.3663
  146DOPC   C3917420   0.321  -0.381   1.092 -0.3409 -0.7722 -0.3678
  146DOPC   H9X17421   0.290  -0.476   1.138 -1.5453 -0.3435 -0.2630
  146DOPC  C31017422   0.430  -0.386   1.019 -1.2129 -0.1907  0.8270
  146DOPC  H10X17423   0.475  -0.482   0.990 -0.1699 -0.1962  2.3609
  146DOPC  C31117424   0.511  -0.268   0.967  0.8112 -0.0974  0.0279
  146DOPC  H11X17425   0.617  -0.267   1.001  0.8293 -0.8919  0.0099
  146DOPC  H11Y17426   0.469  -0.170   1.000 -0.2840 -1.2903  2.3914
  146DOPC  C31217427   0.513  -0.281   0.817 -0.2182 -0.0781  0.2084
  146DOPC  H12X17428   0.571  -0.375   0.803 -0.4015 -0.2298  0.4583
  146DOPC  H12Y17429   0.568  -0.200   0.764  0.3910 -0.7660 -0.2230
  146DOPC  C31317430   0.380  -0.298   0.743 -0.1916 -0.0168 -0.3966
  146DOPC  H13X17431   0.324  -0.389   0.773 -0.8903  0.1104 -1.2655
  146DOPC  H13Y17432   0.320  -0.216   0.788 -2.3389 -0.9074 -1.5080
  146DOPC  C31417433   0.385  -0.292   0.593  0.3671  0.0163 -0.1846
  146DOPC  H14X17434   0.491  -0.318   0.570 -0.2799 -3.8011  0.5172
  146DOPC  H14Y17435   0.311  -0.363   0.549 -2.0321  0.9589  2.1130
  146DOPC  C31517436   0.357  -0.146   0.543  0.9650  0.4437 -0.3072
  146DOPC  H15X17437   0.426  -0.077   0.596  1.1444  0.3989 -0.4820
  146DOPC  H15Y17438   0.254  -0.127   0.579 -0.0213 -0.9130 -2.2497
  146DOPC  C31617439   0.357  -0.135   0.390  0.1161  0.2394  0.4184
  146DOPC  H16X17440   0.458  -0.104   0.357  0.4818 -1.4902 -0.1653
  146DOPC  H16Y17441   0.336  -0.234   0.346 -1.3366  0.7189 -0.0382
  146DOPC  C31717442   0.249  -0.046   0.334 -0.4129  0.2020 -0.0042
  146DOPC  H17X17443   0.149  -0.096   0.337 -1.2789  1.8546 -0.2362
  146DOPC  H17Y17444   0.235   0.043   0.399 -1.0679 -1.2645  1.9522
  146DOPC  C31817445   0.305   0.005   0.202  0.0666  0.0381 -0.1487
  146DOPC  H18X17446   0.337  -0.076   0.133 -0.2346  0.6193 -0.9771
  146DOPC  H18Y17447   0.234   0.074   0.152  0.8241  0.4801 -0.6339
  146DOPC  H18Z17448   0.403   0.057   0.212  0.2103  0.3901 -2.7050
  147DOPC     N17449  -1.096   0.264   2.644 -1.1810 -0.2234  0.2136
  147DOPC   C1217450  -1.006   0.223   2.526  0.4493 -0.3535  0.6612
  147DOPC  H12A17451  -0.973   0.121   2.537  1.9984 -0.3331 -2.5574
  147DOPC  H12B17452  -0.913   0.277   2.533  0.6390 -0.7886  1.7984
  147DOPC   C1317453  -1.146   0.401   2.610 -0.4447 -0.0747  0.5577
  147DOPC  H13A17454  -1.072   0.478   2.596 -1.6159  0.9685 -0.1233
  147DOPC  H13B17455  -1.208   0.390   2.523  0.4130  0.7863 -0.1801
  147DOPC  H13C17456  -1.213   0.437   2.687  1.1585  1.1213  1.4554
  147DOPC   C1417457  -1.017   0.267   2.775  0.1049  0.9876  0.4652
  147DOPC  H14A17458  -0.986   0.164   2.785 -0.6389  0.7777  0.6732
  147DOPC  H14B17459  -0.934   0.335   2.763  0.2141  0.7433 -0.2189
  147DOPC  H14C17460  -1.086   0.295   2.853 -0.3729  0.9495  0.0645
  147DOPC   C1517461  -1.213   0.188   2.659 -0.2947 -0.3494 -0.5644
  147DOPC  H15A17462  -1.205   0.085   2.689  0.6336 -0.3124 -0.6745
  147DOPC  H15B17463  -1.259   0.179   2.561  1.7171 -0.9671 -1.4933
  147DOPC  H15C17464  -1.287   0.229   2.726  1.0141 -2.1870  2.1792
  147DOPC   C1117465  -1.067   0.225   2.383 -0.0104 -0.5448  0.2709
  147DOPC  H11A17466  -1.117   0.324   2.369  0.1314 -0.6772 -1.4158
  147DOPC  H11B17467  -0.987   0.213   2.306  0.2176 -0.5173  0.5028
  147DOPC     P17468  -1.246   0.097   2.246 -0.5252  0.1032 -0.0574
  147DOPC   O1317469  -1.263   0.226   2.179  0.6698 -0.3400 -0.1194
  147DOPC   O1417470  -1.361   0.019   2.285  0.0823 -0.0723  0.4065
  147DOPC   O1217471  -1.166   0.128   2.377 -0.0225 -0.5094 -0.9573
  147DOPC   O1117472  -1.140   0.010   2.172 -0.5204 -0.2440 -0.3815
  147DOPC    C117473  -1.050   0.060   2.069 -0.3309 -0.2746 -0.8372
  147DOPC    HA17474  -0.967  -0.014   2.069  0.0807  0.1015  1.5208
  147DOPC    HB17475  -1.001   0.157   2.091  1.2438 -1.6812  2.7245
  147DOPC    C217476  -1.118   0.047   1.928  0.2918  0.3763  0.0525
  147DOPC    HS17477  -1.215   0.100   1.939  0.0485 -0.0869  0.2131
  147DOPC   O2117478  -1.132  -0.092   1.917 -0.1680  0.2803 -0.0412
  147DOPC   C2117479  -1.236  -0.125   1.839 -0.0758  0.8152 -0.6007
  147DOPC   O2217480  -1.311  -0.047   1.785 -0.5723  0.1971  0.5321
  147DOPC   C2217481  -1.228  -0.277   1.815 -0.4122 -0.5302 -0.0984
  147DOPC   H2R17482  -1.186  -0.323   1.908 -0.8537 -2.8384 -0.9859
  147DOPC   H2S17483  -1.152  -0.290   1.735  0.4322 -0.0218  0.5997
  147DOPC    C317484  -1.025   0.109   1.814  0.2864  0.2603 -0.2994
  147DOPC    HX17485  -0.927   0.058   1.825  0.5884  0.8916 -0.0505
  147DOPC    HY17486  -1.006   0.217   1.830  0.1570  0.3887 -0.9558
  147DOPC   O3117487  -1.076   0.095   1.678 -0.3650  0.1055  0.5341
  147DOPC   C3117488  -1.038  -0.016   1.614 -0.1045  0.7465  0.8934
  147DOPC   O3217489  -0.946  -0.088   1.643 -0.3493  0.2043 -0.0487
  147DOPC   C3217490  -1.125  -0.028   1.489  0.0856  0.3598  0.1361
  147DOPC   H2X17491  -1.228  -0.050   1.526  0.3163  2.6305  2.3546
  147DOPC   H2Y17492  -1.116   0.072   1.442  0.4809  0.3210  0.1259
  147DOPC   C2317493  -1.368  -0.330   1.772  0.3367 -0.2821 -0.3223
  147DOPC   H3R17494  -1.403  -0.261   1.693 -1.7968 -1.5480 -0.5588
  147DOPC   H3S17495  -1.442  -0.329   1.855 -1.1357 -2.0885 -1.5100
  147DOPC   C2417496  -1.365  -0.479   1.728  0.0800  0.0008  1.1465
  147DOPC   H4R17497  -1.468  -0.516   1.746 -0.4570  1.2709  0.8239
  147DOPC   H4S17498  -1.292  -0.552   1.769  0.5582 -0.4005 -0.3824
  147DOPC   C2517499  -1.347  -0.496   1.573 -0.4662 -0.5376  0.3427
  147DOPC   H5R17500  -1.372  -0.604   1.558 -1.7353 -0.3399  0.8936
  147DOPC   H5S17501  -1.245  -0.467   1.540 -0.7828 -0.2159 -0.3521
  147DOPC   C2617502  -1.457  -0.433   1.483 -0.2389 -0.1774  0.1596
  147DOPC   H6R17503  -1.477  -0.325   1.503 -2.1664 -0.6220  0.7991
  147DOPC   H6S17504  -1.555  -0.483   1.495  0.0230 -1.8332 -3.3505
  147DOPC   C2717505  -1.421  -0.446   1.335  0.4124  0.2199 -0.5695
  147DOPC   H7R17506  -1.442  -0.553   1.317  0.4190  0.3158 -1.1659
  147DOPC   H7S17507  -1.311  -0.431   1.330  0.4241 -0.1217 -1.8290
  147DOPC   C2817508  -1.501  -0.359   1.244 -0.1551  0.8532  0.0745
  147DOPC   H8R17509  -1.531  -0.263   1.291 -0.1210  2.3523 -2.7339
  147DOPC   H8S17510  -1.605  -0.393   1.223 -0.1024  0.5813  0.2517
  147DOPC   C2917511  -1.432  -0.327   1.113 -0.3526 -0.4524 -0.3835
  147DOPC   H9R17512  -1.378  -0.231   1.122 -0.2720 -0.6795  2.2430
  147DOPC  C21017513  -1.442  -0.374   0.991 -0.6098  0.9719  0.7646
  147DOPC  H10R17514  -1.387  -0.330   0.907 -1.3121 -0.5996 -0.5809
  147DOPC  C21117515  -1.516  -0.502   0.948 -0.1943  0.8399 -0.3065
  147DOPC  H11R17516  -1.580  -0.552   1.024 -0.1425 -0.1021 -0.8700
  147DOPC  H11S17517  -1.447  -0.588   0.941  0.4993  1.4355 -0.9874
  147DOPC  C21217518  -1.602  -0.490   0.822 -0.0772  0.0282  0.7399
  147DOPC  H12R17519  -1.677  -0.409   0.838  0.5621  0.1629  3.6712
  147DOPC  H12S17520  -1.664  -0.581   0.808 -0.0604  0.1068  0.1352
  147DOPC  C21317521  -1.533  -0.460   0.698 -0.5558 -0.0031  0.5055
  147DOPC  H13R17522  -1.457  -0.536   0.668  0.6109  0.8360  1.2497
  147DOPC  H13S17523  -1.480  -0.363   0.706  1.7664 -1.2344  1.1553
  147DOPC  C21417524  -1.628  -0.445   0.580 -0.0526  0.1858  0.6520
  147DOPC  H14R17525  -1.699  -0.364   0.608 -3.0061 -1.7011 -0.8925
  147DOPC  H14S17526  -1.685  -0.539   0.565  2.5467 -1.5250  0.7472
  147DOPC  C21517527  -1.564  -0.395   0.452 -0.2921  0.1985 -0.1271
  147DOPC  H15R17528  -1.488  -0.466   0.412 -2.2651 -0.6747 -2.5662
  147DOPC  H15S17529  -1.529  -0.291   0.468  1.5482 -0.0691 -1.9639
  147DOPC  C21617530  -1.680  -0.388   0.345  0.4182 -0.2113  0.6608
  147DOPC  H16R17531  -1.645  -0.320   0.264  1.6802 -1.0271  0.4988
  147DOPC  H16S17532  -1.775  -0.343   0.381  0.3879 -0.4777  0.9144
  147DOPC  C21717533  -1.721  -0.524   0.284  0.7381  0.7684  0.0056
  147DOPC  H17R17534  -1.763  -0.594   0.360 -2.2429  2.6779  0.2951
  147DOPC  H17S17535  -1.633  -0.577   0.244 -0.7392 -1.1337 -0.9100
  147DOPC  C21817536  -1.817  -0.513   0.168  0.4412 -0.5699  0.0281
  147DOPC  H18R17537  -1.857  -0.613   0.139 -2.7081 -0.8159  4.2079
  147DOPC  H18S17538  -1.767  -0.462   0.083  0.0551 -0.5135 -0.1690
  147DOPC  H18T17539  -1.909  -0.457   0.197  0.9161 -0.5776  1.6437
  147DOPC   C3317540  -1.059  -0.133   1.397 -0.0141 -0.1973  0.0866
  147DOPC   H3X17541  -1.115  -0.229   1.391  1.6920 -1.2453  0.2899
  147DOPC   H3Y17542  -0.952  -0.156   1.415  0.8225  2.1712 -1.4437
  147DOPC   C3417543  -1.058  -0.071   1.252  0.2444  0.7270  0.3345
  147DOPC   H4X17544  -0.988   0.012   1.231 -0.3941  0.8027 -1.7367
  147DOPC   H4Y17545  -1.160  -0.036   1.225 -2.1143 -4.2167  1.5678
  147DOPC   C3517546  -1.023  -0.182   1.155  0.2508  0.0438 -0.0295
  147DOPC   H5X17547  -1.098  -0.263   1.161  0.1456  0.2045  1.0264
  147DOPC   H5Y17548  -0.926  -0.224   1.189  0.3222  0.4571  0.2898
  147DOPC   C3617549  -1.022  -0.139   1.005 -0.9124 -0.0170 -0.4371
  147DOPC   H6X17550  -1.125  -0.102   0.983 -1.1630 -0.3550  0.1515
  147DOPC   H6Y17551  -0.948  -0.061   0.979 -1.5455  0.6169 -0.3809
  147DOPC   C3717552  -1.006  -0.254   0.915 -0.2391  0.0878  0.7018
  147DOPC   H7X17553  -0.905  -0.297   0.931 -0.2793  0.1379  1.1073
  147DOPC   H7Y17554  -1.082  -0.331   0.939 -1.6095 -0.2509 -3.8362
  147DOPC   C3817555  -1.029  -0.231   0.756  0.1161 -0.4860 -0.1772
  147DOPC   H8X17556  -0.999  -0.127   0.734 -2.8235  0.0770 -2.0330
  147DOPC   H8Y17557  -1.138  -0.225   0.737  0.2852  1.3353 -0.6941
  147DOPC   C3917558  -0.952  -0.340   0.678 -0.9317  0.0989  0.5633
  147DOPC   H9X17559  -0.843  -0.339   0.688 -1.0862 -0.0175  2.5285
  147DOPC  C31017560  -1.009  -0.434   0.600  0.5595  0.9452 -0.0641
  147DOPC  H10X17561  -0.948  -0.514   0.557 -0.0856  0.6746 -0.4882
  147DOPC  C31117562  -1.156  -0.457   0.579 -0.0609  0.2405 -0.0894
  147DOPC  H11X17563  -1.201  -0.362   0.546 -1.5543  0.4315  2.2294
  147DOPC  H11Y17564  -1.205  -0.492   0.673  0.3810 -0.0824  0.0295
  147DOPC  C31217565  -1.192  -0.571   0.479 -0.3287 -0.0071  0.4893
  147DOPC  H12X17566  -1.301  -0.582   0.494 -0.2050  0.1304  1.5182
  147DOPC  H12Y17567  -1.148  -0.671   0.500  0.9246  0.0368 -1.6496
  147DOPC  C31317568  -1.147  -0.520   0.343 -0.0589 -0.2667  0.7806
  147DOPC  H13X17569  -1.173  -0.412   0.333  0.4103 -0.0058  2.2122
  147DOPC  H13Y17570  -1.039  -0.540   0.330 -0.1435 -0.3951  0.2506
  147DOPC  C31417571  -1.222  -0.596   0.234 -0.3255 -0.4199 -0.0828
  147DOPC  H14X17572  -1.198  -0.704   0.249 -0.5275 -0.5344 -0.5675
  147DOPC  H14Y17573  -1.332  -0.580   0.242 -0.0925  0.4725  2.1097
  147DOPC  C31517574  -1.162  -0.555   0.095  0.0798 -0.2920  0.1287
  147DOPC  H15X17575  -1.169  -0.637   0.020 -0.7557  1.2718 -1.5826
  147DOPC  H15Y17576  -1.052  -0.543   0.097  0.2331 -1.5465 -0.0361
  147DOPC  C31617577  -1.227  -0.434   0.031  0.9370 -0.0647 -0.1533
  147DOPC  H16X17578  -1.189  -0.344   0.083  0.6296  0.2288 -0.4273
  147DOPC  H16Y17579  -1.189  -0.421  -0.073  0.6704  1.4058 -0.0902
  147DOPC  C31717580  -1.388  -0.441   0.030 -0.4924  0.0535 -0.2271
  147DOPC  H17X17581  -1.424  -0.542   0.000  1.2576 -0.5047 -0.5287
  147DOPC  H17Y17582  -1.419  -0.423   0.135 -0.1293 -0.4697 -0.0301
  147DOPC  C31817583  -1.456  -0.346  -0.071 -0.1274  0.3193  0.4789
  147DOPC  H18X17584  -1.565  -0.363  -0.084 -0.4482  2.6854 -0.5181
  147DOPC  H18Y17585  -1.432  -0.244  -0.035  1.0348  0.5680 -0.9189
  147DOPC  H18Z17586  -1.421  -0.374  -0.173  1.0851  0.9095  0.7216
  148DOPC     N17587  -2.503   2.327   2.756  0.6412 -0.1866 -0.2550
  148DOPC   C1217588  -2.428   2.439   2.829 -0.5536 -0.4384 -0.8349
  148DOPC  H12A17589  -2.400   2.404   2.927 -1.8071 -1.0103 -0.6689
  148DOPC  H12B17590  -2.489   2.525   2.853  1.4592  0.6643  0.6320
  148DOPC   C1317591  -2.624   2.293   2.843 -0.6344 -0.8329 -0.8023
  148DOPC  H13A17592  -2.683   2.381   2.866  1.2419 -0.5270  4.0706
  148DOPC  H13B17593  -2.670   2.209   2.792  0.4203 -2.3897  0.6975
  148DOPC  H13C17594  -2.594   2.262   2.942  0.6032  0.9733 -0.5701
  148DOPC   C1417595  -2.425   2.200   2.745 -0.4420 -0.3274  0.4383
  148DOPC  H14A17596  -2.331   2.213   2.694  0.2516 -0.1768  1.7131
  148DOPC  H14B17597  -2.393   2.163   2.842  0.4654  1.9312  1.0592
  148DOPC  H14C17598  -2.478   2.121   2.694 -1.0330  1.3650 -1.7096
  148DOPC   C1517599  -2.548   2.385   2.626  0.2401  0.6124 -0.4980
  148DOPC  H15A17600  -2.458   2.417   2.576  0.0119  1.4833 -0.3768
  148DOPC  H15B17601  -2.613   2.471   2.637 -2.2879 -1.2287 -0.2289
  148DOPC  H15C17602  -2.592   2.314   2.557 -0.6003 -1.3113  1.8705
  148DOPC   C1117603  -2.292   2.493   2.766 -0.6224 -0.4608 -0.0476
  148DOPC  H11A17604  -2.211   2.418   2.757  1.3660  1.6555 -1.0394
  148DOPC  H11B17605  -2.302   2.528   2.661 -0.6669  0.5890  0.2946
  148DOPC     P17606  -2.288   2.743   2.845 -0.0966  0.1234  0.1934
  148DOPC   O1317607  -2.208   2.833   2.925 -0.7858  0.5592 -0.0633
  148DOPC   O1417608  -2.434   2.742   2.867 -0.5939  0.6337 -0.1856
  148DOPC   O1217609  -2.229   2.594   2.851 -0.6413 -0.3686 -0.0131
  148DOPC   O1117610  -2.276   2.776   2.689  0.2640 -0.5663 -0.0539
  148DOPC    C117611  -2.144   2.765   2.633  0.4667 -0.4359  0.2496
  148DOPC    HA17612  -2.095   2.666   2.649  2.5564  0.5597  0.2009
  148DOPC    HB17613  -2.078   2.843   2.675  0.5438 -0.4133  0.0871
  148DOPC    C217614  -2.146   2.783   2.480 -0.1313 -0.5886 -0.1533
  148DOPC    HS17615  -2.201   2.877   2.460  1.9499  0.3315 -2.0783
  148DOPC   O2117616  -2.214   2.668   2.425  0.4529 -0.0229  0.6606
  148DOPC   C2117617  -2.306   2.691   2.336 -0.3981 -0.5180 -0.2436
  148DOPC   O2217618  -2.347   2.803   2.298 -0.0510 -0.1639 -0.2696
  148DOPC   C2217619  -2.362   2.563   2.284  0.3518 -0.1952 -0.3696
  148DOPC   H2R17620  -2.427   2.531   2.368  2.3604 -2.5714  0.3727
  148DOPC   H2S17621  -2.277   2.494   2.270  1.4653  1.3227 -1.4314
  148DOPC    C317622  -1.998   2.789   2.431 -0.8764 -0.6334  0.0928
  148DOPC    HX17623  -1.943   2.698   2.460 -1.1007 -0.0768  2.4415
  148DOPC    HY17624  -1.941   2.876   2.471  0.9533 -2.1187  0.8657
  148DOPC   O3117625  -1.994   2.786   2.283  0.4266  0.6066  0.2667
  148DOPC   C3117626  -2.003   2.905   2.227  0.0564  0.3264  0.1015
  148DOPC   O3217627  -2.016   3.007   2.294 -0.2937  0.1437  0.3586
  148DOPC   C3217628  -1.986   2.907   2.070  0.3940 -0.4368 -0.2408
  148DOPC   H2X17629  -1.958   3.009   2.039 -3.5890  0.6151 -0.8941
  148DOPC   H2Y17630  -1.901   2.841   2.042  1.1009 -0.2340  1.3554
  148DOPC   C2317631  -2.443   2.555   2.152  0.2294  0.0313 -0.1413
  148DOPC   H3R17632  -2.525   2.629   2.163  0.3235 -0.2443  4.0807
  148DOPC   H3S17633  -2.479   2.450   2.146  1.5724 -0.4987  0.6624
  148DOPC   C2417634  -2.359   2.571   2.024  0.2103 -0.4698  0.7749
  148DOPC   H4R17635  -2.282   2.491   2.029  2.4158  1.5669  1.4651
  148DOPC   H4S17636  -2.327   2.678   2.031  1.7941 -0.7360 -1.2790
  148DOPC   C2517637  -2.450   2.570   1.900 -0.4487  0.6749 -0.7223
  148DOPC   H5R17638  -2.519   2.653   1.928 -0.6219  0.0111  0.8964
  148DOPC   H5S17639  -2.513   2.479   1.892  0.4662 -0.2232  1.5652
  148DOPC   C2617640  -2.376   2.596   1.774 -0.1670  0.8403 -0.2281
  148DOPC   H6R17641  -2.304   2.512   1.769 -1.3807 -0.4205  2.2012
  148DOPC   H6S17642  -2.309   2.684   1.761 -0.1587  0.7007 -1.1848
  148DOPC   C2717643  -2.460   2.593   1.642  0.3921 -0.1284 -0.1085
  148DOPC   H7R17644  -2.553   2.653   1.657 -0.7902 -1.8192 -0.4774
  148DOPC   H7S17645  -2.493   2.488   1.627 -0.0055 -0.1485  0.8144
  148DOPC   C2817646  -2.385   2.651   1.515 -0.3296 -0.1546 -0.4255
  148DOPC   H8R17647  -2.323   2.739   1.541 -1.6339  1.0571 -1.2818
  148DOPC   H8S17648  -2.450   2.677   1.429  1.5234 -0.3260 -1.9297
  148DOPC   C2917649  -2.294   2.547   1.466 -0.0921 -0.1327  0.0672
  148DOPC   H9R17650  -2.287   2.467   1.541  1.1845  2.0384  2.3965
  148DOPC  C21017651  -2.232   2.559   1.346 -0.0996  1.0903  0.4687
  148DOPC  H10R17652  -2.185   2.465   1.312 -1.4540 -0.2445  2.0972
  148DOPC  C21117653  -2.258   2.664   1.250  0.5089 -0.1802  0.6978
  148DOPC  H11R17654  -2.170   2.699   1.192  0.0735  0.0019  0.1361
  148DOPC  H11S17655  -2.284   2.753   1.311  0.3337  0.3476 -0.1344
  148DOPC  C21217656  -2.366   2.634   1.145  0.0052  0.1127 -0.2162
  148DOPC  H12R17657  -2.375   2.735   1.099  0.9024  0.6307  0.7002
  148DOPC  H12S17658  -2.460   2.603   1.196  2.0086 -2.2767  2.3815
  148DOPC  C21317659  -2.316   2.543   1.036  0.1923 -0.0469 -0.5334
  148DOPC  H13R17660  -2.358   2.444   1.065 -0.7575  1.0400  2.0231
  148DOPC  H13S17661  -2.205   2.534   1.029  0.1666 -0.4720 -0.4251
  148DOPC  C21417662  -2.370   2.581   0.897  0.0315  0.1003  0.3723
  148DOPC  H14R17663  -2.382   2.689   0.878 -1.0523  0.1432  1.2344
  148DOPC  H14S17664  -2.473   2.540   0.896  0.1897 -0.6062  3.1281
  148DOPC  C21517665  -2.280   2.527   0.792 -0.6307  0.2816  0.3178
  148DOPC  H15R17666  -2.264   2.418   0.807  3.6889  0.6893 -0.0082
  148DOPC  H15S17667  -2.180   2.575   0.789 -0.2600 -0.4873  0.0052
  148DOPC  C21617668  -2.328   2.540   0.645  0.1238  0.1507 -0.0697
  148DOPC  H16R17669  -2.349   2.645   0.616  0.6158 -0.1622 -1.7098
  148DOPC  H16S17670  -2.422   2.491   0.612 -0.0506  1.0838 -0.9912
  148DOPC  C21717671  -2.226   2.484   0.544 -0.6942  0.0657 -0.7511
  148DOPC  H17R17672  -2.185   2.385   0.572  0.6936 -0.4353 -4.0725
  148DOPC  H17S17673  -2.136   2.549   0.533  2.8294 -4.3969 -0.9339
  148DOPC  C21817674  -2.283   2.465   0.399  0.6267 -0.2911  0.0501
  148DOPC  H18R17675  -2.384   2.419   0.402  1.2409 -1.7048 -0.0163
  148DOPC  H18S17676  -2.226   2.388   0.342  0.6676 -0.5584  0.4463
  148DOPC  H18T17677  -2.278   2.561   0.343  2.3528 -0.3410  0.0581
  148DOPC   C3317678  -2.117   2.863   1.998 -0.2848 -0.1707 -0.2347
  148DOPC   H3X17679  -2.213   2.891   2.046 -0.9408 -1.9267 -0.4474
  148DOPC   H3Y17680  -2.114   2.754   1.978  2.5207  0.1302 -1.9916
  148DOPC   C3417681  -2.113   2.928   1.858 -0.0051  0.2275  0.0205
  148DOPC   H4X17682  -2.082   3.034   1.853  0.2613  0.1163 -1.0224
  148DOPC   H4Y17683  -2.217   2.921   1.820  0.3813 -1.4548 -0.8445
  148DOPC   C3517684  -2.029   2.853   1.750 -0.0393 -0.6429  0.1798
  148DOPC   H5X17685  -2.069   2.750   1.744 -0.4473 -0.5749  1.4434
  148DOPC   H5Y17686  -1.921   2.858   1.777 -0.2259  1.8577  0.7542
  148DOPC   C3617687  -2.030   2.921   1.610  0.6955  0.4392  1.1587
  148DOPC   H6X17688  -2.136   2.933   1.577  0.3500 -0.5167  1.8883
  148DOPC   H6Y17689  -1.986   3.023   1.609 -0.9297  1.2713 -2.2857
  148DOPC   C3717690  -1.958   2.831   1.506  0.3135 -0.4985  0.0741
  148DOPC   H7X17691  -1.856   2.803   1.539  0.3242  0.0977  0.5553
  148DOPC   H7Y17692  -2.021   2.740   1.491 -0.4550  0.2332 -1.3900
  148DOPC   C3817693  -1.949   2.889   1.362  0.1897 -0.3627 -0.4091
  148DOPC   H8X17694  -1.902   2.990   1.357 -1.2612  0.3893  0.4030
  148DOPC   H8Y17695  -2.054   2.904   1.328  0.1373  0.2132 -0.0269
  148DOPC   C3917696  -1.862   2.811   1.274  0.8079  0.2560 -0.0824
  148DOPC   H9X17697  -1.816   2.725   1.325 -0.7629  0.4424  1.7283
  148DOPC  C31017698  -1.841   2.816   1.146  0.1195 -0.3105 -0.4803
  148DOPC  H10X17699  -1.790   2.726   1.110 -0.8174 -0.9801 -0.1686
  148DOPC  C31117700  -1.891   2.911   1.035 -0.9937 -0.4336 -0.2602
  148DOPC  H11X17701  -1.808   2.979   1.007 -2.8148  1.6539 -0.8789
  148DOPC  H11Y17702  -1.961   2.986   1.077 -0.7784 -0.4455  0.1263
  148DOPC  C31217703  -1.938   2.830   0.912  0.5011 -0.0544 -0.2952
  148DOPC  H12X17704  -2.028   2.768   0.932  1.3506 -1.1635  0.1907
  148DOPC  H12Y17705  -1.859   2.754   0.889  2.2660  1.1488  1.4531
  148DOPC  C31317706  -1.946   2.928   0.792  0.0894  0.0778 -0.0261
  148DOPC  H13X17707  -2.020   3.005   0.823  0.2430 -0.8404  2.9438
  148DOPC  H13Y17708  -1.850   2.981   0.772  0.7086 -1.2821 -0.7741
  148DOPC  C31417709  -1.989   2.867   0.656  0.1559 -0.2247 -0.2649
  148DOPC  H14X17710  -1.905   2.799   0.628 -1.1048 -2.2736  0.6799
  148DOPC  H14Y17711  -2.079   2.802   0.663  1.2831 -2.1057 -1.9851
  148DOPC  C31517712  -2.012   2.969   0.545  0.5869  0.3097 -0.1393
  148DOPC  H15X17713  -1.917   3.026   0.537 -0.1558  1.4084 -1.5153
  148DOPC  H15Y17714  -2.099   3.036   0.561 -2.7729 -3.2877 -1.7717
  148DOPC  C31617715  -2.027   2.896   0.412  0.0987  0.0485  0.0357
  148DOPC  H16X17716  -1.984   2.956   0.329  0.6993  0.1301  0.3972
  148DOPC  H16Y17717  -1.960   2.808   0.408  1.1847  0.8268  0.5616
  148DOPC  C31717718  -2.169   2.859   0.371  0.4066 -0.6172  0.4752
  148DOPC  H17X17719  -2.194   2.781   0.446 -4.3415 -0.2152 -0.4047
  148DOPC  H17Y17720  -2.238   2.943   0.395 -0.3125 -1.2346  0.6022
  148DOPC  C31817721  -2.201   2.812   0.230 -0.2229  0.0281  0.7169
  148DOPC  H18X17722  -2.187   2.892   0.155 -0.3463  0.9671  1.6750
  148DOPC  H18Y17723  -2.151   2.715   0.208  0.8592  0.0131  2.9726
  148DOPC  H18Z17724  -2.309   2.785   0.231 -0.6584  1.3898 -1.7927
  149DOPC     N17725  -1.495   0.522   2.195  0.3981 -0.2224  0.3194
  149DOPC   C1217726  -1.553   0.388   2.150  0.3421 -0.1751  1.0312
  149DOPC  H12A17727  -1.574   0.322   2.232 -0.8516  0.1039  0.9627
  149DOPC  H12B17728  -1.476   0.335   2.096 -0.4346  0.8741 -1.2172
  149DOPC   C1317729  -1.459   0.621   2.079  0.6852  0.1122 -0.6274
  149DOPC  H13A17730  -1.371   0.584   2.029  0.5010 -0.1233 -0.7773
  149DOPC  H13B17731  -1.539   0.623   2.006  1.6969 -1.6417 -1.8424
  149DOPC  H13C17732  -1.434   0.716   2.125  1.3898  0.7450 -2.2629
  149DOPC   C1417733  -1.370   0.496   2.273 -0.5485 -0.4595  1.1009
  149DOPC  H14A17734  -1.295   0.445   2.215 -1.7212 -1.2987  0.2694
  149DOPC  H14B17735  -1.333   0.585   2.322 -2.9194 -0.1488  2.4806
  149DOPC  H14C17736  -1.393   0.435   2.359 -1.6104 -0.6842  0.6734
  149DOPC   C1517737  -1.598   0.584   2.291  0.0699  0.5987  0.4062
  149DOPC  H15A17738  -1.692   0.590   2.238  0.2717  3.1841  0.2231
  149DOPC  H15B17739  -1.581   0.687   2.319  0.9271  0.3405  0.8860
  149DOPC  H15C17740  -1.604   0.540   2.389 -0.5224 -1.2300 -0.4090
  149DOPC   C1117741  -1.677   0.390   2.059 -0.1302  0.3279 -0.5089
  149DOPC  H11A17742  -1.665   0.469   1.982  0.3160  0.2191 -0.5539
  149DOPC  H11B17743  -1.681   0.289   2.012 -3.3755  0.0466  0.1322
  149DOPC     P17744  -1.869   0.318   2.221  0.4498 -0.1345  0.1395
  149DOPC   O1317745  -1.970   0.386   2.302  0.4276  0.0552 -0.7891
  149DOPC   O1417746  -1.770   0.236   2.294  0.0188  0.1749 -0.4272
  149DOPC   O1217747  -1.794   0.420   2.132 -0.2133  0.0243  0.7022
  149DOPC   O1117748  -1.953   0.225   2.120  0.0225  0.3105 -0.2787
  149DOPC    C117749  -1.999   0.287   2.001 -0.0826 -0.3977  0.4121
  149DOPC    HA17750  -1.911   0.303   1.934 -1.6387  2.4348 -1.1580
  149DOPC    HB17751  -2.055   0.381   2.023 -0.3983  0.1217 -2.2281
  149DOPC    C217752  -2.103   0.199   1.925 -0.2473  0.5605 -0.1034
  149DOPC    HS17753  -2.176   0.154   1.995 -0.3722  0.2776 -0.4136
  149DOPC   O2117754  -2.045   0.101   1.846 -0.7214 -0.4525 -0.0137
  149DOPC   C2117755  -2.132   0.004   1.810 -0.6235  0.4524 -0.0055
  149DOPC   O2217756  -2.230  -0.025   1.875  0.5262  0.6473 -0.4411
  149DOPC   C2217757  -2.084  -0.058   1.682  0.4855  0.2714  0.0247
  149DOPC   H2R17758  -2.143  -0.152   1.675 -1.0044  1.2900 -3.6704
  149DOPC   H2S17759  -1.979  -0.090   1.698 -0.0940 -1.6352  0.2720
  149DOPC    C317760  -2.201   0.290   1.834  0.2671 -0.5973  0.0063
  149DOPC    HX17761  -2.238   0.358   1.913  3.6807  0.7428  0.5919
  149DOPC    HY17762  -2.284   0.228   1.793  1.0891 -0.7545 -1.4943
  149DOPC   O3117763  -2.135   0.369   1.737  0.2384 -0.1338  0.3709
  149DOPC   C3117764  -2.197   0.382   1.620 -0.4271 -0.0491  0.2060
  149DOPC   O3217765  -2.301   0.326   1.585 -0.4410 -0.2099 -0.5978
  149DOPC   C3217766  -2.118   0.485   1.539  0.1899 -0.2599 -0.8405
  149DOPC   H2X17767  -2.147   0.589   1.565 -2.2088 -1.7715  3.6571
  149DOPC   H2Y17768  -2.014   0.477   1.577  0.6675  0.8673 -1.8594
  149DOPC   C2317769  -2.105   0.035   1.556 -0.5137 -0.1207  0.5352
  149DOPC   H3R17770  -2.034   0.120   1.549 -2.2764  1.4230  0.2284
  149DOPC   H3S17771  -2.206   0.083   1.559 -0.4550  0.0881 -0.3481
  149DOPC   C2417772  -2.076  -0.043   1.422 -0.0214  0.0885 -0.2683
  149DOPC   H4R17773  -2.131  -0.139   1.429  0.5922 -0.3790 -1.5689
  149DOPC   H4S17774  -1.966  -0.055   1.415  0.1256 -1.0949  2.6239
  149DOPC   C2517775  -2.131   0.018   1.296 -0.5617  0.3687 -0.4129
  149DOPC   H5R17776  -2.080  -0.031   1.210 -0.1084 -1.4767  0.8654
  149DOPC   H5S17777  -2.126   0.129   1.286  0.3005  0.2837 -1.0353
  149DOPC   C2617778  -2.282  -0.015   1.269 -0.4121 -0.9729 -0.2590
  149DOPC   H6R17779  -2.340   0.042   1.345  1.3624 -0.2864  0.6186
  149DOPC   H6S17780  -2.309  -0.120   1.294 -1.6626 -0.3734  1.1026
  149DOPC   C2717781  -2.327   0.028   1.125 -0.1737  0.4206  0.4887
  149DOPC   H7R17782  -2.420  -0.032   1.116 -1.0585  1.5057  1.9305
  149DOPC   H7S17783  -2.257  -0.010   1.048 -0.4983 -0.4957  0.6341
  149DOPC   C2817784  -2.353   0.176   1.106  0.4827 -1.1722 -0.6710
  149DOPC   H8R17785  -2.364   0.186   0.996  0.8213 -0.0257 -0.6103
  149DOPC   H8S17786  -2.267   0.241   1.131 -0.2805 -0.0944 -0.8146
  149DOPC   C2917787  -2.475   0.227   1.177 -0.2724  0.3423  0.0731
  149DOPC   H9R17788  -2.481   0.196   1.282 -0.9418  1.8140  0.4928
  149DOPC  C21017789  -2.579   0.293   1.120  0.3487  1.2975 -0.5449
  149DOPC  H10R17790  -2.653   0.313   1.200  0.6941  1.4643 -0.2661
  149DOPC  C21117791  -2.604   0.347   0.987 -0.4174  0.0051 -0.0193
  149DOPC  H11R17792  -2.513   0.405   0.958 -1.8047  1.5721 -1.4338
  149DOPC  H11S17793  -2.684   0.424   0.987 -0.3672  0.1550  2.5126
  149DOPC  C21217794  -2.629   0.241   0.876  0.0817  0.4742 -0.6039
  149DOPC  H12R17795  -2.710   0.174   0.911 -0.3512  1.2380 -0.1211
  149DOPC  H12S17796  -2.539   0.178   0.858  0.4729  0.9408 -0.3088
  149DOPC  C21317797  -2.650   0.308   0.739 -0.5234  0.0430 -0.3509
  149DOPC  H13R17798  -2.568   0.383   0.737  0.3737 -0.6405  3.0400
  149DOPC  H13S17799  -2.748   0.360   0.735 -0.5929 -0.1749 -1.9485
  149DOPC  C21417800  -2.648   0.210   0.622  0.0471  0.3665 -0.5221
  149DOPC  H14R17801  -2.560   0.141   0.618 -0.2643  0.0335 -2.3929
  149DOPC  H14S17802  -2.658   0.268   0.528  0.9784  0.9932 -0.2430
  149DOPC  C21517803  -2.751   0.102   0.636  0.4134 -0.3469 -0.3769
  149DOPC  H15R17804  -2.849   0.141   0.672 -0.5307 -2.5663 -0.4174
  149DOPC  H15S17805  -2.721   0.027   0.712 -2.0424 -1.1703 -0.1315
  149DOPC  C21617806  -2.759   0.022   0.505  0.0397 -0.2481 -0.2283
  149DOPC  H16R17807  -2.788   0.093   0.424  1.9829  1.3059  0.3636
  149DOPC  H16S17808  -2.849  -0.043   0.519 -1.2363  1.7298  1.2876
  149DOPC  C21717809  -2.632  -0.060   0.460 -0.3181 -0.4151  0.4424
  149DOPC  H17R17810  -2.548   0.009   0.435  0.5252 -1.7668 -0.6235
  149DOPC  H17S17811  -2.662  -0.106   0.363 -1.7912 -2.1279  1.6423
  149DOPC  C21817812  -2.584  -0.151   0.566 -0.3607 -0.6120 -0.1585
  149DOPC  H18R17813  -2.567  -0.087   0.655  2.6716  2.8596 -2.8759
  149DOPC  H18S17814  -2.488  -0.203   0.544 -0.8738 -0.9397 -1.8062
  149DOPC  H18T17815  -2.656  -0.228   0.600 -0.9461 -0.4708 -1.0337
  149DOPC   C3317816  -2.116   0.452   1.384 -0.1021 -0.2213 -0.9156
  149DOPC   H3X17817  -2.203   0.513   1.352  0.4411  0.7533 -0.5645
  149DOPC   H3Y17818  -2.143   0.345   1.366  2.1204 -0.4086 -3.9072
  149DOPC   C3417819  -1.982   0.485   1.328 -0.1194 -0.6822 -0.1712
  149DOPC   H4X17820  -1.921   0.393   1.340 -2.7019 -2.9349 -2.8480
  149DOPC   H4Y17821  -1.943   0.572   1.386  0.6934 -1.6159  0.7274
  149DOPC   C3517822  -1.978   0.526   1.180  0.5219  0.4417  0.0835
  149DOPC   H5X17823  -1.877   0.544   1.139  0.7568 -0.8548  0.0435
  149DOPC   H5Y17824  -2.046   0.614   1.179 -2.6665 -1.8238  0.7311
  149DOPC   C3617825  -2.020   0.417   1.076  0.0083 -0.1955  0.4024
  149DOPC   H6X17826  -1.953   0.330   1.095 -1.9680 -1.4105  2.3920
  149DOPC   H6Y17827  -2.129   0.395   1.080  0.2975 -1.6012  1.3996
  149DOPC   C3717828  -2.015   0.462   0.924  0.7201  0.0227 -0.3145
  149DOPC   H7X17829  -2.106   0.520   0.897 -0.3563 -0.0479  2.7727
  149DOPC   H7Y17830  -1.923   0.520   0.899  0.7624  0.6799  1.2346
  149DOPC   C3817831  -2.005   0.332   0.835  0.2982 -0.1531 -0.4687
  149DOPC   H8X17832  -1.920   0.266   0.863 -0.3220 -0.4009  0.9103
  149DOPC   H8Y17833  -1.983   0.378   0.736  0.9854 -0.4730 -0.4740
  149DOPC   C3917834  -2.132   0.252   0.827  0.0409  0.5181  0.0657
  149DOPC   H9X17835  -2.154   0.183   0.909 -2.3156  0.8338 -0.2259
  149DOPC  C31017836  -2.222   0.264   0.726 -0.5460 -0.4150 -0.6216
  149DOPC  H10X17837  -2.312   0.200   0.734 -1.5702  0.8954 -1.1999
  149DOPC  C31117838  -2.235   0.372   0.612 -0.4842  0.5300 -0.1818
  149DOPC  H11X17839  -2.164   0.456   0.631 -0.6912  0.6061  0.2714
  149DOPC  H11Y17840  -2.334   0.422   0.612 -0.7141  0.0789 -0.3359
  149DOPC  C31217841  -2.205   0.324   0.467  0.6422 -0.7546 -1.1905
  149DOPC  H12X17842  -2.112   0.265   0.483  1.1892 -0.0448 -1.6751
  149DOPC  H12Y17843  -2.190   0.416   0.405  2.5171  2.5096  3.4677
  149DOPC  C31317844  -2.318   0.241   0.410 -0.5195  0.1114  0.0707
  149DOPC  H13X17845  -2.364   0.163   0.475  1.1562 -1.7213 -0.8270
  149DOPC  H13Y17846  -2.394   0.320   0.394  0.3502  0.8118 -0.6831
  149DOPC  C31417847  -2.276   0.165   0.282 -0.7147 -0.0083  0.1612
  149DOPC  H14X17848  -2.235   0.234   0.205 -0.2554  0.1352  0.5265
  149DOPC  H14Y17849  -2.196   0.092   0.307 -0.0192  1.3716  2.2197
  149DOPC  C31517850  -2.394   0.078   0.218 -0.0430  0.4560 -0.0755
  149DOPC  H15X17851  -2.478   0.151   0.218  0.3776  0.9759  1.5435
  149DOPC  H15Y17852  -2.406  -0.006   0.290  1.6575 -1.4148 -1.8244
  149DOPC  C31617853  -2.378   0.016   0.076  0.5342 -0.4637 -0.7182
  149DOPC  H16X17854  -2.332   0.087   0.004  0.8251 -1.0748 -1.1463
  149DOPC  H16Y17855  -2.293  -0.055   0.082  1.7724  1.0422  0.1481
  149DOPC  C31717856  -2.503  -0.047   0.027  0.0867 -0.8336  0.0172
  149DOPC  H17X17857  -2.532  -0.124   0.101 -0.0253  0.1991  1.0915
  149DOPC  H17Y17858  -2.579   0.034   0.036  0.9599  0.1666 -1.1870
  149DOPC  C31817859  -2.498  -0.091  -0.127 -0.2113 -0.8675 -0.0302
  149DOPC  H18X17860  -2.440  -0.029  -0.198  1.3037 -2.3286 -0.1464
  149DOPC  H18Y17861  -2.445  -0.189  -0.129  1.2650 -0.0951  0.4378
  149DOPC  H18Z17862  -2.602  -0.104  -0.164 -1.0164 -1.4661  2.2968
  150DOPC     N17863   1.136  -2.226   3.044 -0.1608  0.7308 -0.2926
  150DOPC   C1217864   1.079  -2.228   2.903 -0.2169  0.0951  0.0528
  150DOPC  H12A17865   1.157  -2.239   2.829  1.2938  0.8117  1.4776
  150DOPC  H12B17866   1.047  -2.126   2.887  1.8720  0.6380 -1.0160
  150DOPC   C1317867   1.024  -2.234   3.149 -0.5799 -0.4543  0.3847
  150DOPC  H13A17868   1.061  -2.225   3.250 -0.7995 -1.4459  0.5565
  150DOPC  H13B17869   0.947  -2.167   3.114 -1.6817 -2.6516 -1.6204
  150DOPC  H13C17870   0.975  -2.330   3.149 -0.9350 -0.2830 -0.8537
  150DOPC   C1417871   1.227  -2.107   3.073 -0.2490 -0.3812 -0.1396
  150DOPC  H14A17872   1.309  -2.106   3.003 -0.2454 -2.7896 -0.2604
  150DOPC  H14B17873   1.173  -2.014   3.058 -0.2229 -0.5871 -1.5741
  150DOPC  H14C17874   1.281  -2.114   3.166  1.3913 -1.3069 -1.1281
  150DOPC   C1517875   1.220  -2.351   3.065 -0.0278  0.1463  0.0038
  150DOPC  H15A17876   1.264  -2.349   3.164  1.3737 -3.8137 -0.3635
  150DOPC  H15B17877   1.299  -2.357   2.992  0.2391 -1.3054  0.3855
  150DOPC  H15C17878   1.156  -2.436   3.049  0.0405  0.3227 -1.3449
  150DOPC   C1117879   0.969  -2.325   2.857 -0.6685  0.1350  0.4519
  150DOPC  H11A17880   0.873  -2.293   2.903 -1.7449  0.8606 -2.0785
  150DOPC  H11B17881   0.930  -2.318   2.753  0.5637 -1.7776 -0.1962
  150DOPC     P17882   1.072  -2.555   2.798  0.3611 -0.2191  0.3748
  150DOPC   O1317883   1.059  -2.685   2.866 -0.2655  0.3739 -0.3941
  150DOPC   O1417884   1.210  -2.506   2.766  0.4512  0.3694 -0.0264
  150DOPC   O1217885   1.004  -2.454   2.895  0.2929 -0.2184 -0.0733
  150DOPC   O1117886   0.984  -2.563   2.665 -0.7489  0.0694  0.0308
  150DOPC    C117887   1.016  -2.496   2.549 -0.2925 -0.0924 -0.0995
  150DOPC    HA17888   1.051  -2.394   2.573  0.0594 -0.1536 -0.3488
  150DOPC    HB17889   0.924  -2.481   2.488 -0.3561 -0.4095 -0.0834
  150DOPC    C217890   1.111  -2.572   2.450  0.5377 -0.3323  0.2443
  150DOPC    HS17891   1.212  -2.570   2.495  0.8606 -0.9986 -0.4320
  150DOPC   O2117892   1.111  -2.507   2.318  0.2351 -0.0403  0.5007
  150DOPC   C2117893   1.203  -2.411   2.298 -0.5069 -0.8674 -0.0743
  150DOPC   O2217894   1.283  -2.373   2.384 -0.3337  0.1786 -0.3580
  150DOPC   C2217895   1.208  -2.363   2.149 -0.2595 -0.1603  0.8626
  150DOPC   H2R17896   1.200  -2.451   2.082  0.6288  0.4076 -0.0162
  150DOPC   H2S17897   1.308  -2.320   2.128 -0.9625  0.8423 -0.5649
  150DOPC    C317898   1.081  -2.724   2.433  0.2642 -0.0568  0.9162
  150DOPC    HX17899   1.091  -2.784   2.526  0.9841  0.8240  1.4199
  150DOPC    HY17900   1.159  -2.754   2.360 -1.5732 -1.5744 -0.5215
  150DOPC   O3117901   0.958  -2.755   2.365 -0.2632 -0.0443 -0.2731
  150DOPC   C3117902   0.925  -2.881   2.367  0.1757 -0.0352 -0.2433
  150DOPC   O3217903   0.993  -2.971   2.414 -0.2881  0.6836 -0.6411
  150DOPC   C3217904   0.786  -2.901   2.311 -0.3132 -0.0584  0.3273
  150DOPC   H2X17905   0.719  -2.857   2.389 -0.4975 -0.1088  0.1977
  150DOPC   H2Y17906   0.783  -2.833   2.224 -1.5219 -0.6574 -0.1292
  150DOPC   C2317907   1.097  -2.260   2.101  0.1247  0.1098  0.1775
  150DOPC   H3R17908   1.123  -2.153   2.115 -0.6217  0.2716  0.3694
  150DOPC   H3S17909   0.999  -2.266   2.154  0.7542  2.1485  1.6794
  150DOPC   C2417910   1.061  -2.287   1.951  0.6117  0.5204  0.1018
  150DOPC   H4R17911   0.966  -2.234   1.928  0.0091 -0.6703 -0.2915
  150DOPC   H4S17912   1.024  -2.392   1.955 -0.8393  0.9942 -0.1760
  150DOPC   C2517913   1.175  -2.248   1.858  0.0025 -0.0729 -0.1636
  150DOPC   H5R17914   1.273  -2.292   1.887  0.2418  1.1251  0.9713
  150DOPC   H5S17915   1.196  -2.139   1.868  1.2005 -0.5025  5.8433
  150DOPC   C2617916   1.140  -2.274   1.710 -0.0782  0.4346  0.3895
  150DOPC   H6R17917   1.103  -2.376   1.686 -1.5670  1.0747 -0.1427
  150DOPC   H6S17918   1.234  -2.239   1.661  0.6799 -1.0647  0.7186
  150DOPC   C2717919   1.033  -2.179   1.654  0.3971  0.3176  0.2475
  150DOPC   H7R17920   1.046  -2.074   1.689  0.0906  0.8897 -1.2438
  150DOPC   H7S17921   0.931  -2.201   1.694  0.1964 -2.0616 -1.3853
  150DOPC   C2817922   1.031  -2.182   1.501  0.1254  0.2907  0.3009
  150DOPC   H8R17923   1.120  -2.128   1.462  0.1811  2.0135  2.5748
  150DOPC   H8S17924   0.941  -2.125   1.472 -0.3804 -0.5610  0.1726
  150DOPC   C2917925   1.021  -2.318   1.437  0.4311  0.5005  0.2315
  150DOPC   H9R17926   0.998  -2.397   1.510 -1.1131  0.8709  0.1707
  150DOPC  C21017927   1.024  -2.335   1.302  0.2124  1.1178  0.2822
  150DOPC  H10R17928   1.023  -2.441   1.270 -1.9382  1.3504 -0.5784
  150DOPC  C21117929   1.042  -2.229   1.201 -0.2477  0.2615  0.2165
  150DOPC  H11R17930   1.096  -2.140   1.240 -0.3928  0.5185 -0.1692
  150DOPC  H11S17931   0.939  -2.199   1.175 -0.3438  0.8021  1.1529
  150DOPC  C21217932   1.112  -2.276   1.073  0.8237 -0.1124 -0.0653
  150DOPC  H12R17933   1.065  -2.364   1.025  1.7039 -1.8634  2.0741
  150DOPC  H12S17934   1.215  -2.315   1.091  0.9245 -1.3466 -2.8802
  150DOPC  C21317935   1.131  -2.163   0.975  0.5893 -0.1143 -0.1000
  150DOPC  H13R17936   1.231  -2.167   0.927  0.5856  2.7423 -0.4960
  150DOPC  H13S17937   1.144  -2.065   1.025 -2.0382  1.6361 -2.5817
  150DOPC  C21417938   1.018  -2.151   0.875  0.5583 -0.8814 -0.7673
  150DOPC  H14R17939   0.937  -2.093   0.924  0.3124 -0.9309 -1.1157
  150DOPC  H14S17940   0.971  -2.249   0.853 -3.5720  0.1585  2.2497
  150DOPC  C21517941   1.055  -2.068   0.746 -0.2948  0.3758  0.1378
  150DOPC  H15R17942   1.148  -2.104   0.697 -0.1413  1.2552 -0.2164
  150DOPC  H15S17943   1.073  -1.970   0.794  0.6074 -0.6641  2.0709
  150DOPC  C21617944   0.938  -2.055   0.649 -0.6594 -0.3000  0.4155
  150DOPC  H16R17945   0.853  -2.044   0.720 -0.3741 -1.6535  1.0068
  150DOPC  H16S17946   0.919  -2.155   0.604 -0.9573 -0.5520  1.0809
  150DOPC  C21717947   0.938  -1.934   0.549 -0.2662  0.3126 -0.0433
  150DOPC  H17R17948   0.954  -1.844   0.612 -1.3131 -2.1440  4.0671
  150DOPC  H17S17949   0.835  -1.922   0.507 -0.3381  1.2965  0.3830
  150DOPC  C21817950   1.020  -1.947   0.417 -0.0558  0.2336 -0.0226
  150DOPC  H18R17951   1.117  -1.895   0.430  1.3125 -2.3584  0.9230
  150DOPC  H18S17952   0.956  -1.905   0.337 -1.3560 -0.5777  0.5523
  150DOPC  H18T17953   1.040  -2.055   0.402  3.1472  0.4315  1.8899
  150DOPC   C3317954   0.752  -3.049   2.278 -0.1049 -0.2315 -0.1174
  150DOPC   H3X17955   0.645  -3.050   2.250 -0.1287  0.4942 -0.0675
  150DOPC   H3Y17956   0.762  -3.126   2.358  1.6034 -0.5764 -0.6191
  150DOPC   C3417957   0.831  -3.089   2.153  0.8371 -0.1354  0.2924
  150DOPC   H4X17958   0.817  -3.195   2.125 -2.0351  0.1852  0.2610
  150DOPC   H4Y17959   0.938  -3.070   2.179  0.7330  1.6709 -0.4941
  150DOPC   C3517960   0.774  -3.023   2.032  0.0946 -0.3884 -0.3617
  150DOPC   H5X17961   0.760  -2.913   2.046  0.7168 -0.4930  1.2253
  150DOPC   H5Y17962   0.675  -3.067   2.006 -0.2505 -0.1318  0.4820
  150DOPC   C3617963   0.859  -3.029   1.901  0.1198  0.6008  0.4041
  150DOPC   H6X17964   0.789  -3.009   1.817  0.8276 -0.7357 -0.5522
  150DOPC   H6Y17965   0.937  -2.953   1.920 -0.2944  0.6543  1.9999
  150DOPC   C3717966   0.945  -3.155   1.902  0.5336 -0.0031 -0.0780
  150DOPC   H7X17967   1.030  -3.139   1.972  0.2352  2.9789 -0.2524
  150DOPC   H7Y17968   0.877  -3.233   1.942 -0.9059  1.7718  1.0967
  150DOPC   C3817969   0.972  -3.193   1.755 -0.2712 -0.7275  0.2754
  150DOPC   H8X17970   0.880  -3.178   1.695  0.6795 -0.2134 -1.1026
  150DOPC   H8Y17971   0.996  -3.301   1.746 -2.8004 -1.3117 -0.2996
  150DOPC   C3917972   1.086  -3.115   1.693 -0.5000 -0.2668 -0.2947
  150DOPC   H9X17973   1.166  -3.093   1.765  0.6453 -1.2431 -1.2381
  150DOPC  C31017974   1.121  -3.102   1.566 -0.0883  0.9364  0.1082
  150DOPC  H10X17975   1.208  -3.041   1.538  0.6344 -0.5396 -0.9783
  150DOPC  C31117976   1.022  -3.136   1.450 -0.0617  0.5223 -0.4498
  150DOPC  H11X17977   1.024  -3.042   1.390 -0.2725  2.4996  2.4445
  150DOPC  H11Y17978   0.920  -3.143   1.491 -0.1603 -1.3241 -0.9211
  150DOPC  C31217979   1.063  -3.257   1.364 -0.6470  0.0127 -0.1338
  150DOPC  H12X17980   0.979  -3.304   1.308 -0.3246  0.2428 -0.8314
  150DOPC  H12Y17981   1.096  -3.343   1.426 -1.0663 -1.8763 -2.3858
  150DOPC  C31317982   1.177  -3.227   1.264  0.5410  0.0011  0.0581
  150DOPC  H13X17983   1.145  -3.132   1.215  0.1069 -0.1362  0.0638
  150DOPC  H13Y17984   1.281  -3.207   1.296  0.2518  1.6825  0.0323
  150DOPC  C31417985   1.160  -3.328   1.148 -0.5776 -0.8777 -0.3084
  150DOPC  H14X17986   1.206  -3.421   1.188  0.7803 -0.0214  0.1843
  150DOPC  H14Y17987   1.053  -3.343   1.123 -0.3319 -0.7568 -1.4630
  150DOPC  C31517988   1.246  -3.293   1.023  0.3479  0.5879 -0.4666
  150DOPC  H15X17989   1.347  -3.263   1.057  0.3395 -0.2057  0.3029
  150DOPC  H15Y17990   1.201  -3.196   0.990 -0.0507  0.3715 -0.5659
  150DOPC  C31617991   1.254  -3.401   0.914  0.5621 -0.7812  0.2030
  150DOPC  H16X17992   1.273  -3.501   0.958  0.5797 -1.2179 -0.7655
  150DOPC  H16Y17993   1.158  -3.400   0.859  0.6814  0.4216  0.0029
  150DOPC  C31717994   1.372  -3.367   0.819 -1.1713  0.2180 -0.5757
  150DOPC  H17X17995   1.464  -3.365   0.881 -1.1584 -0.4367 -0.5647
  150DOPC  H17Y17996   1.379  -3.458   0.755 -1.8038 -0.0787 -0.2337
  150DOPC  C31817997   1.366  -3.236   0.742  0.2609 -0.3865 -0.4705
  150DOPC  H18X17998   1.282  -3.236   0.670  0.0698  0.4939 -0.2595
  150DOPC  H18Y17999   1.344  -3.152   0.811  1.6883  0.3906 -0.9180
  150DOPC  H18Z18000   1.459  -3.220   0.682  1.0343 -0.2440  0.7285
  151DOPC     N18001  -2.460   1.461   2.559 -0.0136  0.2419  0.9737
  151DOPC   C1218002  -2.575   1.438   2.448  0.2420 -0.0595 -0.9154
  151DOPC  H12A18003  -2.662   1.487   2.488  0.4899  0.9434 -1.5753
  151DOPC  H12B18004  -2.594   1.331   2.450  0.7025 -0.1322 -0.1883
  151DOPC   C1318005  -2.331   1.427   2.501  0.1264 -0.2176  0.9798
  151DOPC  H13A18006  -2.328   1.320   2.483 -2.5831  0.1112 -2.4885
  151DOPC  H13B18007  -2.317   1.477   2.407  0.3327  1.4611  1.8728
  151DOPC  H13C18008  -2.250   1.458   2.566  0.5191  1.5240 -0.2967
  151DOPC   C1418009  -2.479   1.389   2.683  0.4308 -0.7145  0.3835
  151DOPC  H14A18010  -2.457   1.284   2.669  1.2987 -1.0976  3.7386
  151DOPC  H14B18011  -2.415   1.424   2.763  0.4854 -1.6402  0.7582
  151DOPC  H14C18012  -2.580   1.381   2.720  0.7356 -1.6675  1.0499
  151DOPC   C1518013  -2.459   1.607   2.583  0.5424 -0.6828  0.2768
  151DOPC  H15A18014  -2.555   1.638   2.620 -0.0033  0.1059 -1.7009
  151DOPC  H15B18015  -2.438   1.670   2.498  3.0015 -0.6361  0.8271
  151DOPC  H15C18016  -2.389   1.638   2.660  2.0348  2.5634 -2.1496
  151DOPC   C1118017  -2.558   1.485   2.296  0.2374 -0.7384  0.3116
  151DOPC  H11A18018  -2.657   1.495   2.246 -0.4073 -1.4071  1.4156
  151DOPC  H11B18019  -2.509   1.585   2.298  1.9558 -1.5441  0.9909
  151DOPC     P18020  -2.492   1.289   2.141  0.0356  0.2097  0.0108
  151DOPC   O1318021  -2.574   1.190   2.217  0.3247 -0.4196  0.0791
  151DOPC   O1418022  -2.368   1.229   2.087  0.0127 -0.5870 -0.1405
  151DOPC   O1218023  -2.455   1.413   2.230  0.0101 -0.1301 -0.3558
  151DOPC   O1118024  -2.571   1.351   2.020 -0.3340  0.1456 -0.4248
  151DOPC    C118025  -2.505   1.413   1.909  0.1569  0.0263  0.1695
  151DOPC    HA18026  -2.401   1.442   1.936 -0.3047  2.0197 -0.0022
  151DOPC    HB18027  -2.558   1.507   1.883  0.0136 -0.6017 -1.9888
  151DOPC    C218028  -2.512   1.327   1.786  0.1107  0.4575 -0.4989
  151DOPC    HS18029  -2.503   1.389   1.694 -0.0146  0.8773 -0.2264
  151DOPC   O2118030  -2.630   1.253   1.774 -0.7423 -0.1150 -0.2122
  151DOPC   C2118031  -2.743   1.321   1.746 -0.5042 -0.2388 -0.2941
  151DOPC   O2218032  -2.734   1.435   1.704  0.4302 -0.0378  0.7251
  151DOPC   C2218033  -2.880   1.253   1.754  0.3378 -0.3787 -1.1791
  151DOPC   H2R18034  -2.956   1.331   1.731  1.5213  1.1110 -0.2667
  151DOPC   H2S18035  -2.897   1.230   1.862 -1.2345  1.5896 -0.9363
  151DOPC    C318036  -2.394   1.219   1.776  0.2482 -0.6620 -0.0641
  151DOPC    HX18037  -2.424   1.154   1.861 -0.1677  1.5789  1.6034
  151DOPC    HY18038  -2.295   1.255   1.812 -0.2168 -0.5405  1.1384
  151DOPC   O3118039  -2.388   1.157   1.642 -0.6093  0.7263 -0.2552
  151DOPC   C3118040  -2.463   1.049   1.634 -0.3830 -0.2278 -0.4922
  151DOPC   O3218041  -2.531   0.998   1.720  0.2035 -0.1660 -0.8753
  151DOPC   C3218042  -2.438   0.987   1.496 -0.1822 -0.3921  0.0651
  151DOPC   H2X18043  -2.511   0.906   1.478 -0.9643  0.7538 -2.4258
  151DOPC   H2Y18044  -2.466   1.069   1.426  0.9778 -0.5738 -0.6404
  151DOPC   C2318045  -2.898   1.129   1.669 -0.0524  0.4391 -0.4650
  151DOPC   H3R18046  -2.991   1.094   1.718  1.2287  0.0979  1.8908
  151DOPC   H3S18047  -2.825   1.051   1.700 -0.6829  0.0845  0.1716
  151DOPC   C2418048  -2.908   1.144   1.518  0.1729 -0.5269 -0.6271
  151DOPC   H4R18049  -2.957   1.238   1.486  0.4699 -0.7508 -1.7789
  151DOPC   H4S18050  -2.961   1.056   1.475 -1.4729  0.3894 -0.5461
  151DOPC   C2518051  -2.771   1.145   1.445 -0.2481  0.1508  0.2397
  151DOPC   H5R18052  -2.712   1.064   1.493 -1.3603 -0.5612  0.4249
  151DOPC   H5S18053  -2.738   1.251   1.449 -0.0174  0.1702 -1.4617
  151DOPC   C2618054  -2.800   1.126   1.294  0.0378  0.0093 -0.1949
  151DOPC   H6R18055  -2.867   1.210   1.266 -1.1520 -0.3305  1.4307
  151DOPC   H6S18056  -2.859   1.034   1.276 -0.2241  0.4005 -1.4314
  151DOPC   C2718057  -2.674   1.124   1.206  0.5025  0.5906 -0.5111
  151DOPC   H7R18058  -2.597   1.052   1.237 -0.8643 -0.9588 -0.5856
  151DOPC   H7S18059  -2.620   1.220   1.224 -0.6788  0.9803  1.1948
  151DOPC   C2818060  -2.698   1.088   1.057 -0.0046 -0.7741  0.7432
  151DOPC   H8R18061  -2.746   0.990   1.035 -0.3095 -0.3377 -0.6353
  151DOPC   H8S18062  -2.600   1.069   1.008 -0.8077  0.1620 -1.3247
  151DOPC   C2918063  -2.767   1.202   0.998  0.0859  0.8504 -0.4345
  151DOPC   H9R18064  -2.815   1.267   1.072 -0.9982 -0.2754 -0.1209
  151DOPC  C21018065  -2.781   1.218   0.864 -0.0438 -0.3224 -0.7194
  151DOPC  H10R18066  -2.844   1.298   0.823 -2.3669 -2.0970 -0.8101
  151DOPC  C21118067  -2.722   1.143   0.754  0.0419 -0.3080  0.0805
  151DOPC  H11R18068  -2.695   1.038   0.779  1.5530  0.2171  0.7566
  151DOPC  H11S18069  -2.632   1.197   0.718 -0.4372 -1.8428 -3.9497
  151DOPC  C21218070  -2.825   1.137   0.634 -0.3693 -0.1640  0.3893
  151DOPC  H12R18071  -2.850   1.243   0.613 -0.6790 -0.4088 -0.5201
  151DOPC  H12S18072  -2.908   1.070   0.668 -0.2777 -1.3338 -1.5303
  151DOPC  C21318073  -2.749   1.079   0.506  0.1582  0.3143  0.5792
  151DOPC  H13R18074  -2.719   0.974   0.526  0.8762  0.2530 -0.7076
  151DOPC  H13S18075  -2.655   1.139   0.503  0.2861  0.0738 -0.7238
  151DOPC  C21418076  -2.816   1.104   0.372  0.2755 -0.2750 -0.2629
  151DOPC  H14R18077  -2.844   1.209   0.350 -0.4865 -0.5699 -0.7354
  151DOPC  H14S18078  -2.916   1.057   0.378 -0.1035  0.3645 -1.3867
  151DOPC  C21518079  -2.734   1.043   0.260  0.2630 -0.0435  0.1072
  151DOPC  H15R18080  -2.803   1.020   0.176 -1.9460 -1.2810  2.1380
  151DOPC  H15S18081  -2.687   0.948   0.294  2.0801  2.2226  4.7105
  151DOPC  C21618082  -2.629   1.140   0.205 -0.1131 -0.0187 -0.4346
  151DOPC  H16R18083  -2.543   1.157   0.272 -1.3993 -1.0517  1.5828
  151DOPC  H16S18084  -2.668   1.243   0.188  1.3636  0.9932  1.8120
  151DOPC  C21718085  -2.567   1.081   0.078  0.4693 -0.2796 -0.0465
  151DOPC  H17R18086  -2.476   1.137   0.052  2.1221 -2.5447  0.4996
  151DOPC  H17S18087  -2.630   1.088  -0.013  1.7107  0.8531 -0.8435
  151DOPC  C21818088  -2.522   0.933   0.087  0.1224  0.2001  0.2569
  151DOPC  H18R18089  -2.598   0.863   0.129 -1.5248  0.5928 -1.8576
  151DOPC  H18S18090  -2.428   0.916   0.143  1.8097  0.9241 -2.2129
  151DOPC  H18T18091  -2.494   0.904  -0.017 -0.2007  0.7350  0.0139
  151DOPC   C3318092  -2.295   0.925   1.469  0.1237  0.1530  0.1260
  151DOPC   H3X18093  -2.280   0.830   1.525  1.8295  0.4364  0.2089
  151DOPC   H3Y18094  -2.221   0.998   1.508  1.3100 -1.8703  1.9178
  151DOPC   C3418095  -2.284   0.883   1.322 -0.0799 -0.3204  0.6116
  151DOPC   H4X18096  -2.184   0.843   1.294  0.1879  0.8845 -0.2120
  151DOPC   H4Y18097  -2.295   0.972   1.256  1.1931 -1.3499 -1.0639
  151DOPC   C3518098  -2.377   0.776   1.266 -0.7729 -0.0412  0.1652
  151DOPC   H5X18099  -2.482   0.797   1.297 -0.6537 -0.3649  0.8195
  151DOPC   H5Y18100  -2.344   0.686   1.323 -4.0140 -0.2486  1.9733
  151DOPC   C3618101  -2.356   0.750   1.118  0.0207  0.6221 -0.0167
  151DOPC   H6X18102  -2.248   0.740   1.094 -0.4016 -1.0374 -1.4468
  151DOPC   H6Y18103  -2.402   0.651   1.095  0.8538  0.4286 -0.9311
  151DOPC   C3718104  -2.419   0.858   1.027 -0.0833 -0.8286 -0.2839
  151DOPC   H7X18105  -2.528   0.865   1.048  0.1310 -0.7097  0.8581
  151DOPC   H7Y18106  -2.372   0.952   1.063 -1.5057 -0.0644 -0.3665
  151DOPC   C3818107  -2.395   0.808   0.885  0.0815  0.5102 -0.4508
  151DOPC   H8X18108  -2.477   0.734   0.869  0.5122  0.6498 -3.8662
  151DOPC   H8Y18109  -2.301   0.751   0.873  0.2668  0.9379 -1.0352
  151DOPC   C3918110  -2.411   0.907   0.774 -0.7745 -0.0943 -0.1723
  151DOPC   H9X18111  -2.432   1.011   0.805  0.6231 -0.1395  1.0608
  151DOPC  C31018112  -2.412   0.875   0.641 -0.3485  0.3056 -0.5556
  151DOPC  H10X18113  -2.420   0.957   0.568 -0.5220 -0.0646 -0.9623
  151DOPC  C31118114  -2.403   0.735   0.586  0.5024  0.0660  0.0677
  151DOPC  H11X18115  -2.440   0.659   0.658 -1.8244  0.8280 -0.2333
  151DOPC  H11Y18116  -2.302   0.713   0.544  0.4037  3.9575 -2.7219
  151DOPC  C31218117  -2.504   0.731   0.471 -0.1136  0.3716 -0.2222
  151DOPC  H12X18118  -2.465   0.786   0.382  3.9824 -4.1093 -1.6341
  151DOPC  H12Y18119  -2.604   0.773   0.496 -0.1721  0.0741  0.0470
  151DOPC  C31318120  -2.542   0.587   0.429 -0.3089  0.4697 -0.0532
  151DOPC  H13X18121  -2.453   0.538   0.384 -0.9064  1.1854 -2.1489
  151DOPC  H13Y18122  -2.597   0.530   0.507 -1.0112  0.5419 -0.4946
  151DOPC  C31418123  -2.643   0.588   0.307  0.0882  0.5230  0.1789
  151DOPC  H14X18124  -2.737   0.637   0.339  0.7732  1.8386  0.2481
  151DOPC  H14Y18125  -2.584   0.648   0.234  0.7122 -1.0411 -0.6586
  151DOPC  C31518126  -2.674   0.442   0.266 -0.0784  0.3621  0.3768
  151DOPC  H15X18127  -2.676   0.390   0.364  2.8068  2.7917  1.8824
  151DOPC  H15Y18128  -2.589   0.400   0.208  0.2629  0.4414  0.8170
  151DOPC  C31618129  -2.792   0.425   0.170 -1.2555 -0.7136  0.6191
  151DOPC  H16X18130  -2.797   0.318   0.140 -1.3699 -0.6701  0.4837
  151DOPC  H16Y18131  -2.892   0.459   0.205 -0.8672  1.6634 -0.4042
  151DOPC  C31718132  -2.784   0.502   0.038  0.0625 -0.9813  0.0098
  151DOPC  H17X18133  -2.835   0.600   0.046 -1.6454 -1.9576  1.9749
  151DOPC  H17Y18134  -2.677   0.513   0.010 -0.2977  1.1292 -0.6894
  151DOPC  C31818135  -2.853   0.431  -0.084  0.2508 -0.0544 -0.9847
  151DOPC  H18X18136  -2.847   0.493  -0.176 -3.2444  2.3336  0.1916
  151DOPC  H18Y18137  -2.804   0.332  -0.095  1.1921  0.2809  0.0216
  151DOPC  H18Z18138  -2.961   0.411  -0.065 -0.3598 -1.0170 -4.6020
  152DOPC     N18139  -0.061  -1.114   2.010  0.4905  0.1516 -0.3822
  152DOPC   C1218140  -0.030  -1.080   2.149 -0.2793 -0.1725 -0.8463
  152DOPC  H12A18141   0.021  -1.160   2.200 -0.2869  1.4772  1.9121
  152DOPC  H12B18142  -0.124  -1.066   2.200  1.1260 -2.6499  2.8075
  152DOPC   C1318143   0.060  -1.127   1.934  0.4022 -0.5038 -0.3413
  152DOPC  H13A18144   0.112  -1.033   1.927  2.6363 -1.3429  2.8788
  152DOPC  H13B18145   0.131  -1.189   1.987  1.6554  2.8726  2.2756
  152DOPC  H13C18146   0.045  -1.167   1.834 -0.5321 -1.5860  0.2045
  152DOPC   C1418147  -0.152  -1.012   1.946 -0.1783 -0.0499  0.1126
  152DOPC  H14A18148  -0.255  -1.010   1.980 -0.6299 -1.5205 -1.0403
  152DOPC  H14B18149  -0.104  -0.916   1.952  0.3578 -0.4129  2.2999
  152DOPC  H14C18150  -0.152  -1.051   1.845 -1.7981  0.2323 -0.0320
  152DOPC   C1518151  -0.131  -1.246   2.013  0.1808  0.0207 -0.1970
  152DOPC  H15A18152  -0.235  -1.243   2.042  0.5022 -0.3911  1.0653
  152DOPC  H15B18153  -0.091  -1.298   2.098  0.1123  1.6067  0.8374
  152DOPC  H15C18154  -0.112  -1.304   1.923 -0.6532 -1.4986  0.5678
  152DOPC   C1118155   0.057  -0.955   2.182 -0.7195  0.2972  0.8126
  152DOPC  H11A18156   0.064  -0.945   2.292 -1.2038  1.8891  0.7303
  152DOPC  H11B18157   0.157  -0.984   2.143 -0.0705 -0.8795  3.1894
  152DOPC     P18158   0.095  -0.726   2.061 -0.1674  0.0255 -0.9451
  152DOPC   O1318159   0.238  -0.773   2.066  0.0986  0.7022  0.3794
  152DOPC   O1418160   0.066  -0.590   2.125  0.1772  0.5339  0.3870
  152DOPC   O1218161   0.006  -0.838   2.130 -0.0883 -0.0509 -0.4730
  152DOPC   O1118162   0.046  -0.725   1.916 -0.1104 -0.4198 -0.2550
  152DOPC    C118163   0.145  -0.751   1.816 -0.2202  0.0526 -0.2646
  152DOPC    HA18164   0.156  -0.860   1.798 -0.3382  0.4506 -3.4225
  152DOPC    HB18165   0.242  -0.702   1.841  0.0406 -2.0070  3.3572
  152DOPC    C218166   0.093  -0.707   1.671 -0.0619 -0.7226  0.2900
  152DOPC    HS18167  -0.016  -0.730   1.673 -0.2650  0.1860  0.0829
  152DOPC   O2118168   0.146  -0.791   1.564  0.6691 -0.4339 -0.5961
  152DOPC   C2118169   0.086  -0.911   1.547 -0.3845  0.0843  0.3775
  152DOPC   O2218170  -0.003  -0.962   1.617 -0.9369 -0.0239 -0.1040
  152DOPC   C2218171   0.124  -0.968   1.411 -0.4444 -0.1706  0.4861
  152DOPC   H2R18172   0.214  -1.031   1.429  0.5906  0.6928 -1.3735
  152DOPC   H2S18173   0.156  -0.885   1.344  1.2691 -0.5217  0.8257
  152DOPC    C318174   0.106  -0.549   1.644 -0.3968 -0.8259 -0.7376
  152DOPC    HX18175   0.216  -0.534   1.643 -0.4811  1.5194  3.6009
  152DOPC    HY18176   0.065  -0.496   1.732  0.1522 -0.9110 -0.4278
  152DOPC   O3118177   0.048  -0.512   1.520 -0.1913  0.2066 -0.4205
  152DOPC   C3118178  -0.090  -0.502   1.516  0.1806 -0.3756  0.2860
  152DOPC   O3218179  -0.166  -0.535   1.604 -0.2139 -0.4398  0.0137
  152DOPC   C3218180  -0.117  -0.456   1.368  0.6422 -0.2107 -0.5838
  152DOPC   H2X18181  -0.228  -0.452   1.356  0.1997 -1.1923  2.4485
  152DOPC   H2Y18182  -0.073  -0.355   1.360  0.7236 -0.3723 -2.8051
  152DOPC   C2318183   0.013  -1.051   1.346 -0.0391  0.7040  0.3920
  152DOPC   H3R18184  -0.082  -0.995   1.333  0.0080  0.2899 -2.4783
  152DOPC   H3S18185  -0.013  -1.139   1.409  1.5403 -0.5859 -0.6412
  152DOPC   C2418186   0.061  -1.096   1.206  0.0829  0.1540  0.2285
  152DOPC   H4R18187   0.148  -1.164   1.219 -0.4086 -0.6577 -0.6116
  152DOPC   H4S18188   0.090  -1.005   1.150 -0.5425  0.7076  0.7864
  152DOPC   C2518189  -0.040  -1.174   1.121 -0.5270 -0.2234  0.5152
  152DOPC   H5R18190  -0.140  -1.129   1.143  0.4867  1.8018  1.3335
  152DOPC   H5S18191  -0.044  -1.282   1.144 -1.8876 -0.2590  0.2217
  152DOPC   C2618192   0.003  -1.169   0.974 -0.1062  0.6721  0.1499
  152DOPC   H6R18193  -0.053  -1.246   0.916  1.5626 -0.4715 -0.0161
  152DOPC   H6S18194   0.104  -1.213   0.958  0.4347  1.3341  1.6140
  152DOPC   C2718195  -0.016  -1.034   0.914 -0.9051 -0.3429 -0.0900
  152DOPC   H7R18196   0.069  -0.964   0.925  0.9476 -2.2710 -1.2914
  152DOPC   H7S18197  -0.103  -0.987   0.966  1.0677  1.5801  1.6426
  152DOPC   C2818198  -0.056  -1.042   0.767  0.1582  0.3028  0.4922
  152DOPC   H8R18199  -0.094  -0.947   0.723 -1.9785 -1.1268 -0.9152
  152DOPC   H8S18200  -0.131  -1.123   0.757  1.5424 -0.9002 -0.6084
  152DOPC   C2918201   0.066  -1.086   0.694  0.0774 -0.3425  0.4040
  152DOPC   H9R18202   0.147  -1.011   0.702 -0.9165  0.6801  1.1946
  152DOPC  C21018203   0.081  -1.193   0.616 -0.4172 -1.0916  0.2069
  152DOPC  H10R18204   0.176  -1.215   0.566  0.4298  2.0945  0.2339
  152DOPC  C21118205  -0.033  -1.276   0.560 -0.4921  0.3228  0.1945
  152DOPC  H11R18206  -0.137  -1.252   0.591 -1.1394 -1.3802 -0.5267
  152DOPC  H11S18207  -0.017  -1.383   0.586 -2.0769  0.1302  0.4748
  152DOPC  C21218208  -0.051  -1.263   0.402 -0.5490  0.1982 -0.3253
  152DOPC  H12R18209  -0.146  -1.319   0.387 -1.0255  1.0506 -0.5173
  152DOPC  H12S18210   0.042  -1.315   0.369  0.6608  0.1179  2.8438
  152DOPC  C21318211  -0.063  -1.125   0.337 -0.3862  0.3364  0.6035
  152DOPC  H13R18212   0.031  -1.073   0.366 -1.2030  0.9919  2.1940
  152DOPC  H13S18213  -0.140  -1.070   0.396 -0.4795  1.0263 -0.1428
  152DOPC  C21418214  -0.078  -1.137   0.182  0.7336  0.1390  0.3919
  152DOPC  H14R18215  -0.175  -1.188   0.161  1.7536 -1.3187 -0.9683
  152DOPC  H14S18216   0.002  -1.192   0.128  1.4703  2.6081 -1.1751
  152DOPC  C21518217  -0.078  -0.993   0.125  0.3797 -0.2606 -0.0414
  152DOPC  H15R18218   0.026  -0.956   0.137 -0.0542  0.4031  2.0563
  152DOPC  H15S18219  -0.153  -0.933   0.181  1.3540  2.2716 -1.3237
  152DOPC  C21618220  -0.116  -0.990  -0.023 -0.4269  0.3793  0.3718
  152DOPC  H16R18221  -0.199  -1.057  -0.054  0.0583 -0.2073  0.3245
  152DOPC  H16S18222  -0.028  -1.034  -0.075 -0.6651 -2.2129  1.9817
  152DOPC  C21718223  -0.143  -0.853  -0.086  1.1424 -0.3006 -0.6334
  152DOPC  H17R18224  -0.253  -0.841  -0.093  1.0574 -1.5839 -1.8904
  152DOPC  H17S18225  -0.099  -0.848  -0.187  2.0672  1.5291 -0.1923
  152DOPC  C21818226  -0.076  -0.738  -0.005  0.2461  0.1374  0.0690
  152DOPC  H18R18227  -0.102  -0.736   0.103 -2.0242 -1.5541 -0.3722
  152DOPC  H18S18228  -0.105  -0.639  -0.046  1.4909  0.9256  1.0313
  152DOPC  H18T18229   0.035  -0.740  -0.010  0.2258  1.5846 -2.1645
  152DOPC   C3318230  -0.071  -0.553   1.258  0.2880  0.3382 -0.2900
  152DOPC   H3X18231  -0.136  -0.643   1.259  0.0382  0.5105 -0.7751
  152DOPC   H3Y18232   0.027  -0.592   1.294  0.0064  1.1729  1.4687
  152DOPC   C3418233  -0.068  -0.494   1.118  0.2384 -0.5140  0.4909
  152DOPC   H4X18234  -0.013  -0.400   1.095  2.0703 -1.2445  1.6553
  152DOPC   H4Y18235  -0.173  -0.474   1.089  0.2218 -0.4028  0.6287
  152DOPC   C3518236   0.003  -0.584   1.011  0.4414  0.0807 -0.0398
  152DOPC   H5X18237  -0.053  -0.678   0.990  0.2676  0.5544 -1.8657
  152DOPC   H5Y18238   0.105  -0.612   1.046 -0.0149 -2.2568 -0.4337
  152DOPC   C3618239   0.015  -0.512   0.877 -0.3330 -0.1321 -0.4103
  152DOPC   H6X18240  -0.091  -0.481   0.861 -1.0979 -1.5826  1.5270
  152DOPC   H6Y18241   0.079  -0.421   0.884 -1.6541  0.9004 -1.1274
  152DOPC   C3718242   0.060  -0.593   0.758  0.1896  0.3443  0.3537
  152DOPC   H7X18243   0.171  -0.582   0.765  0.3318 -0.8994  0.4723
  152DOPC   H7Y18244   0.033  -0.701   0.761 -0.5037  0.5168  0.3335
  152DOPC   C3818245   0.020  -0.541   0.619  0.8179 -0.2692 -0.0337
  152DOPC   H8X18246   0.062  -0.439   0.607  0.3795  0.4486  3.4840
  152DOPC   H8Y18247  -0.090  -0.529   0.635  0.9459 -0.5927  1.1722
  152DOPC   C3918248   0.066  -0.650   0.521 -0.1862  0.2410 -0.5277
  152DOPC   H9X18249   0.050  -0.754   0.552  0.0503  0.4654  0.3593
  152DOPC  C31018250   0.112  -0.623   0.401  0.1431  0.0296  0.5194
  152DOPC  H10X18251   0.143  -0.708   0.339  0.2697  0.3353  0.1565
  152DOPC  C31118252   0.148  -0.492   0.328  0.3640 -0.0236 -0.2120
  152DOPC  H11X18253   0.258  -0.483   0.315  0.0174  1.8367 -2.8505
  152DOPC  H11Y18254   0.106  -0.401   0.376  0.8262  0.7744 -1.2698
  152DOPC  C31218255   0.088  -0.491   0.187 -0.2020 -0.2661  0.3296
  152DOPC  H12X18256  -0.022  -0.496   0.174 -0.3302  0.8492  0.8700
  152DOPC  H12Y18257   0.118  -0.586   0.137 -0.6894 -0.7070  0.8604
  152DOPC  C31318258   0.137  -0.362   0.117  1.1789 -0.1506 -0.2725
  152DOPC  H13X18259   0.097  -0.275   0.173  0.4406 -1.4721  1.3230
  152DOPC  H13Y18260   0.244  -0.357   0.088  1.1464 -0.1205 -0.3892
  152DOPC  C31418261   0.065  -0.346  -0.022  0.3228 -0.3072 -0.7640
  152DOPC  H14X18262   0.088  -0.424  -0.098 -0.7370 -1.0711 -0.3233
  152DOPC  H14Y18263  -0.042  -0.363   0.003  0.7684  1.8399  3.3914
  152DOPC  C31518264   0.087  -0.210  -0.084  0.4045 -0.5048  0.5360
  152DOPC  H15X18265   0.090  -0.139   0.001 -0.8804  1.7457 -1.1833
  152DOPC  H15Y18266  -0.002  -0.178  -0.143  0.3816  1.0089  1.3285
  152DOPC  C31618267   0.217  -0.196  -0.171  0.6094  0.0417  0.2770
  152DOPC  H16X18268   0.301  -0.237  -0.112 -1.0571 -0.3049  2.5596
  152DOPC  H16Y18269   0.207  -0.269  -0.254 -1.5212  1.9657 -1.2743
  152DOPC  C31718270   0.235  -0.049  -0.236  0.8746  0.3946 -0.2926
  152DOPC  H17X18271   0.152  -0.031  -0.307 -0.5659  1.2482  1.5170
  152DOPC  H17Y18272   0.210   0.018  -0.151 -3.5331  0.7970 -1.6786
  152DOPC  C31818273   0.378  -0.033  -0.287  0.1052  0.1727 -0.0859
  152DOPC  H18X18274   0.391   0.070  -0.328 -2.0881 -0.0190 -1.4292
  152DOPC  H18Y18275   0.446  -0.050  -0.201  1.0896 -2.4057 -1.2457
  152DOPC  H18Z18276   0.395  -0.111  -0.364 -5.0456 -1.1706 -0.1624
  153DOPC     N18277   1.627   3.275   2.723 -0.5479  0.6323 -0.3820
  153DOPC   C1218278   1.634   3.398   2.626 -0.4010 -0.3752 -0.1777
  153DOPC  H12A18279   1.573   3.374   2.540  0.4001  0.1036 -0.8999
  153DOPC  H12B18280   1.735   3.409   2.589 -0.7237  2.8689 -0.3902
  153DOPC   C1318281   1.734   3.274   2.824 -0.4099  0.5545 -0.1319
  153DOPC  H13A18282   1.730   3.363   2.886 -2.6627  0.3297  0.1559
  153DOPC  H13B18283   1.711   3.189   2.887 -0.5848 -0.3059 -1.3126
  153DOPC  H13C18284   1.827   3.257   2.773 -1.5727 -0.9845 -1.8678
  153DOPC   C1418285   1.649   3.147   2.643  0.0038 -0.0501 -0.1414
  153DOPC  H14A18286   1.619   3.055   2.692 -0.5833 -1.1822 -2.4563
  153DOPC  H14B18287   1.582   3.162   2.560 -0.3263 -0.4139  0.0547
  153DOPC  H14C18288   1.749   3.140   2.603  0.4066  0.1457  0.7999
  153DOPC   C1518289   1.498   3.280   2.800 -0.1131 -0.0440  0.3320
  153DOPC  H15A18290   1.414   3.270   2.732 -0.2078  0.2842  0.3996
  153DOPC  H15B18291   1.484   3.380   2.839  1.0180  1.1639 -2.1176
  153DOPC  H15C18292   1.484   3.206   2.877 -2.0795 -0.3916 -0.3014
  153DOPC   C1118293   1.599   3.535   2.681  0.1962  1.2987 -0.7372
  153DOPC  H11A18294   1.656   3.552   2.775  2.2523 -1.0715 -1.4510
  153DOPC  H11B18295   1.622   3.617   2.610 -0.3617  3.1565  1.1252
  153DOPC     P18296   1.348   3.561   2.602 -0.0517  0.3407  0.2410
  153DOPC   O1318297   1.282   3.691   2.610  0.1718  0.4643  0.0060
  153DOPC   O1418298   1.259   3.444   2.603  0.6730  0.0766  0.0194
  153DOPC   O1218299   1.459   3.545   2.712  0.1983  0.2705 -0.2730
  153DOPC   O1118300   1.430   3.556   2.467  0.0491 -0.5635 -0.6597
  153DOPC    C118301   1.401   3.487   2.348 -0.0611  0.2845  0.1464
  153DOPC    HA18302   1.345   3.392   2.365  1.9180 -1.1365 -0.9560
  153DOPC    HB18303   1.494   3.465   2.293  0.7472  0.5299  1.3858
  153DOPC    C218304   1.315   3.570   2.250  0.0406  0.3980  0.5012
  153DOPC    HS18305   1.208   3.557   2.275  0.3275 -1.3520  0.9804
  153DOPC   O2118306   1.334   3.519   2.114  0.1698 -0.2902 -0.1547
  153DOPC   C2118307   1.281   3.402   2.093  0.7895 -0.0457 -0.4707
  153DOPC   O2218308   1.197   3.346   2.159 -0.1708  0.1508 -0.2847
  153DOPC   C2218309   1.337   3.357   1.961 -0.3228  0.6889 -0.3549
  153DOPC   H2R18310   1.430   3.299   1.979 -0.5242  0.0840 -1.1978
  153DOPC   H2S18311   1.353   3.452   1.906 -1.9036  1.6937  0.8310
  153DOPC    C318312   1.344   3.718   2.256 -0.4811 -0.0304  0.3056
  153DOPC    HX18313   1.446   3.725   2.301 -0.8469 -0.9713  1.3277
  153DOPC    HY18314   1.269   3.767   2.322  0.6228  1.7587  0.2972
  153DOPC   O3118315   1.329   3.770   2.118  0.6983 -0.4055  0.2488
  153DOPC   C3118316   1.347   3.899   2.121 -0.0203  1.0212  0.3533
  153DOPC   O3218317   1.358   3.967   2.222 -0.1814 -0.1140 -0.2427
  153DOPC   C3218318   1.349   3.952   1.975  0.2192  1.0541 -0.0149
  153DOPC   H2X18319   1.344   4.062   1.987  0.4451  1.2439 -1.4652
  153DOPC   H2Y18320   1.439   3.911   1.925  0.1735  3.1074 -1.9676
  153DOPC   C2318321   1.240   3.255   1.901 -0.1776 -0.2523  0.3890
  153DOPC   H3R18322   1.145   3.304   1.871 -0.2416 -0.0691  0.8877
  153DOPC   H3S18323   1.208   3.181   1.977 -0.7204 -0.6829 -0.2473
  153DOPC   C2418324   1.305   3.192   1.775  0.4185 -0.2125 -0.6924
  153DOPC   H4R18325   1.403   3.145   1.796  0.5019  0.7065  1.1993
  153DOPC   H4S18326   1.323   3.270   1.699  0.1298 -0.8840 -1.4592
  153DOPC   C2518327   1.219   3.088   1.708 -0.3657  0.2883  0.1370
  153DOPC   H5R18328   1.121   3.137   1.692 -0.0615  0.9237  0.1845
  153DOPC   H5S18329   1.203   3.001   1.776 -0.3456  0.9314  0.9896
  153DOPC   C2618330   1.271   3.036   1.578 -0.0895  0.4282  0.0454
  153DOPC   H6R18331   1.379   3.011   1.574 -0.1547  0.0112  0.7459
  153DOPC   H6S18332   1.253   3.110   1.496 -1.4646 -0.3324 -0.3746
  153DOPC   C2718333   1.191   2.915   1.528 -0.1792  0.9576 -0.0799
  153DOPC   H7R18334   1.082   2.935   1.516 -0.4211  0.7296  1.5172
  153DOPC   H7S18335   1.194   2.838   1.608 -3.2700  0.0141 -0.7315
  153DOPC   C2818336   1.249   2.844   1.403 -0.1537 -0.1306  0.0626
  153DOPC   H8R18337   1.340   2.794   1.443 -0.0940 -0.3951 -0.3925
  153DOPC   H8S18338   1.288   2.919   1.331  2.7140 -1.5729 -0.0238
  153DOPC   C2918339   1.153   2.746   1.339 -0.1497 -0.6785 -0.4890
  153DOPC   H9R18340   1.140   2.647   1.383 -1.9332  0.0124  0.6551
  153DOPC  C21018341   1.073   2.775   1.232  0.7419  0.2013 -1.1868
  153DOPC  H10R18342   1.009   2.696   1.190  0.6062 -0.9954  1.0984
  153DOPC  C21118343   1.069   2.908   1.171  0.0764 -0.6638 -0.1836
  153DOPC  H11R18344   1.097   2.989   1.240 -1.6108  1.0415 -1.3999
  153DOPC  H11S18345   0.964   2.938   1.150  0.7398  2.3968  0.4730
  153DOPC  C21218346   1.168   2.916   1.057 -0.1290 -0.3504  0.2193
  153DOPC  H12R18347   1.272   2.898   1.092  0.5368  2.8753  0.2502
  153DOPC  H12S18348   1.158   3.022   1.024 -1.1814 -0.1661  1.0654
  153DOPC  C21318349   1.138   2.836   0.928  0.5382  0.4042 -0.6162
  153DOPC  H13R18350   1.028   2.828   0.916  0.6773 -1.4723 -0.9213
  153DOPC  H13S18351   1.188   2.737   0.941 -0.3016 -0.3582 -2.8294
  153DOPC  C21418352   1.189   2.898   0.802 -0.2895  0.5602 -0.3664
  153DOPC  H14R18353   1.291   2.924   0.836  0.6377 -1.1082 -1.6899
  153DOPC  H14S18354   1.132   2.990   0.775 -1.3049  0.1659  0.3865
  153DOPC  C21518355   1.207   2.807   0.680 -0.6094 -0.3722  0.0521
  153DOPC  H15R18356   1.226   2.702   0.712  0.6553 -0.6854 -1.6244
  153DOPC  H15S18357   1.288   2.849   0.617  0.6032 -2.2089  0.2966
  153DOPC  C21618358   1.084   2.796   0.586  0.0212  0.8180  0.0362
  153DOPC  H16R18359   0.999   2.788   0.656 -0.0397 -4.2737 -0.2368
  153DOPC  H16S18360   1.104   2.700   0.534 -0.1760  0.8062 -0.0158
  153DOPC  C21718361   1.078   2.910   0.485 -0.3869  0.6734  0.1832
  153DOPC  H17R18362   1.169   2.910   0.422  0.4354 -0.1304  1.3416
  153DOPC  H17S18363   1.081   3.003   0.544  2.8379 -0.4724  2.0898
  153DOPC  C21818364   0.960   2.898   0.390 -0.6013  0.3101  0.2015
  153DOPC  H18R18365   0.980   2.950   0.294  1.1636  1.1764  0.9934
  153DOPC  H18S18366   0.874   2.936   0.450 -0.3996 -0.0726  0.7438
  153DOPC  H18T18367   0.948   2.789   0.370  0.6569  0.0915  0.5594
  153DOPC   C3318368   1.225   3.897   1.895 -0.6985 -0.7439 -0.4673
  153DOPC   H3X18369   1.128   3.935   1.934  0.4682 -0.0071  1.9320
  153DOPC   H3Y18370   1.230   3.786   1.903  1.2619 -0.6664 -0.2355
  153DOPC   C3418371   1.228   3.919   1.743  0.3507  0.3317 -0.8159
  153DOPC   H4X18372   1.132   3.887   1.698  0.4708  0.1485 -0.9446
  153DOPC   H4Y18373   1.315   3.868   1.695  1.0346  0.4727  0.2537
  153DOPC   C3518374   1.249   4.070   1.707 -0.0473  0.5437  0.3438
  153DOPC   H5X18375   1.359   4.083   1.722  0.0764  1.6976 -1.2775
  153DOPC   H5Y18376   1.199   4.147   1.771 -1.0759  1.8817 -1.9527
  153DOPC   C3618377   1.212   4.096   1.566  0.5455  0.3392 -0.4732
  153DOPC   H6X18378   1.102   4.107   1.576  0.8052  0.6975  4.0658
  153DOPC   H6Y18379   1.258   4.192   1.533  1.4420  0.0889  0.0207
  153DOPC   C3718380   1.250   3.987   1.466  0.0014 -0.1147  0.5929
  153DOPC   H7X18381   1.359   3.965   1.477  0.3611  0.1190 -2.0134
  153DOPC   H7Y18382   1.191   3.899   1.499 -0.5082  0.5308  1.4596
  153DOPC   C3818383   1.215   4.028   1.324 -0.2412  0.1385 -0.1984
  153DOPC   H8X18384   1.287   4.108   1.297 -0.9407  0.9210  0.2364
  153DOPC   H8Y18385   1.114   4.072   1.340  0.2273  0.8877  0.8235
  153DOPC   C3918386   1.200   3.914   1.226  0.9174 -0.0173 -0.1486
  153DOPC   H9X18387   1.229   3.816   1.269 -0.3271  1.1230  3.6449
  153DOPC  C31018388   1.134   3.913   1.109 -0.2506 -0.0504 -0.0937
  153DOPC  H10X18389   1.123   3.823   1.046  0.7655 -0.5712  0.4381
  153DOPC  C31118390   1.089   4.043   1.038 -0.0826  0.2566  0.1005
  153DOPC  H11X18391   1.152   4.130   1.065 -1.0305  0.8689  0.3692
  153DOPC  H11Y18392   0.981   4.062   1.055 -0.0376  0.2648  0.3683
  153DOPC  C31218393   1.121   4.028   0.884 -0.4679  0.3724  0.0780
  153DOPC  H12X18394   1.059   3.942   0.851  1.5000 -0.7015 -0.9861
  153DOPC  H12Y18395   1.223   3.997   0.853 -0.5803  0.0080  0.0655
  153DOPC  C31318396   1.073   4.152   0.812 -0.5782  0.1778  1.1527
  153DOPC  H13X18397   0.965   4.169   0.834 -0.2151  0.1345  3.1671
  153DOPC  H13Y18398   1.119   4.241   0.860 -0.5635  0.8751 -0.1148
  153DOPC  C31418399   1.112   4.140   0.665  0.2119  0.5768  0.1679
  153DOPC  H14X18400   1.220   4.118   0.658 -0.0562 -0.4298 -1.2422
  153DOPC  H14Y18401   1.055   4.054   0.624 -0.5608  0.9508  0.4361
  153DOPC  C31518402   1.066   4.262   0.574 -0.4359  0.3998  0.0243
  153DOPC  H15X18403   1.085   4.359   0.623 -1.5973  0.9626 -0.5812
  153DOPC  H15Y18404   0.956   4.252   0.563 -0.2701 -0.7465 -0.7879
  153DOPC  C31618405   1.135   4.261   0.437  0.6667  0.0450  0.4007
  153DOPC  H16X18406   1.242   4.234   0.444  1.0254  1.1497 -0.5216
  153DOPC  H16Y18407   1.080   4.184   0.379  0.1061  0.3628  0.5053
  153DOPC  C31718408   1.126   4.399   0.364  0.0051  0.0592 -0.3646
  153DOPC  H17X18409   1.023   4.439   0.352  0.1895  0.6887  0.0653
  153DOPC  H17Y18410   1.176   4.474   0.430 -0.1186  0.5404 -0.8112
  153DOPC  C31818411   1.196   4.413   0.221 -0.4616 -0.4249  0.3075
  153DOPC  H18X18412   1.129   4.386   0.137  0.2705  1.8128 -1.0681
  153DOPC  H18Y18413   1.229   4.518   0.205 -2.6856  0.1692 -0.7620
  153DOPC  H18Z18414   1.286   4.348   0.227 -1.3933 -1.7507  0.2017
  154DOPC     N18415   2.570  -0.339   2.322  0.5713 -0.0953 -0.2453
  154DOPC   C1218416   2.560  -0.188   2.300 -0.1193 -0.4307 -0.1147
  154DOPC  H12A18417   2.658  -0.155   2.269 -0.4032 -0.8823 -1.5470
  154DOPC  H12B18418   2.534  -0.132   2.389 -0.4269  1.0768 -1.1126
  154DOPC   C1318419   2.676  -0.380   2.424 -0.5585  1.2879  0.1389
  154DOPC  H13A18420   2.695  -0.485   2.411 -0.1356  1.4813 -0.9399
  154DOPC  H13B18421   2.771  -0.335   2.401  0.8967 -1.6345 -0.0171
  154DOPC  H13C18422   2.652  -0.365   2.528  1.2044 -0.5843  0.8783
  154DOPC   C1418423   2.614  -0.407   2.193 -0.1751  0.1925  0.0150
  154DOPC  H14A18424   2.613  -0.515   2.199  0.4314  0.1184 -0.9595
  154DOPC  H14B18425   2.552  -0.370   2.113 -1.2036 -1.0470  0.2017
  154DOPC  H14C18426   2.718  -0.383   2.176 -0.8354  0.9202 -3.8892
  154DOPC   C1518427   2.443  -0.392   2.373 -0.5445  0.3609  0.0411
  154DOPC  H15A18428   2.414  -0.332   2.458  3.3206 -0.8922  2.5205
  154DOPC  H15B18429   2.438  -0.494   2.407  0.8337  0.4090  0.4518
  154DOPC  H15C18430   2.370  -0.377   2.295  0.7352  0.9627 -1.0726
  154DOPC   C1118431   2.472  -0.128   2.199  0.4044  0.2315  0.6662
  154DOPC  H11A18432   2.487  -0.018   2.191 -0.6686  0.5348  2.2363
  154DOPC  H11B18433   2.486  -0.181   2.103 -1.4774 -1.5247  1.2854
  154DOPC     P18434   2.242  -0.102   2.350  0.0714 -0.0544  0.2604
  154DOPC   O1318435   2.317  -0.009   2.436 -0.3694  0.7058 -0.5089
  154DOPC   O1418436   2.185  -0.220   2.417  0.0802  0.0054 -0.3577
  154DOPC   O1218437   2.335  -0.157   2.225 -0.5150 -0.0213  0.3453
  154DOPC   O1118438   2.120  -0.018   2.280  0.2784  0.3335  0.6339
  154DOPC    C118439   2.154   0.063   2.165 -0.5168 -0.5987  0.2040
  154DOPC    HA18440   2.258   0.102   2.169 -0.9825  0.5686  1.3501
  154DOPC    HB18441   2.095   0.157   2.168 -2.0430 -1.5151  0.1197
  154DOPC    C218442   2.118  -0.005   2.036  0.2319 -0.0635  0.1437
  154DOPC    HS18443   2.189  -0.089   2.020 -1.2077 -1.5965  1.4477
  154DOPC   O2118444   2.115   0.084   1.922 -0.6313  0.3149 -0.1519
  154DOPC   C2118445   2.235   0.104   1.872 -0.3423  0.0156  0.1772
  154DOPC   O2218446   2.339   0.058   1.922  0.0258 -0.1373  0.8640
  154DOPC   C2218447   2.224   0.195   1.745 -0.4245 -0.5677 -0.3053
  154DOPC   H2R18448   2.254   0.297   1.775  0.7227 -1.5611  2.2005
  154DOPC   H2S18449   2.117   0.211   1.721 -0.9272 -1.5254  1.1593
  154DOPC    C318450   1.977  -0.087   2.048  0.2481 -1.0780  0.5014
  154DOPC    HX18451   1.896  -0.022   2.087 -0.4609 -0.9485 -1.1358
  154DOPC    HY18452   1.996  -0.168   2.122 -1.9846 -0.9005  1.3270
  154DOPC   O3118453   1.940  -0.146   1.917 -0.1094 -0.3397  0.2491
  154DOPC   C3118454   1.880  -0.072   1.827  0.5342  0.3897  0.5166
  154DOPC   O3218455   1.842   0.043   1.845 -0.3504 -0.2802  0.3183
  154DOPC   C3218456   1.871  -0.153   1.695  0.5019 -0.0389 -0.2093
  154DOPC   H2X18457   1.961  -0.214   1.672  0.7510  0.4735 -0.6136
  154DOPC   H2Y18458   1.800  -0.232   1.727 -0.2050  0.9363  0.7120
  154DOPC   C2318459   2.309   0.142   1.628 -0.0149 -0.3491 -0.2450
  154DOPC   H3R18460   2.295   0.032   1.624  1.6799 -0.6216  0.5239
  154DOPC   H3S18461   2.414   0.157   1.660 -0.3522  0.2687  0.6425
  154DOPC   C2418462   2.275   0.204   1.503 -0.4739 -0.1601 -0.3489
  154DOPC   H4R18463   2.280   0.313   1.525 -2.3590 -0.5490  2.6807
  154DOPC   H4S18464   2.179   0.171   1.458 -2.0376  0.4559  2.3195
  154DOPC   C2518465   2.396   0.176   1.408  0.0691  0.4766  0.2652
  154DOPC   H5R18466   2.415   0.068   1.388  1.3236  0.7453 -0.0763
  154DOPC   H5S18467   2.489   0.208   1.461 -1.2078 -0.4418  3.2657
  154DOPC   C2618468   2.392   0.250   1.272  0.4607 -1.0903 -0.4170
  154DOPC   H6R18469   2.490   0.228   1.224  0.8757  0.2973 -0.2564
  154DOPC   H6S18470   2.391   0.358   1.296 -0.3277 -0.8413 -1.5035
  154DOPC   C2718471   2.277   0.213   1.173  0.0325 -0.1730  0.1290
  154DOPC   H7R18472   2.180   0.258   1.205  0.6267  1.2537 -0.0041
  154DOPC   H7S18473   2.268   0.103   1.159  0.4814 -0.1775 -0.1386
  154DOPC   C2818474   2.298   0.295   1.035 -0.0894 -0.8257 -0.7485
  154DOPC   H8R18475   2.397   0.273   0.990 -0.6014  0.7106 -2.7496
  154DOPC   H8S18476   2.295   0.403   1.062 -0.7694 -0.7522 -1.0942
  154DOPC   C2918477   2.182   0.268   0.934  0.0043 -0.1929 -0.8338
  154DOPC   H9R18478   2.080   0.255   0.971  0.5860 -4.3275 -0.2111
  154DOPC  C21018479   2.213   0.276   0.806  0.0325  0.6323 -0.7724
  154DOPC  H10R18480   2.121   0.266   0.746 -2.2223  1.9229  2.1844
  154DOPC  C21118481   2.351   0.289   0.743 -0.1080  0.2620  0.0977
  154DOPC  H11R18482   2.420   0.208   0.772 -0.8175 -0.4227 -0.0902
  154DOPC  H11S18483   2.409   0.379   0.772  0.2375  0.1459 -0.2124
  154DOPC  C21218484   2.349   0.296   0.588 -0.0852  0.1719 -0.3965
  154DOPC  H12R18485   2.302   0.197   0.567 -2.2523  1.1496 -0.4090
  154DOPC  H12S18486   2.456   0.304   0.558  0.6255 -0.1130  1.9127
  154DOPC  C21318487   2.279   0.411   0.520 -0.4341 -0.0064 -0.8846
  154DOPC  H13R18488   2.315   0.507   0.563 -0.5527 -0.1896 -0.3719
  154DOPC  H13S18489   2.169   0.417   0.533 -0.3154 -1.2660  0.9655
  154DOPC  C21418490   2.321   0.406   0.368  0.6667  0.1600  0.4643
  154DOPC  H14R18491   2.296   0.303   0.334 -0.3104  1.5338 -3.4906
  154DOPC  H14S18492   2.430   0.422   0.354  0.6349 -0.8795 -1.3177
  154DOPC  C21518493   2.245   0.489   0.264  0.0498 -0.2513 -0.3543
  154DOPC  H15R18494   2.270   0.596   0.281  2.2205 -0.8541  0.5527
  154DOPC  H15S18495   2.137   0.470   0.279  0.3893 -0.5800  1.9813
  154DOPC  C21618496   2.291   0.461   0.119 -0.1416 -0.3886  0.1092
  154DOPC  H16R18497   2.245   0.366   0.085 -1.6057  0.0489  0.8011
  154DOPC  H16S18498   2.401   0.447   0.119 -0.1581 -0.5363 -0.2663
  154DOPC  C21718499   2.252   0.573   0.022 -0.0094 -0.1005  0.7360
  154DOPC  H17R18500   2.305   0.666   0.053 -1.1225  0.5481  0.7204
  154DOPC  H17S18501   2.143   0.589   0.027  0.0750  0.2119  1.7430
  154DOPC  C21818502   2.295   0.536  -0.124 -0.0303  0.2153 -0.5772
  154DOPC  H18R18503   2.214   0.485  -0.181  0.0311 -0.6994  0.1395
  154DOPC  H18S18504   2.388   0.476  -0.121 -1.5312 -2.2189  0.9396
  154DOPC  H18T18505   2.312   0.624  -0.191 -0.6434  0.0791 -0.9272
  154DOPC   C3318506   1.824  -0.073   1.573  0.6499 -0.0567 -0.0515
  154DOPC   H3X18507   1.773   0.023   1.594  3.5211  1.1817  1.8537
  154DOPC   H3Y18508   1.751  -0.127   1.508 -0.5191  0.6843  0.6075
  154DOPC   C3418509   1.943  -0.035   1.482 -0.2880  0.5637 -0.8654
  154DOPC   H4X18510   1.993  -0.128   1.445  0.4071 -0.1635  1.7049
  154DOPC   H4Y18511   2.018   0.022   1.541  2.8345 -0.2929 -3.6804
  154DOPC   C3518512   1.917   0.046   1.359  0.7144 -0.5296  0.4981
  154DOPC   H5X18513   2.002   0.062   1.288 -0.2282  0.4027 -0.4599
  154DOPC   H5Y18514   1.902   0.149   1.398  0.9101  0.0891 -0.9997
  154DOPC   C3618515   1.793   0.009   1.269  0.0479  0.9047 -0.2599
  154DOPC   H6X18516   1.813  -0.087   1.217 -2.7157 -1.7552  3.1211
  154DOPC   H6Y18517   1.709  -0.013   1.338  0.1966 -1.8083 -0.8538
  154DOPC   C3718518   1.754   0.122   1.164 -0.3330 -0.0418 -0.0665
  154DOPC   H7X18519   1.696   0.199   1.220 -0.8717  0.6425 -1.5186
  154DOPC   H7Y18520   1.849   0.158   1.119  0.7571  1.1520  2.9139
  154DOPC   C3818521   1.661   0.066   1.059  0.2381  0.2781  0.3986
  154DOPC   H8X18522   1.618   0.148   0.999  1.9401  0.5616 -0.4832
  154DOPC   H8Y18523   1.576   0.024   1.117  1.3710  0.6885  2.4551
  154DOPC   C3918524   1.726  -0.032   0.968 -0.4531  0.2151 -0.4958
  154DOPC   H9X18525   1.774  -0.114   1.023 -1.1386  1.3164  1.8962
  154DOPC  C31018526   1.743  -0.019   0.834 -0.2491 -0.3383 -0.3439
  154DOPC  H10X18527   1.782  -0.100   0.771 -1.3179 -0.9537 -0.2468
  154DOPC  C31118528   1.708   0.108   0.763  0.1750 -0.0748 -0.1382
  154DOPC  H11X18529   1.752   0.192   0.821  0.1839 -0.7591  0.8705
  154DOPC  H11Y18530   1.597   0.108   0.753 -0.0080 -3.7376  0.6499
  154DOPC  C31218531   1.767   0.127   0.624 -0.5513  0.4919 -0.1788
  154DOPC  H12X18532   1.721   0.223   0.593  2.2607  2.0208  0.0539
  154DOPC  H12Y18533   1.730   0.043   0.561  1.2861 -0.7900  0.3484
  154DOPC  C31318534   1.918   0.128   0.624 -0.3530  0.0633  0.0612
  154DOPC  H13X18535   1.949   0.196   0.706 -0.2447 -1.9571  1.8025
  154DOPC  H13Y18536   1.965   0.028   0.634  1.5617  0.9893  0.9931
  154DOPC  C31418537   1.983   0.189   0.498  0.3066  0.6754  0.4604
  154DOPC  H14X18538   1.946   0.292   0.484  1.5880  1.4495  2.3809
  154DOPC  H14Y18539   2.094   0.178   0.496  0.1186 -1.8363 -0.1310
  154DOPC  C31518540   1.952   0.112   0.366 -0.2993 -0.9577  0.3561
  154DOPC  H15X18541   1.843   0.091   0.359 -0.3274 -0.6299 -0.2611
  154DOPC  H15Y18542   2.000   0.013   0.351 -1.0917 -1.0161 -2.1770
  154DOPC  C31618543   1.986   0.203   0.246  0.0548  0.1808  0.4105
  154DOPC  H16X18544   1.932   0.298   0.266 -1.0116 -0.4801  0.7623
  154DOPC  H16Y18545   2.095   0.223   0.248  0.2798 -0.0222 -2.9950
  154DOPC  C31718546   1.935   0.149   0.110  0.5565  1.6387 -0.4116
  154DOPC  H17X18547   1.963   0.041   0.110  1.1708  1.7915 -0.4025
  154DOPC  H17Y18548   1.824   0.145   0.106  0.5306 -0.1240  0.6681
  154DOPC  C31818549   1.990   0.217  -0.014  0.3969 -0.3677  0.3943
  154DOPC  H18X18550   1.961   0.322  -0.036  0.2519 -0.7696 -1.5104
  154DOPC  H18Y18551   2.100   0.213  -0.022  0.2933  0.1339 -2.0118
  154DOPC  H18Z18552   1.958   0.165  -0.107  2.7915 -0.9992 -0.1472
  155DOPC     N18553  -2.050  -0.042   2.313  0.4580 -0.5405  0.4447
  155DOPC   C1218554  -2.131  -0.162   2.361  0.4992  0.2840 -0.5039
  155DOPC  H12A18555  -2.222  -0.177   2.304 -0.0747  0.9015  0.2296
  155DOPC  H12B18556  -2.145  -0.159   2.468 -0.3763 -0.9330 -0.5608
  155DOPC   C1318557  -2.018  -0.055   2.165  0.7831  0.4333  0.0704
  155DOPC  H13A18558  -1.960   0.028   2.127  2.0055 -0.2874  0.3055
  155DOPC  H13B18559  -1.961  -0.145   2.144 -1.2124 -0.9073  0.0986
  155DOPC  H13C18560  -2.113  -0.060   2.113 -0.9344  0.0674  3.0264
  155DOPC   C1418561  -1.916  -0.029   2.385  0.3186  0.1780 -0.6531
  155DOPC  H14A18562  -1.847  -0.108   2.358 -0.6514 -0.5745 -1.0039
  155DOPC  H14B18563  -1.870   0.064   2.356 -0.4158  1.4048  1.8130
  155DOPC  H14C18564  -1.931  -0.009   2.490 -1.4230  2.6425 -1.2793
  155DOPC   C1518565  -2.135   0.079   2.340 -0.7219  0.6472  0.2714
  155DOPC  H15A18566  -2.140   0.105   2.444  1.2334  0.9713  0.3144
  155DOPC  H15B18567  -2.233   0.060   2.297 -0.1278 -3.8493  0.3576
  155DOPC  H15C18568  -2.098   0.158   2.277 -0.5662  2.1046  2.1089
  155DOPC   C1118569  -2.065  -0.302   2.356 -0.7305 -0.1340 -0.3540
  155DOPC  H11A18570  -2.016  -0.329   2.260 -1.2606 -0.4273 -0.5482
  155DOPC  H11B18571  -1.985  -0.300   2.434 -0.5307  2.3340 -0.5518
  155DOPC     P18572  -2.266  -0.454   2.286 -0.3428 -0.2563 -0.2315
  155DOPC   O1318573  -2.380  -0.369   2.275  0.4818 -0.1978 -0.2120
  155DOPC   O1418574  -2.287  -0.599   2.308  0.6244 -0.0293  0.0750
  155DOPC   O1218575  -2.169  -0.396   2.394  0.8074  0.1085 -0.4311
  155DOPC   O1118576  -2.173  -0.443   2.153  0.6941  0.6015 -1.0665
  155DOPC    C118577  -2.219  -0.361   2.046  0.3743  0.0587 -0.3296
  155DOPC    HA18578  -2.134  -0.327   1.983 -0.1534  0.9698 -0.5740
  155DOPC    HB18579  -2.269  -0.269   2.083 -1.0993 -0.4766 -0.9209
  155DOPC    C218580  -2.325  -0.435   1.960  0.2820 -0.8004 -0.0073
  155DOPC    HS18581  -2.416  -0.448   2.023  1.1125 -0.5650  1.2823
  155DOPC   O2118582  -2.263  -0.553   1.906  0.0394  0.0297  0.0629
  155DOPC   C2118583  -2.326  -0.676   1.931 -0.3800 -0.4793 -0.4610
  155DOPC   O2218584  -2.418  -0.692   2.004  0.1860  0.3360 -0.4316
  155DOPC   C2218585  -2.259  -0.788   1.850  0.2113 -0.1857  0.8104
  155DOPC   H2R18586  -2.335  -0.869   1.851 -2.0248  1.7602 -0.1864
  155DOPC   H2S18587  -2.164  -0.811   1.902  1.7640  0.5935 -1.4950
  155DOPC    C318588  -2.370  -0.333   1.843 -0.4676  0.0151  0.0383
  155DOPC    HX18589  -2.273  -0.297   1.803 -0.1599 -0.9845 -0.1626
  155DOPC    HY18590  -2.430  -0.252   1.888 -0.2148 -0.1202  0.6282
  155DOPC   O3118591  -2.446  -0.401   1.741 -0.2886  0.1812 -0.1378
  155DOPC   C3118592  -2.385  -0.420   1.618  0.8667  0.0724  0.0874
  155DOPC   O3218593  -2.270  -0.404   1.587 -0.3641 -0.2468 -0.1514
  155DOPC   C3218594  -2.496  -0.467   1.514  0.4921 -0.1580 -0.0756
  155DOPC   H2X18595  -2.522  -0.574   1.510 -1.9591  0.3650  0.1815
  155DOPC   H2Y18596  -2.585  -0.406   1.540 -0.3330 -2.3377  2.7784
  155DOPC   C2318597  -2.224  -0.748   1.706  0.2687 -0.1208 -0.6006
  155DOPC   H3R18598  -2.141  -0.673   1.710 -0.3506  0.5363  1.3947
  155DOPC   H3S18599  -2.304  -0.703   1.643 -0.6020 -2.2201 -1.0652
  155DOPC   C2418600  -2.167  -0.862   1.619  0.2489 -0.2512 -0.2991
  155DOPC   H4R18601  -2.239  -0.946   1.606  0.0239 -0.2262  0.7416
  155DOPC   H4S18602  -2.079  -0.899   1.675  0.3329  1.1760  0.5601
  155DOPC   C2518603  -2.144  -0.795   1.483 -0.0132  0.1269  0.4780
  155DOPC   H5R18604  -2.068  -0.715   1.497  2.2942 -1.9385  0.2787
  155DOPC   H5S18605  -2.242  -0.748   1.458 -0.3029  0.6510  2.4238
  155DOPC   C2618606  -2.090  -0.891   1.378 -0.3190 -0.4104  0.3320
  155DOPC   H6R18607  -2.172  -0.963   1.359 -1.7439  0.9951  0.9629
  155DOPC   H6S18608  -1.996  -0.942   1.407  0.7654  0.9412 -0.6578
  155DOPC   C2718609  -2.052  -0.817   1.250  0.5462  0.2795 -0.4443
  155DOPC   H7R18610  -1.966  -0.752   1.277  1.6353 -0.7440 -1.3233
  155DOPC   H7S18611  -2.132  -0.744   1.226 -1.7835 -1.3302  1.8719
  155DOPC   C2818612  -2.017  -0.914   1.139  0.1846 -0.2367  0.4260
  155DOPC   H8R18613  -2.102  -0.983   1.121 -0.5071  0.7427 -0.1947
  155DOPC   H8S18614  -1.935  -0.974   1.184  1.8669  2.5072  1.2552
  155DOPC   C2918615  -1.963  -0.845   1.021 -0.7656  0.1906  0.1423
  155DOPC   H9R18616  -2.039  -0.781   0.974 -0.9230 -1.1249 -1.4941
  155DOPC  C21018617  -1.844  -0.850   0.964 -0.5518  0.0053 -0.4370
  155DOPC  H10R18618  -1.817  -0.789   0.877 -2.4124 -0.8690 -1.6941
  155DOPC  C21118619  -1.728  -0.935   1.016  0.7411 -0.2159  0.8318
  155DOPC  H11R18620  -1.672  -0.989   0.936  1.4186  2.4775 -0.6522
  155DOPC  H11S18621  -1.743  -1.000   1.104 -1.2742 -1.4215 -0.3377
  155DOPC  C21218622  -1.626  -0.835   1.075  0.1735 -1.0264 -0.0792
  155DOPC  H12R18623  -1.599  -0.754   1.003  0.6657  0.5978  1.8415
  155DOPC  H12S18624  -1.534  -0.892   1.099  1.5883  0.4704 -1.5866
  155DOPC  C21318625  -1.673  -0.753   1.211 -0.1508  0.5152  0.5644
  155DOPC  H13R18626  -1.765  -0.691   1.202 -1.7389 -1.6661  0.8440
  155DOPC  H13S18627  -1.581  -0.691   1.217  0.1764  0.0262  0.6529
  155DOPC  C21418628  -1.687  -0.837   1.332  0.1511  0.4008 -0.4049
  155DOPC  H14R18629  -1.587  -0.881   1.353  0.2863  1.5401  1.4867
  155DOPC  H14S18630  -1.758  -0.920   1.311  1.9325 -1.6093  1.0949
  155DOPC  C21518631  -1.724  -0.761   1.460  0.4990  0.4804  0.9751
  155DOPC  H15R18632  -1.832  -0.739   1.449  0.6743  2.1041  2.1066
  155DOPC  H15S18633  -1.672  -0.664   1.471 -2.4691  2.0112  2.7274
  155DOPC  C21618634  -1.706  -0.842   1.588  0.0212  0.1061  0.2183
  155DOPC  H16R18635  -1.602  -0.876   1.609 -0.2388 -0.5023  0.5393
  155DOPC  H16S18636  -1.769  -0.933   1.584 -0.3049  0.2988  0.8050
  155DOPC  C21718637  -1.765  -0.766   1.704  0.1068  0.2340 -0.2532
  155DOPC  H17R18638  -1.876  -0.768   1.707  0.1191 -0.1445 -0.0574
  155DOPC  H17S18639  -1.751  -0.656   1.694  1.3095  0.2049  0.7517
  155DOPC  C21818640  -1.718  -0.804   1.849  0.1783  0.1144  0.9727
  155DOPC  H18R18641  -1.616  -0.761   1.863  1.2177 -2.1806  0.8341
  155DOPC  H18S18642  -1.730  -0.912   1.868 -0.0443 -0.1235 -0.3864
  155DOPC  H18T18643  -1.777  -0.748   1.925  0.0397  2.2036 -0.5720
  155DOPC   C3318644  -2.476  -0.423   1.367 -0.0204 -0.3511  0.7711
  155DOPC   H3X18645  -2.464  -0.312   1.362 -0.2666 -0.3662 -1.1776
  155DOPC   H3Y18646  -2.570  -0.451   1.315 -0.1091  0.2884  0.5702
  155DOPC   C3418647  -2.363  -0.505   1.297 -0.0445 -0.0393 -1.0969
  155DOPC   H4X18648  -2.403  -0.608   1.301 -0.3968  0.1174 -0.4282
  155DOPC   H4Y18649  -2.269  -0.506   1.357  0.3442 -1.6107 -1.6869
  155DOPC   C3518650  -2.324  -0.463   1.157  0.3660 -0.0770 -0.0461
  155DOPC   H5X18651  -2.241  -0.531   1.128  1.5068  1.2364  0.0303
  155DOPC   H5Y18652  -2.271  -0.365   1.157 -2.5744  1.8372 -4.4526
  155DOPC   C3618653  -2.441  -0.455   1.049  0.0737  0.0136  0.1435
  155DOPC   H6X18654  -2.488  -0.555   1.045 -0.8409  0.2998  2.3315
  155DOPC   H6Y18655  -2.522  -0.388   1.086  1.8561  1.5000  1.5834
  155DOPC   C3718656  -2.377  -0.427   0.913 -0.0799  0.0847 -0.6704
  155DOPC   H7X18657  -2.308  -0.340   0.915 -0.0038  0.0335 -1.0180
  155DOPC   H7Y18658  -2.321  -0.518   0.886  0.3347  0.1371 -0.0165
  155DOPC   C3818659  -2.475  -0.404   0.796  0.3185 -0.1334  0.3179
  155DOPC   H8X18660  -2.425  -0.349   0.714 -2.8281  1.6977 -0.5337
  155DOPC   H8Y18661  -2.551  -0.335   0.841  1.2396  1.4139 -0.4226
  155DOPC   C3918662  -2.535  -0.539   0.747 -0.1282 -0.0482  0.1753
  155DOPC   H9X18663  -2.569  -0.606   0.828  0.6556 -1.7097 -0.8155
  155DOPC  C31018664  -2.536  -0.588   0.622 -0.8413  0.2395  0.5314
  155DOPC  H10X18665  -2.589  -0.683   0.606  2.1507 -1.6338  0.9928
  155DOPC  C31118666  -2.479  -0.540   0.486  0.1433 -0.0645 -0.3487
  155DOPC  H11X18667  -2.403  -0.607   0.441  2.7706  2.6070 -0.2296
  155DOPC  H11Y18668  -2.442  -0.435   0.488  0.8449 -0.1643 -3.2089
  155DOPC  C31218669  -2.589  -0.536   0.379 -0.2470 -0.4287 -0.2662
  155DOPC  H12X18670  -2.666  -0.461   0.408  0.4110  0.1300  0.0751
  155DOPC  H12Y18671  -2.630  -0.639   0.371 -0.9457 -0.2248  0.5617
  155DOPC  C31318672  -2.532  -0.493   0.239  0.3710  0.1428  0.2542
  155DOPC  H13X18673  -2.511  -0.384   0.231 -0.0310  0.1575 -0.6417
  155DOPC  H13Y18674  -2.445  -0.561   0.229  0.6333  0.3821  0.8085
  155DOPC  C31418675  -2.627  -0.523   0.120 -0.3224 -0.2397  0.0594
  155DOPC  H14X18676  -2.642  -0.628   0.089 -0.5885  0.0531 -0.8472
  155DOPC  H14Y18677  -2.728  -0.481   0.140 -0.8497 -1.6036  0.3394
  155DOPC  C31518678  -2.574  -0.447  -0.001  0.2614  0.1364 -0.1548
  155DOPC  H15X18679  -2.481  -0.496  -0.036 -0.4326 -1.0403 -0.3989
  155DOPC  H15Y18680  -2.554  -0.340   0.020  0.5833  0.1083 -0.3092
  155DOPC  C31618681  -2.678  -0.467  -0.117  0.7819  0.1887 -0.2068
  155DOPC  H16X18682  -2.716  -0.570  -0.102 -0.1480  0.6654  0.9061
  155DOPC  H16Y18683  -2.765  -0.399  -0.103  0.5004 -0.4792  1.6554
  155DOPC  C31718684  -2.630  -0.459  -0.264  0.1053  0.8010 -0.4839
  155DOPC  H17X18685  -2.587  -0.357  -0.274 -0.3978  1.2171  1.2424
  155DOPC  H17Y18686  -2.542  -0.527  -0.273 -0.5092 -0.2829  1.1310
  155DOPC  C31818687  -2.743  -0.480  -0.368 -0.7915  0.4127  0.9054
  155DOPC  H18X18688  -2.835  -0.433  -0.326 -0.9972  1.9520 -1.1386
  155DOPC  H18Y18689  -2.733  -0.433  -0.468  1.8312 -1.9523 -0.0763
  155DOPC  H18Z18690  -2.761  -0.588  -0.386 -0.5028  0.4391  0.4494
  156DOPC     N18691   0.825   1.920   2.821 -0.4438  0.0981  0.4109
  156DOPC   C1218692   0.758   1.997   2.713  0.2264 -0.3217  0.1999
  156DOPC  H12A18693   0.674   1.937   2.681  0.3097  0.0229 -0.6983
  156DOPC  H12B18694   0.818   2.005   2.624 -0.6771  0.9485 -0.3192
  156DOPC   C1318695   0.870   1.793   2.765  0.2166 -0.4787 -0.3064
  156DOPC  H13A18696   0.942   1.812   2.687 -0.3856 -0.9484 -0.9862
  156DOPC  H13B18697   0.904   1.731   2.847 -3.6624  0.3251  2.1665
  156DOPC  H13C18698   0.787   1.743   2.718  0.0317  1.7615 -2.5528
  156DOPC   C1418699   0.725   1.895   2.935  0.0709  0.6059 -0.2837
  156DOPC  H14A18700   0.764   1.821   3.002 -1.1294  0.3409  0.1450
  156DOPC  H14B18701   0.696   1.987   2.983  2.2744  1.7492 -0.9841
  156DOPC  H14C18702   0.640   1.848   2.888  2.5519 -2.4072 -2.1763
  156DOPC   C1518703   0.950   1.984   2.875  0.2363 -0.4190 -0.1162
  156DOPC  H15A18704   1.023   2.007   2.799  1.2199  1.2665  1.2829
  156DOPC  H15B18705   0.999   1.921   2.948 -1.4595 -0.7330  0.7967
  156DOPC  H15C18706   0.919   2.077   2.920 -0.0715 -0.4275 -0.3060
  156DOPC   C1118707   0.703   2.143   2.742 -0.5450 -0.4479 -0.2906
  156DOPC  H11A18708   0.654   2.172   2.647 -1.9458 -0.4755  0.4043
  156DOPC  H11B18709   0.632   2.146   2.827  0.0622  4.2214  0.3339
  156DOPC     P18710   0.882   2.299   2.670 -0.0017  0.0913 -0.0715
  156DOPC   O1318711   1.021   2.332   2.697 -0.0865  0.5894  0.1036
  156DOPC   O1418712   0.793   2.406   2.632 -0.0539  0.0650 -0.5507
  156DOPC   O1218713   0.818   2.217   2.783  0.2452  0.5405 -0.0944
  156DOPC   O1118714   0.889   2.196   2.556 -0.1343 -0.2290  0.3096
  156DOPC    C118715   0.836   2.236   2.427  0.1091 -0.3677 -0.3442
  156DOPC    HA18716   0.794   2.338   2.416 -2.9614 -1.8079 -4.4326
  156DOPC    HB18717   0.757   2.162   2.403 -1.0460  0.7237 -0.0121
  156DOPC    C218718   0.949   2.225   2.319 -0.5709 -0.7098  0.3394
  156DOPC    HS18719   1.004   2.320   2.334 -2.9708  0.7621  0.4268
  156DOPC   O2118720   0.880   2.220   2.189 -0.2052  0.7292 -0.1296
  156DOPC   C2118721   0.923   2.312   2.101 -0.8939  0.4982  0.4341
  156DOPC   O2218722   1.014   2.388   2.116 -0.2783 -0.1075 -0.0330
  156DOPC   C2218723   0.819   2.318   1.986 -0.5937  0.3134  0.4125
  156DOPC   H2R18724   0.738   2.391   2.004 -0.4437  1.0909 -1.8101
  156DOPC   H2S18725   0.768   2.219   1.989 -0.7584  0.3617 -0.4315
  156DOPC    C318726   1.045   2.105   2.342  0.4202  0.1100  0.0521
  156DOPC    HX18727   0.966   2.027   2.350 -0.5819  0.6638 -3.0050
  156DOPC    HY18728   1.093   2.111   2.442 -0.8187 -1.9559  0.8294
  156DOPC   O3118729   1.135   2.075   2.223  0.2160  0.3221 -0.2710
  156DOPC   C3118730   1.234   2.152   2.211 -0.4489 -0.4646 -0.1933
  156DOPC   O3218731   1.279   2.230   2.299 -0.5396 -0.1272  0.1102
  156DOPC   C3218732   1.298   2.139   2.077  0.4652  0.1633 -0.1195
  156DOPC   H2X18733   1.398   2.184   2.094  0.0312  1.3282 -0.5487
  156DOPC   H2Y18734   1.296   2.031   2.047  1.3511 -0.1082  0.7536
  156DOPC   C2318735   0.880   2.369   1.856 -0.5567 -0.4665  0.1196
  156DOPC   H3R18736   0.957   2.295   1.824 -0.5077  0.0302 -0.9572
  156DOPC   H3S18737   0.931   2.467   1.871 -0.2050 -0.5451 -0.5189
  156DOPC   C2418738   0.794   2.365   1.730 -0.7144 -0.7993 -0.1155
  156DOPC   H4R18739   0.694   2.412   1.738 -0.6369 -0.4821 -0.8447
  156DOPC   H4S18740   0.773   2.259   1.704 -2.4310 -0.6848  0.6603
  156DOPC   C2518741   0.875   2.426   1.614  0.3683 -0.6357  0.5478
  156DOPC   H5R18742   0.983   2.408   1.631 -0.1659 -2.6455  2.2141
  156DOPC   H5S18743   0.862   2.536   1.627  0.0546 -0.3854 -1.5216
  156DOPC   C2618744   0.822   2.395   1.482 -0.3262 -0.5212  0.3104
  156DOPC   H6R18745   0.716   2.428   1.494  0.3213  1.7523  0.3193
  156DOPC   H6S18746   0.824   2.287   1.459 -3.7316 -0.6837  0.1929
  156DOPC   C2718747   0.887   2.487   1.378 -0.3372 -0.3940 -0.0390
  156DOPC   H7R18748   0.993   2.504   1.407 -0.9937  0.3914  2.0921
  156DOPC   H7S18749   0.830   2.583   1.378  1.7910  0.9454 -1.1732
  156DOPC   C2818750   0.899   2.422   1.234  0.7378 -0.0451 -0.6973
  156DOPC   H8R18751   0.960   2.330   1.240  2.5763  1.0301 -1.7497
  156DOPC   H8S18752   0.952   2.491   1.164  0.0132 -0.0605 -1.2776
  156DOPC   C2918753   0.753   2.390   1.192  0.6951 -0.0509 -0.0841
  156DOPC   H9R18754   0.674   2.400   1.268 -1.1272 -1.2351 -1.7212
  156DOPC  C21018755   0.717   2.354   1.064  0.4515  0.2183  0.1394
  156DOPC  H10R18756   0.613   2.323   1.045  0.5235  0.6960 -1.1963
  156DOPC  C21118757   0.806   2.337   0.950 -0.5575 -0.2903 -0.2900
  156DOPC  H11R18758   0.762   2.249   0.897 -0.5275 -1.1520  1.0855
  156DOPC  H11S18759   0.909   2.311   0.980  0.2458  1.5857 -1.2218
  156DOPC  C21218760   0.812   2.461   0.868 -0.1364 -1.1822  0.1908
  156DOPC  H12R18761   0.875   2.531   0.927 -1.2935  0.1024 -0.0608
  156DOPC  H12S18762   0.710   2.496   0.842  0.1980 -0.9326 -0.8410
  156DOPC  C21318763   0.883   2.435   0.739  0.2281  0.1255 -0.5073
  156DOPC  H13R18764   0.957   2.353   0.750  0.5960  0.5468  0.2662
  156DOPC  H13S18765   0.937   2.527   0.706  0.3760  0.2508  0.0580
  156DOPC  C21418766   0.778   2.398   0.635 -0.5196 -0.4055 -0.2854
  156DOPC  H14R18767   0.723   2.491   0.610 -1.3568 -0.8134  0.0040
  156DOPC  H14S18768   0.706   2.327   0.681  0.8901 -1.0489  1.0184
  156DOPC  C21518769   0.827   2.347   0.504 -0.2189  0.6882  0.0089
  156DOPC  H15R18770   0.742   2.291   0.459  0.6075 -0.4622 -0.1626
  156DOPC  H15S18771   0.908   2.272   0.518 -0.7190  0.3266  1.0571
  156DOPC  C21618772   0.889   2.455   0.411 -0.6149  0.2404 -0.1223
  156DOPC  H16R18773   0.995   2.475   0.436 -1.2046  2.6136  0.7968
  156DOPC  H16S18774   0.834   2.550   0.432  1.7023  1.4215  0.9326
  156DOPC  C21718775   0.874   2.425   0.259 -0.5508  0.0991  0.3362
  156DOPC  H17R18776   0.913   2.514   0.204  1.6886 -1.2450 -0.3700
  156DOPC  H17S18777   0.766   2.430   0.235 -0.5606  0.5316  0.4590
  156DOPC  C21818778   0.950   2.305   0.203  0.0499 -0.0570  0.4826
  156DOPC  H18R18779   0.901   2.208   0.227  2.8225 -1.3338  1.3655
  156DOPC  H18S18780   1.053   2.295   0.243  0.3315 -0.1810 -0.2534
  156DOPC  H18T18781   0.960   2.312   0.092  0.9766 -3.5567  0.2460
  156DOPC   C3318782   1.232   2.228   1.966 -0.0614  0.2346 -0.5277
  156DOPC   H3X18783   1.248   2.336   1.983 -0.8850  0.4640 -1.1699
  156DOPC   H3Y18784   1.123   2.207   1.964 -0.2620  1.2579 -1.1505
  156DOPC   C3418785   1.297   2.193   1.830 -0.1483  0.6854  0.3211
  156DOPC   H4X18786   1.250   2.095   1.809  0.0641  0.5667  0.3922
  156DOPC   H4Y18787   1.408   2.186   1.838 -0.1606 -1.0893 -0.6375
  156DOPC   C3518788   1.263   2.289   1.711  0.3992  0.0430  0.4413
  156DOPC   H5X18789   1.290   2.395   1.727 -3.3268  1.2004  0.1411
  156DOPC   H5Y18790   1.152   2.288   1.707  0.4251  0.0306 -0.4321
  156DOPC   C3618791   1.311   2.244   1.572 -0.0627  0.2215 -0.4372
  156DOPC   H6X18792   1.422   2.249   1.573 -0.0619  0.7840  1.5569
  156DOPC   H6Y18793   1.277   2.143   1.540 -2.4787  0.3055  1.5687
  156DOPC   C3718794   1.266   2.347   1.469 -0.8487 -0.5011 -0.7410
  156DOPC   H7X18795   1.163   2.390   1.475 -0.1934  0.9578  2.2025
  156DOPC   H7Y18796   1.330   2.436   1.488  1.9026 -2.0367 -2.1949
  156DOPC   C3818797   1.314   2.310   1.329  0.6492  0.4470 -0.4677
  156DOPC   H8X18798   1.264   2.215   1.300 -0.4572  0.7320  0.4380
  156DOPC   H8Y18799   1.425   2.304   1.328  0.6158 -1.4318  0.8291
  156DOPC   C3918800   1.276   2.422   1.233  0.0911 -0.1280  0.2210
  156DOPC   H9X18801   1.309   2.518   1.275 -1.1613  0.3691  0.1095
  156DOPC  C31018802   1.234   2.417   1.102 -0.5680 -0.0203 -0.3508
  156DOPC  H10X18803   1.230   2.517   1.056 -2.2187  0.9174  1.6834
  156DOPC  C31118804   1.207   2.296   1.009 -1.4384 -0.4753 -0.5406
  156DOPC  H11X18805   1.099   2.279   1.031 -1.1979 -0.3799  0.7966
  156DOPC  H11Y18806   1.287   2.224   1.034  0.4649  1.2496 -1.3994
  156DOPC  C31218807   1.214   2.339   0.860 -0.0307 -0.3622 -0.1434
  156DOPC  H12X18808   1.154   2.432   0.846 -0.0210 -0.2979  0.2267
  156DOPC  H12Y18809   1.166   2.265   0.794 -1.7040  1.1193 -0.6656
  156DOPC  C31318810   1.354   2.353   0.808 -0.1954 -0.1090 -0.1323
  156DOPC  H13X18811   1.405   2.445   0.842 -0.9407  0.5854 -0.8507
  156DOPC  H13Y18812   1.418   2.274   0.853  1.2806 -0.4862 -2.7144
  156DOPC  C31418813   1.375   2.346   0.654 -0.3785  0.0521  0.1158
  156DOPC  H14X18814   1.483   2.352   0.630 -1.0138  1.4359 -2.7767
  156DOPC  H14Y18815   1.335   2.254   0.607 -0.5486  0.3671 -0.3543
  156DOPC  C31518816   1.308   2.457   0.577  0.2056  0.2454 -0.1070
  156DOPC  H15X18817   1.340   2.557   0.613  2.0544 -0.9600  1.8549
  156DOPC  H15Y18818   1.198   2.447   0.576  0.0215  2.0187 -1.6510
  156DOPC  C31618819   1.348   2.466   0.427  0.3064  0.8520 -0.3585
  156DOPC  H16X18820   1.459   2.472   0.421  0.3512  0.5779  0.1917
  156DOPC  H16Y18821   1.319   2.373   0.374  0.2304 -0.0462  1.2004
  156DOPC  C31718822   1.278   2.578   0.351 -0.5088  0.3036  0.2268
  156DOPC  H17X18823   1.168   2.567   0.335 -0.1273 -0.3730 -2.4893
  156DOPC  H17Y18824   1.300   2.668   0.411 -1.6217 -0.0482  1.1917
  156DOPC  C31818825   1.341   2.609   0.215  0.5965  0.3238 -0.2520
  156DOPC  H18X18826   1.289   2.692   0.163 -1.7165 -1.3658 -0.7879
  156DOPC  H18Y18827   1.451   2.622   0.230  0.5844 -0.1803  0.3137
  156DOPC  H18Z18828   1.324   2.520   0.151  0.9607  0.6773 -0.8564
  157DOPC     N18829   1.470  -1.301   2.918  1.0744 -0.6218 -0.0058
  157DOPC   C1218830   1.573  -1.246   2.834 -0.3254 -0.1844  0.5249
  157DOPC  H12A18831   1.672  -1.273   2.867 -1.0019 -0.8058  2.1632
  157DOPC  H12B18832   1.569  -1.139   2.831  0.1567 -0.1805 -0.1414
  157DOPC   C1318833   1.456  -1.442   2.888  1.2136  0.4653  0.2931
  157DOPC  H13A18834   1.402  -1.458   2.795  0.3441 -1.7909  1.1187
  157DOPC  H13B18835   1.551  -1.493   2.888  0.5431 -0.8331  1.5252
  157DOPC  H13C18836   1.391  -1.492   2.958 -0.7306  3.6157  0.9227
  157DOPC   C1418837   1.338  -1.216   2.907 -1.1832  0.0823 -0.0637
  157DOPC  H14A18838   1.270  -1.244   2.986  0.5284 -2.3656  0.6369
  157DOPC  H14B18839   1.365  -1.113   2.928  0.0005 -0.5921  2.0231
  157DOPC  H14C18840   1.292  -1.236   2.811 -0.4165 -2.1614 -0.0106
  157DOPC   C1518841   1.513  -1.300   3.058  0.8552  1.0320 -0.5352
  157DOPC  H15A18842   1.510  -1.202   3.103 -0.0153  0.3268  0.9752
  157DOPC  H15B18843   1.611  -1.337   3.085  0.3124 -0.1856 -0.1931
  157DOPC  H15C18844   1.437  -1.355   3.110 -0.2694 -0.8314 -3.8120
  157DOPC   C1118845   1.563  -1.272   2.680 -0.2424  0.2762  1.0115
  157DOPC  H11A18846   1.658  -1.246   2.629 -0.6747  0.4858  0.2970
  157DOPC  H11B18847   1.548  -1.377   2.649 -1.6061  0.9856 -0.9530
  157DOPC     P18848   1.471  -1.035   2.582  0.1596  0.1592  0.0892
  157DOPC   O1318849   1.565  -0.968   2.675  0.2917  0.0167  0.5421
  157DOPC   O1418850   1.333  -0.972   2.565  0.1285  0.0169  0.0787
  157DOPC   O1218851   1.459  -1.185   2.622  0.5093  0.1875  0.5811
  157DOPC   O1118852   1.536  -1.045   2.441  0.8143  0.6481  0.0152
  157DOPC    C118853   1.468  -1.116   2.340  0.3838  0.7648 -0.9839
  157DOPC    HA18854   1.381  -1.175   2.376  0.8713 -0.1237 -1.2120
  157DOPC    HB18855   1.542  -1.187   2.295 -0.6653 -1.1346  0.1378
  157DOPC    C218856   1.423  -1.017   2.234 -0.4418 -0.2555 -0.2056
  157DOPC    HS18857   1.357  -0.938   2.276  1.9467  1.6310  0.2625
  157DOPC   O2118858   1.367  -1.087   2.127  0.1075  0.5949  0.7036
  157DOPC   C2118859   1.279  -1.019   2.058  0.0420  0.3908 -0.6724
  157DOPC   O2218860   1.244  -0.908   2.079 -0.2801 -0.1681 -0.2387
  157DOPC   C2218861   1.230  -1.108   1.950  0.0121  0.0880  0.1101
  157DOPC   H2R18862   1.146  -1.058   1.896 -2.3104 -2.3657  1.2354
  157DOPC   H2S18863   1.189  -1.192   2.010 -1.4109  0.9632  0.4182
  157DOPC    C318864   1.549  -0.940   2.181 -0.0029 -0.5903 -0.4791
  157DOPC    HX18865   1.621  -1.021   2.160  0.2726 -0.4648 -0.0311
  157DOPC    HY18866   1.588  -0.883   2.268 -0.8776 -2.2620  1.0676
  157DOPC   O3118867   1.518  -0.859   2.065  0.4365  0.0747 -0.3497
  157DOPC   C3118868   1.480  -0.730   2.093 -0.1143  0.4136  0.2800
  157DOPC   O3218869   1.485  -0.673   2.201  0.1061  0.5696  0.4032
  157DOPC   C3218870   1.430  -0.661   1.969 -0.0043 -0.4617  0.0478
  157DOPC   H2X18871   1.509  -0.682   1.894  0.0924  3.7410 -1.3136
  157DOPC   H2Y18872   1.334  -0.712   1.945 -1.1185  1.3437  0.4416
  157DOPC   C2318873   1.341  -1.167   1.856 -0.8796 -0.1454  0.3566
  157DOPC   H3R18874   1.283  -1.249   1.807 -0.9649 -0.5693  1.1459
  157DOPC   H3S18875   1.431  -1.207   1.906  0.3043  1.6791 -0.2381
  157DOPC   C2418876   1.383  -1.066   1.747 -0.2967  0.0089 -0.1466
  157DOPC   H4R18877   1.442  -0.989   1.801  0.5963  0.7969 -2.1620
  157DOPC   H4S18878   1.304  -1.013   1.689 -0.4178  0.3480  0.3220
  157DOPC   C2518879   1.475  -1.125   1.634  0.4637 -0.6057 -0.1820
  157DOPC   H5R18880   1.461  -1.235   1.629  2.2854 -0.8397 -0.6777
  157DOPC   H5S18881   1.578  -1.097   1.661 -0.0687  0.3580  0.9393
  157DOPC   C2618882   1.433  -1.066   1.502 -0.1425  0.0496  0.3775
  157DOPC   H6R18883   1.508  -1.071   1.420 -1.8755  0.1153 -1.2955
  157DOPC   H6S18884   1.414  -0.956   1.502 -1.2405 -0.1275  0.4804
  157DOPC   C2718885   1.310  -1.136   1.447  0.6135  0.4318 -0.0261
  157DOPC   H7R18886   1.215  -1.104   1.494 -0.1145 -1.8592  0.1869
  157DOPC   H7S18887   1.323  -1.246   1.457  0.2205  0.2712 -1.1173
  157DOPC   C2818888   1.299  -1.114   1.295  0.4742 -0.7653 -0.2227
  157DOPC   H8R18889   1.303  -1.005   1.272 -0.8947 -0.6678 -0.0628
  157DOPC   H8S18890   1.196  -1.149   1.273 -0.2233  1.5424 -0.9839
  157DOPC   C2918891   1.406  -1.192   1.225  0.4563 -0.5930 -0.2259
  157DOPC   H9R18892   1.494  -1.225   1.282  0.8883  0.7869 -0.0735
  157DOPC  C21018893   1.391  -1.229   1.092 -0.1407 -0.1735 -0.2701
  157DOPC  H10R18894   1.470  -1.290   1.045  0.4119  0.2317  0.1312
  157DOPC  C21118895   1.270  -1.196   1.012 -0.0129  0.4516 -0.7456
  157DOPC  H11R18896   1.260  -1.085   1.011  3.3089  0.8557  0.0374
  157DOPC  H11S18897   1.177  -1.229   1.064 -1.9172  3.3574 -2.0135
  157DOPC  C21218898   1.278  -1.260   0.872  0.6287 -0.6776 -0.8767
  157DOPC  H12R18899   1.186  -1.220   0.824  0.2727  3.2914  2.5190
  157DOPC  H12S18900   1.249  -1.367   0.874 -1.3115 -0.1848 -0.7652
  157DOPC  C21318901   1.406  -1.238   0.788  0.2929 -0.1755 -0.2226
  157DOPC  H13R18902   1.491  -1.304   0.814 -1.3609 -2.3134  0.0050
  157DOPC  H13S18903   1.438  -1.132   0.797 -0.8003  0.3163 -1.7064
  157DOPC  C21418904   1.373  -1.270   0.636 -0.3348  0.6233 -0.3850
  157DOPC  H14R18905   1.281  -1.215   0.610  0.6239  1.9464 -1.1030
  157DOPC  H14S18906   1.362  -1.381   0.630 -0.1087  0.4761  1.3350
  157DOPC  C21518907   1.486  -1.233   0.540  0.0639  0.4103  1.0208
  157DOPC  H15R18908   1.579  -1.277   0.579  0.6734  1.8317  1.2232
  157DOPC  H15S18909   1.488  -1.122   0.529 -2.0637  0.3195 -1.4395
  157DOPC  C21618910   1.463  -1.298   0.404 -0.2046 -0.2822 -0.1825
  157DOPC  H16R18911   1.491  -1.405   0.410 -0.9515 -0.4418  0.5994
  157DOPC  H16S18912   1.529  -1.239   0.336 -1.1441  2.1057  0.8600
  157DOPC  C21718913   1.321  -1.304   0.344  0.1943 -0.3790  0.0902
  157DOPC  H17R18914   1.256  -1.373   0.403  1.9596 -2.0457  0.2087
  157DOPC  H17S18915   1.326  -1.354   0.245 -0.2139  0.3526 -0.3086
  157DOPC  C21818916   1.248  -1.165   0.303  0.2608 -0.3602  1.1854
  157DOPC  H18R18917   1.273  -1.092   0.382 -1.2692 -0.3785  1.7183
  157DOPC  H18S18918   1.138  -1.175   0.306  0.1352  0.4158 -0.0670
  157DOPC  H18T18919   1.286  -1.125   0.206  0.2730  3.6860  2.6710
  157DOPC   C3318920   1.388  -0.513   1.979  0.6074 -0.2025 -0.0711
  157DOPC   H3X18921   1.395  -0.476   2.083 -0.1352 -1.3989  0.4165
  157DOPC   H3Y18922   1.282  -0.491   1.954  0.5612  0.9998  1.0782
  157DOPC   C3418923   1.483  -0.422   1.902  0.3393 -0.4394  0.1803
  157DOPC   H4X18924   1.586  -0.462   1.907 -0.0535 -1.3827  1.0434
  157DOPC   H4Y18925   1.488  -0.323   1.952 -1.3756 -0.3294  0.2126
  157DOPC   C3518926   1.440  -0.406   1.752 -0.1665 -0.6948 -0.1322
  157DOPC   H5X18927   1.520  -0.336   1.720 -0.8542 -1.1153 -3.1252
  157DOPC   H5Y18928   1.337  -0.363   1.746  0.0684 -0.1877 -0.6190
  157DOPC   C3618929   1.451  -0.536   1.678 -0.6065  0.1914  0.5122
  157DOPC   H6X18930   1.556  -0.573   1.675 -0.7083 -0.0375 -1.1353
  157DOPC   H6Y18931   1.386  -0.616   1.720  0.2284 -0.6384  0.2579
  157DOPC   C3718932   1.425  -0.525   1.531  0.0588 -0.0148  0.7761
  157DOPC   H7X18933   1.328  -0.478   1.505  0.4396 -0.9963 -2.9943
  157DOPC   H7Y18934   1.506  -0.453   1.510  0.3084 -0.2199  1.0168
  157DOPC   C3818935   1.444  -0.655   1.454  0.4971  0.3652  0.1168
  157DOPC   H8X18936   1.511  -0.725   1.509  0.5020 -2.0670 -2.7553
  157DOPC   H8Y18937   1.508  -0.642   1.364  1.3174 -0.8402  0.5048
  157DOPC   C3918938   1.308  -0.711   1.421  0.7533  0.1010  0.4020
  157DOPC   H9X18939   1.238  -0.727   1.504  2.2724  1.7274  2.0922
  157DOPC  C31018940   1.247  -0.709   1.300 -0.0843  0.2605 -0.0857
  157DOPC  H10X18941   1.139  -0.730   1.299 -0.4039  1.7716  0.6310
  157DOPC  C31118942   1.309  -0.668   1.174 -0.3343 -0.4734 -0.1869
  157DOPC  H11X18943   1.408  -0.618   1.181 -0.7597  0.4656 -0.6404
  157DOPC  H11Y18944   1.247  -0.582   1.139 -0.8119 -0.3607  0.8948
  157DOPC  C31218945   1.326  -0.772   1.065 -0.3138  0.2246 -0.0424
  157DOPC  H12X18946   1.235  -0.834   1.056  1.1443 -2.0148 -0.3480
  157DOPC  H12Y18947   1.410  -0.835   1.102  0.1269  0.9031  0.1214
  157DOPC  C31318948   1.352  -0.703   0.923  0.2369  0.0583 -0.2020
  157DOPC  H13X18949   1.284  -0.616   0.913  1.6198  1.1361 -0.5977
  157DOPC  H13Y18950   1.460  -0.681   0.911  0.5626 -2.4071 -3.3247
  157DOPC  C31418951   1.321  -0.792   0.809  0.2470  0.6909 -0.0194
  157DOPC  H14X18952   1.391  -0.878   0.815 -0.4675  0.2114  2.7385
  157DOPC  H14Y18953   1.219  -0.837   0.815  1.5070 -2.3165  0.5797
  157DOPC  C31518954   1.340  -0.712   0.677  0.2685 -0.0759  0.1949
  157DOPC  H15X18955   1.436  -0.655   0.674 -0.3408  0.9722  0.0917
  157DOPC  H15Y18956   1.264  -0.631   0.668  0.7198  0.3780  0.3422
  157DOPC  C31618957   1.323  -0.802   0.553  0.2007  0.3624 -1.1352
  157DOPC  H16X18958   1.417  -0.854   0.524  0.5679  1.4974 -2.0642
  157DOPC  H16Y18959   1.251  -0.881   0.582  2.0021 -0.9554 -0.0040
  157DOPC  C31718960   1.284  -0.723   0.427  0.6687 -0.1750 -0.1383
  157DOPC  H17X18961   1.295  -0.799   0.347  2.1902 -0.4522  0.3103
  157DOPC  H17Y18962   1.179  -0.686   0.433  0.3389 -1.2377  0.7660
  157DOPC  C31818963   1.381  -0.615   0.373 -0.5400 -0.1212 -0.5935
  157DOPC  H18X18964   1.374  -0.580   0.268  0.6502  0.9424 -0.3452
  157DOPC  H18Y18965   1.359  -0.524   0.432 -2.6420 -0.4417 -0.8303
  157DOPC  H18Z18966   1.486  -0.649   0.385 -0.1160  1.5602  0.8438
  158DOPC     N18967   0.078  -2.650   2.437  0.4518  0.0232 -0.2025
  158DOPC   C1218968   0.218  -2.699   2.452  0.5013 -0.2859  0.0554
  158DOPC  H12A18969   0.281  -2.640   2.386  1.7876 -1.5128  0.1382
  158DOPC  H12B18970   0.223  -2.803   2.423 -0.3999 -0.0335 -1.0931
  158DOPC   C1318971  -0.009  -2.711   2.541  0.3668  0.0248  0.6218
  158DOPC  H13A18972  -0.115  -2.694   2.529  0.3168 -1.1300 -0.7897
  158DOPC  H13B18973   0.006  -2.817   2.554 -1.6232 -0.1902  1.5498
  158DOPC  H13C18974   0.015  -2.670   2.638 -1.5094  0.3871  0.9837
  158DOPC   C1418975   0.027  -2.688   2.301  0.1234 -0.0175  0.1408
  158DOPC  H14A18976   0.085  -2.644   2.221 -0.9574 -2.5387 -2.2241
  158DOPC  H14B18977   0.021  -2.795   2.288  1.8120 -0.5526  2.9818
  158DOPC  H14C18978  -0.073  -2.647   2.298 -0.6806 -1.8770  0.0146
  158DOPC   C1518979   0.069  -2.499   2.440 -0.6481 -0.2087 -0.3474
  158DOPC  H15A18980   0.118  -2.457   2.526 -1.0147  1.1706 -0.7895
  158DOPC  H15B18981  -0.033  -2.463   2.441 -0.8185 -0.6706  1.0167
  158DOPC  H15C18982   0.121  -2.467   2.350  0.3109  2.2139  0.9867
  158DOPC   C1118983   0.301  -2.684   2.579 -0.1596 -0.1000 -0.9757
  158DOPC  H11A18984   0.259  -2.752   2.656  1.4092 -0.1797 -0.1502
  158DOPC  H11B18985   0.399  -2.738   2.576  0.0228 -0.1154  2.3774
  158DOPC     P18986   0.441  -2.461   2.533  0.0224  0.0612  0.4085
  158DOPC   O1318987   0.566  -2.461   2.616  0.4672  0.2862  0.4505
  158DOPC   O1418988   0.376  -2.332   2.507  0.0462  0.2498  0.2453
  158DOPC   O1218989   0.329  -2.546   2.607 -0.4717  0.3595  0.1193
  158DOPC   O1118990   0.453  -2.551   2.398 -0.4714 -0.5318  0.1165
  158DOPC    C118991   0.585  -2.571   2.335 -0.1242 -0.3420  0.0239
  158DOPC    HA18992   0.582  -2.658   2.266 -0.4706  0.4161 -0.9563
  158DOPC    HB18993   0.653  -2.598   2.418 -0.3310  0.6100  0.5174
  158DOPC    C218994   0.651  -2.453   2.254 -0.1216  0.3526 -0.4794
  158DOPC    HS18995   0.709  -2.399   2.332  0.5182 -1.1600  0.1235
  158DOPC   O2118996   0.544  -2.371   2.201  0.2897  0.1591  0.6701
  158DOPC   C2118997   0.591  -2.251   2.164 -0.3984 -0.5782 -0.9745
  158DOPC   O2218998   0.706  -2.213   2.196 -0.0014 -0.3746  0.0623
  158DOPC   C2218999   0.479  -2.163   2.125  0.4183  0.2378 -0.4767
  158DOPC   H2R19000   0.435  -2.108   2.211 -0.2690 -0.5513 -0.3019
  158DOPC   H2S19001   0.396  -2.224   2.081 -0.8549  1.2425  0.4561
  158DOPC    C319002   0.763  -2.497   2.161  0.4611 -0.1436 -0.0124
  158DOPC    HX19003   0.834  -2.568   2.208  0.1725 -1.1614 -1.0826
  158DOPC    HY19004   0.822  -2.405   2.137  1.1887  0.0969  2.4739
  158DOPC   O3119005   0.706  -2.544   2.038  0.1146  0.3285 -0.5580
  158DOPC   C3119006   0.791  -2.608   1.954  0.2988 -0.5459 -0.2535
  158DOPC   O3219007   0.911  -2.601   1.964 -0.1859 -0.6162  0.0034
  158DOPC   C3219008   0.700  -2.682   1.861  0.0325 -0.0245  0.4012
  158DOPC   H2X19009   0.664  -2.772   1.915 -0.6979 -0.4699 -0.7990
  158DOPC   H2Y19010   0.611  -2.616   1.847 -0.3131 -1.0473 -3.2497
  158DOPC   C2319011   0.536  -2.050   2.029  0.2776  0.7733  0.5209
  158DOPC   H3R19012   0.608  -1.990   2.088  0.0948 -0.2628  1.8584
  158DOPC   H3S19013   0.465  -1.968   2.004  0.2940  1.2418  1.9524
  158DOPC   C2419014   0.601  -2.110   1.903  0.4117 -0.0280 -0.3408
  158DOPC   H4R19015   0.692  -2.162   1.940 -0.2052 -1.2607 -0.5184
  158DOPC   H4S19016   0.659  -2.034   1.845  1.6075 -1.3798 -0.9853
  158DOPC   C2519017   0.502  -2.185   1.816 -0.4465  0.2081 -0.1432
  158DOPC   H5R19018   0.416  -2.120   1.788 -2.3868 -0.9786  2.6337
  158DOPC   H5S19019   0.459  -2.276   1.864  0.9737 -0.2116  0.3773
  158DOPC   C2619020   0.580  -2.238   1.691  0.7159 -0.5514  0.3064
  158DOPC   H6R19021   0.680  -2.268   1.730  0.2641  0.9318  2.8201
  158DOPC   H6S19022   0.589  -2.154   1.619  0.5442  0.4564  1.4327
  158DOPC   C2719023   0.523  -2.361   1.626 -0.5117 -0.4846  0.4110
  158DOPC   H7R19024   0.420  -2.340   1.590 -0.1047  1.1435  0.1474
  158DOPC   H7S19025   0.517  -2.447   1.697 -2.4317  0.0894  1.0196
  158DOPC   C2819026   0.617  -2.394   1.510 -0.8187 -0.1173 -0.3501
  158DOPC   H8R19027   0.606  -2.503   1.494 -1.5754  0.0521 -1.0397
  158DOPC   H8S19028   0.725  -2.385   1.536 -0.5373 -0.5203 -1.3571
  158DOPC   C2919029   0.605  -2.309   1.382  0.4541  0.1934  0.0260
  158DOPC   H9R19030   0.595  -2.202   1.407  0.5576  0.1318  0.3354
  158DOPC  C21019031   0.626  -2.344   1.256  0.2651  0.0392 -0.4789
  158DOPC  H10R19032   0.597  -2.270   1.180 -1.0088 -0.1970 -0.2575
  158DOPC  C21119033   0.635  -2.485   1.207  0.1032  0.2544 -0.9219
  158DOPC  H11R19034   0.593  -2.549   1.288 -0.2048 -1.8145 -2.6363
  158DOPC  H11S19035   0.742  -2.514   1.201  0.3198 -0.1365  2.6424
  158DOPC  C21219036   0.566  -2.513   1.069 -0.2672 -0.3900  0.3938
  158DOPC  H12R19037   0.457  -2.493   1.072  0.0429  1.3427  1.6690
  158DOPC  H12S19038   0.581  -2.618   1.036 -0.0604  0.2661 -1.7355
  158DOPC  C21319039   0.635  -2.438   0.952  0.6226 -0.2738  0.2716
  158DOPC  H13R19040   0.741  -2.469   0.941  0.3527 -0.8043 -1.0029
  158DOPC  H13S19041   0.630  -2.329   0.971  0.3194 -0.7015  3.1804
  158DOPC  C21419042   0.567  -2.456   0.815  0.1990  0.1397  0.2539
  158DOPC  H14R19043   0.460  -2.425   0.817  0.0227 -0.4751  0.3609
  158DOPC  H14S19044   0.569  -2.562   0.782 -0.5485  0.3340 -0.4716
  158DOPC  C21519045   0.643  -2.363   0.719  0.3619  0.6447 -0.8511
  158DOPC  H15R19046   0.754  -2.374   0.721  0.6422  3.0530 -0.5234
  158DOPC  H15S19047   0.616  -2.257   0.739  1.1352  0.5192  1.2008
  158DOPC  C21619048   0.604  -2.386   0.572 -0.7120 -0.1709  0.0339
  158DOPC  H16R19049   0.500  -2.352   0.554 -0.3287  0.3508 -1.2941
  158DOPC  H16S19050   0.605  -2.496   0.557 -1.6794 -0.3553  1.1249
  158DOPC  C21719051   0.694  -2.311   0.480 -0.1289 -0.5191 -0.6793
  158DOPC  H17R19052   0.802  -2.330   0.491 -0.3389 -0.4227  2.7766
  158DOPC  H17S19053   0.682  -2.204   0.508  2.1019 -0.0656 -1.2669
  158DOPC  C21819054   0.675  -2.354   0.339  0.7351 -0.8469  0.1648
  158DOPC  H18R19055   0.721  -2.283   0.266 -0.1084 -1.1572 -0.6949
  158DOPC  H18S19056   0.568  -2.356   0.309  1.0046 -0.5858 -0.8592
  158DOPC  H18T19057   0.709  -2.460   0.332 -0.5647 -1.2033 -1.2097
  158DOPC   C3319058   0.766  -2.699   1.723  0.1790 -0.4370 -0.4345
  158DOPC   H3X19059   0.852  -2.763   1.750  1.5939  2.3309  2.2761
  158DOPC   H3Y19060   0.799  -2.599   1.687  1.7297 -0.2709  1.3175
  158DOPC   C3419061   0.682  -2.786   1.619 -0.4074 -0.4698  0.4715
  158DOPC   H4X19062   0.585  -2.735   1.601  0.0682  0.0804 -0.6793
  158DOPC   H4Y19063   0.661  -2.890   1.650 -0.4774 -1.5148 -2.7803
  158DOPC   C3519064   0.756  -2.794   1.479 -0.1018  0.1152  0.5956
  158DOPC   H5X19065   0.851  -2.851   1.490 -0.1318  0.3082  2.0640
  158DOPC   H5Y19066   0.790  -2.692   1.451  2.6731 -0.8385  0.1819
  158DOPC   C3619067   0.670  -2.855   1.364 -0.7998 -0.2218 -0.0119
  158DOPC   H6X19068   0.649  -2.958   1.400  0.7593 -0.8991 -0.9394
  158DOPC   H6Y19069   0.575  -2.799   1.349  0.1642  1.5179  0.0546
  158DOPC   C3719070   0.758  -2.871   1.246 -0.3610  0.3333  0.3136
  158DOPC   H7X19071   0.799  -2.781   1.197 -1.2089  0.2298 -0.6199
  158DOPC   H7Y19072   0.853  -2.925   1.265 -0.5285 -0.6792 -1.5459
  158DOPC   C3819073   0.688  -2.951   1.135 -0.4787 -0.5455  0.2708
  158DOPC   H8X19074   0.611  -2.893   1.081  0.2892  0.3072  0.0752
  158DOPC   H8Y19075   0.635  -3.033   1.189  0.4679 -0.5844  1.1672
  158DOPC   C3919076   0.793  -3.010   1.037 -0.0394  0.3935  0.1211
  158DOPC   H9X19077   0.874  -3.067   1.086  0.7546  0.3802 -1.1664
  158DOPC  C31019078   0.797  -3.001   0.903  0.6051 -0.3520  0.0934
  158DOPC  H10X19079   0.885  -3.042   0.851  0.6329  0.0389 -0.1736
  158DOPC  C31119080   0.705  -2.927   0.810 -0.4059 -0.0534  0.0916
  158DOPC  H11X19081   0.663  -2.842   0.868 -0.9014 -0.2669  0.0562
  158DOPC  H11Y19082   0.615  -2.984   0.777 -1.1805  2.0932 -1.7874
  158DOPC  C31219083   0.772  -2.871   0.680  0.0713  0.1290 -0.8010
  158DOPC  H12X19084   0.833  -2.947   0.627  0.1899  0.4806 -1.1749
  158DOPC  H12Y19085   0.844  -2.791   0.707 -0.8372  1.1489 -1.2907
  158DOPC  C31319086   0.661  -2.813   0.591  0.2550 -0.1623  0.4406
  158DOPC  H13X19087   0.593  -2.893   0.556  1.2610 -1.5730  1.6092
  158DOPC  H13Y19088   0.596  -2.752   0.658  0.2172 -2.1492  2.3166
  158DOPC  C31419089   0.713  -2.738   0.465 -0.5698 -0.1753  0.1686
  158DOPC  H14X19090   0.625  -2.692   0.415  1.0509  0.1896 -2.5282
  158DOPC  H14Y19091   0.774  -2.649   0.490 -0.3613  0.1283 -1.3483
  158DOPC  C31519092   0.795  -2.818   0.364  0.5380  0.0282 -0.1861
  158DOPC  H15X19093   0.735  -2.911   0.361 -0.0431  0.4132 -0.5136
  158DOPC  H15Y19094   0.895  -2.848   0.403 -0.5212 -2.5958  0.6826
  158DOPC  C31619095   0.798  -2.751   0.232  0.3114 -0.4460 -0.1881
  158DOPC  H16X19096   0.694  -2.727   0.200  0.5180  1.7533  0.6625
  158DOPC  H16Y19097   0.851  -2.655   0.241  0.6640 -0.3532 -2.5989
  158DOPC  C31719098   0.846  -2.836   0.116 -0.7688  1.0853  0.3450
  158DOPC  H17X19099   0.936  -2.884   0.161 -0.8894 -0.6990 -1.2119
  158DOPC  H17Y19100   0.776  -2.921   0.099  1.5737 -0.5937 -1.6901
  158DOPC  C31819101   0.873  -2.752  -0.016  0.4368 -0.1270  0.3916
  158DOPC  H18X19102   0.781  -2.693  -0.035  0.9894  0.1285 -1.8400
  158DOPC  H18Y19103   0.959  -2.683  -0.019  0.1430  0.2096 -0.9180
  158DOPC  H18Z19104   0.899  -2.824  -0.097  1.6431 -1.7014  2.0939
  159DOPC     N19105   1.578  -0.582   2.805  0.1398 -1.1964  0.5043
  159DOPC   C1219106   1.649  -0.541   2.675  0.5582  0.5694 -1.1034
  159DOPC  H12A19107   1.699  -0.446   2.687  1.2949  0.0292  0.2424
  159DOPC  H12B19108   1.583  -0.521   2.592  0.8055  1.6483 -1.0535
  159DOPC   C1319109   1.682  -0.620   2.902  0.5074  0.4731  0.1469
  159DOPC  H13A19110   1.688  -0.725   2.925 -1.8515 -0.0557 -1.3818
  159DOPC  H13B19111   1.779  -0.593   2.861  0.9771 -1.3379 -0.0210
  159DOPC  H13C19112   1.674  -0.565   2.995  0.8779  0.5392  0.1438
  159DOPC   C1419113   1.478  -0.686   2.773  0.4188  0.4904 -0.1174
  159DOPC  H14A19114   1.519  -0.774   2.726 -1.9480 -0.4221 -0.6165
  159DOPC  H14B19115   1.444  -0.729   2.866  0.9098 -0.2001 -0.2478
  159DOPC  H14C19116   1.391  -0.642   2.727 -0.7426  0.4111  1.9118
  159DOPC   C1519117   1.509  -0.459   2.857  0.5383  0.5014 -0.4386
  159DOPC  H15A19118   1.573  -0.387   2.906 -0.8527 -0.0414  2.3429
  159DOPC  H15B19119   1.427  -0.490   2.919  2.0302 -1.4749  0.6850
  159DOPC  H15C19120   1.472  -0.422   2.762 -0.6030 -0.7233 -0.5042
  159DOPC   C1119121   1.753  -0.640   2.616 -0.1731 -0.8740 -0.1580
  159DOPC  H11A19122   1.700  -0.737   2.612  0.7175 -1.3418 -1.0445
  159DOPC  H11B19123   1.771  -0.635   2.506  1.7043  0.7386  0.1684
  159DOPC     P19124   1.995  -0.575   2.649 -0.1378 -0.2112 -0.3630
  159DOPC   O1319125   2.115  -0.639   2.708  0.1663 -0.1686 -0.7079
  159DOPC   O1419126   1.965  -0.437   2.690 -0.6028 -0.2107  0.6628
  159DOPC   O1219127   1.871  -0.659   2.685 -0.0011 -0.0061  0.4278
  159DOPC   O1119128   2.006  -0.578   2.488  0.3541  0.1767  0.1185
  159DOPC    C119129   2.069  -0.685   2.423 -0.1955 -0.2696  0.0509
  159DOPC    HA19130   2.052  -0.779   2.478  1.4991 -1.5317 -1.4569
  159DOPC    HB19131   2.178  -0.668   2.436 -0.7876  2.6779  2.3561
  159DOPC    C219132   2.043  -0.702   2.269  0.2043 -0.5047 -0.1233
  159DOPC    HS19133   2.124  -0.771   2.238 -1.2306 -2.8415  1.0284
  159DOPC   O2119134   2.043  -0.579   2.196  0.3835  0.1338  0.3675
  159DOPC   C2119135   2.156  -0.560   2.130  0.3402  0.0882  0.0334
  159DOPC   O2219136   2.257  -0.630   2.128  0.1055 -0.6237  0.1516
  159DOPC   C2219137   2.155  -0.435   2.047 -0.1438  0.0864  0.1779
  159DOPC   H2R19138   2.192  -0.350   2.109  0.8401 -0.9368  1.0227
  159DOPC   H2S19139   2.049  -0.408   2.028  0.1277  1.2667  0.2264
  159DOPC    C319140   1.899  -0.761   2.242 -0.0788 -0.7072 -0.3917
  159DOPC    HX19141   1.827  -0.686   2.282  0.0297 -0.8099  0.0046
  159DOPC    HY19142   1.874  -0.849   2.306 -0.9728 -1.5849 -1.8985
  159DOPC   O3119143   1.882  -0.783   2.100  0.2328 -0.4021  0.1574
  159DOPC   C3119144   1.825  -0.685   2.030 -0.7632 -0.0225  0.4924
  159DOPC   O3219145   1.778  -0.581   2.070  0.1446  0.1703 -0.9933
  159DOPC   C3219146   1.846  -0.717   1.886  0.0346 -0.4205 -0.3680
  159DOPC   H2X19147   1.947  -0.763   1.877  1.0428  0.7051  3.4602
  159DOPC   H2Y19148   1.765  -0.783   1.848 -1.0020  0.0056  1.0454
  159DOPC   C2319149   2.230  -0.449   1.909 -0.3415 -0.4827 -0.5180
  159DOPC   H3R19150   2.185  -0.523   1.840 -0.0633 -0.0854 -1.1273
  159DOPC   H3S19151   2.336  -0.476   1.932 -0.9912 -2.7413  0.0828
  159DOPC   C2419152   2.229  -0.310   1.843  0.2282 -0.5417  0.2313
  159DOPC   H4R19153   2.276  -0.240   1.916  0.0735 -0.1199 -0.0715
  159DOPC   H4S19154   2.121  -0.285   1.838  0.1740 -0.7474  0.3642
  159DOPC   C2519155   2.306  -0.289   1.709 -0.2097  0.1316 -0.1058
  159DOPC   H5R19156   2.415  -0.312   1.714 -0.2319 -1.3906 -3.3846
  159DOPC   H5S19157   2.310  -0.179   1.695  0.2736  0.0863 -0.3514
  159DOPC   C2619158   2.237  -0.347   1.585  0.7045 -0.3391  0.7971
  159DOPC   H6R19159   2.139  -0.295   1.572  0.6279 -0.8472 -0.8107
  159DOPC   H6S19160   2.222  -0.457   1.582  1.2093 -0.4196  1.0586
  159DOPC   C2719161   2.320  -0.307   1.460 -0.1509 -0.0770 -0.0890
  159DOPC   H7R19162   2.425  -0.333   1.481 -0.3138 -0.6343  0.0441
  159DOPC   H7S19163   2.314  -0.197   1.443  2.4874  0.1673  0.2796
  159DOPC   C2819164   2.264  -0.376   1.341 -0.1833 -0.0655 -1.0022
  159DOPC   H8R19165   2.161  -0.334   1.332  0.3402  0.9043 -3.4193
  159DOPC   H8S19166   2.256  -0.485   1.355 -0.3507 -0.1882 -1.9522
  159DOPC   C2919167   2.343  -0.350   1.218  0.2313 -0.1732  0.6081
  159DOPC   H9R19168   2.420  -0.426   1.201  0.2030 -0.4470  1.6250
  159DOPC  C21019169   2.308  -0.273   1.110  0.1305  0.4280 -0.5285
  159DOPC  H10R19170   2.376  -0.272   1.024  2.3627 -4.1367  0.9222
  159DOPC  C21119171   2.185  -0.181   1.102  0.2038  0.5175  0.2900
  159DOPC  H11R19172   2.196  -0.071   1.120  0.6977  0.4649  0.3246
  159DOPC  H11S19173   2.131  -0.198   1.198  1.2234 -0.1951  0.7511
  159DOPC  C21219174   2.098  -0.204   0.978 -0.8521 -0.0397  0.3160
  159DOPC  H12R19175   2.003  -0.147   0.981 -0.6889  0.3091 -0.6111
  159DOPC  H12S19176   2.077  -0.313   0.974  1.7262 -0.5834 -0.2742
  159DOPC  C21319177   2.172  -0.184   0.835 -0.6041 -0.2113 -0.7879
  159DOPC  H13R19178   2.270  -0.236   0.833  0.0491  0.9916 -1.2102
  159DOPC  H13S19179   2.181  -0.077   0.805 -0.4607  0.2936  0.9241
  159DOPC  C21419180   2.100  -0.259   0.724 -0.2063  0.3480 -0.4822
  159DOPC  H14R19181   1.997  -0.218   0.728  0.7686  2.9131  1.3237
  159DOPC  H14S19182   2.097  -0.369   0.735  2.0485  0.1086 -1.7109
  159DOPC  C21519183   2.163  -0.236   0.586 -0.5907 -0.1943  0.3630
  159DOPC  H15R19184   2.272  -0.252   0.605 -0.1551  2.1306  0.0833
  159DOPC  H15S19185   2.149  -0.132   0.550 -1.6609 -0.5489 -0.2833
  159DOPC  C21619186   2.097  -0.333   0.489 -0.3365  0.0570 -0.0589
  159DOPC  H16R19187   2.005  -0.279   0.458 -0.5399 -0.9087 -1.2007
  159DOPC  H16S19188   2.075  -0.432   0.534 -1.3630 -0.2698 -1.2427
  159DOPC  C21719189   2.178  -0.366   0.361 -0.5105 -0.6295  0.0446
  159DOPC  H17R19190   2.118  -0.420   0.284 -0.6574 -0.5546  0.1061
  159DOPC  H17S19191   2.264  -0.426   0.396  0.1579 -0.0516 -0.5720
  159DOPC  C21819192   2.225  -0.233   0.299  0.1794  0.4661 -0.1958
  159DOPC  H18R19193   2.241  -0.234   0.189 -0.9460  1.9527 -0.4101
  159DOPC  H18S19194   2.305  -0.178   0.354  1.5654 -3.0941  1.6294
  159DOPC  H18T19195   2.142  -0.159   0.300  0.2099  0.5012 -0.2868
  159DOPC   C3319196   1.847  -0.583   1.803 -0.3815  0.2928 -0.4111
  159DOPC   H3X19197   1.941  -0.531   1.832 -1.0939  0.2360  2.2480
  159DOPC   H3Y19198   1.768  -0.509   1.829  0.7638  1.0606  1.0400
  159DOPC   C3419199   1.843  -0.602   1.652 -0.6351 -0.4692  0.5640
  159DOPC   H4X19200   1.751  -0.661   1.632 -1.3636  0.3372  1.4381
  159DOPC   H4Y19201   1.938  -0.645   1.614 -0.3108  1.1271 -0.5615
  159DOPC   C3519202   1.840  -0.468   1.575 -0.0389  0.1031  0.4689
  159DOPC   H5X19203   1.936  -0.413   1.582 -0.1408  0.3228  0.1391
  159DOPC   H5Y19204   1.764  -0.396   1.610  0.0525  0.5651 -0.2725
  159DOPC   C3619205   1.814  -0.496   1.425  0.6031 -0.2627 -0.1418
  159DOPC   H6X19206   1.883  -0.580   1.405  1.8248 -0.2658  3.4571
  159DOPC   H6Y19207   1.709  -0.528   1.408  1.3547 -2.5179 -0.9181
  159DOPC   C3719208   1.864  -0.376   1.347 -0.6605  0.0596  0.0512
  159DOPC   H7X19209   1.794  -0.296   1.381 -0.6133 -0.3065  1.0343
  159DOPC   H7Y19210   1.968  -0.350   1.374 -0.6992  0.5591 -0.2655
  159DOPC   C3819211   1.858  -0.380   1.189  0.2010  0.5107  0.4048
  159DOPC   H8X19212   1.934  -0.455   1.158  0.0028  0.1767  0.7313
  159DOPC   H8Y19213   1.891  -0.281   1.151  2.0512  1.0105  3.0371
  159DOPC   C3919214   1.716  -0.397   1.140 -0.4834  0.6999  0.3661
  159DOPC   H9X19215   1.632  -0.353   1.196 -0.7930 -0.0320  0.4775
  159DOPC  C31019216   1.683  -0.483   1.036 -0.8566  0.2785 -0.5824
  159DOPC  H10X19217   1.583  -0.496   0.992 -0.0055 -2.1600 -2.0030
  159DOPC  C31119218   1.788  -0.562   0.964  0.6260  1.0497 -0.1356
  159DOPC  H11X19219   1.797  -0.662   1.011 -0.7744  1.5213  1.2691
  159DOPC  H11Y19220   1.890  -0.517   0.961  0.8199  0.6063 -3.0102
  159DOPC  C31219221   1.749  -0.580   0.809  0.5798 -0.2354  0.6008
  159DOPC  H12X19222   1.656  -0.640   0.802  0.7014 -0.3415 -0.0935
  159DOPC  H12Y19223   1.833  -0.630   0.756  2.4120  2.3360  0.8336
  159DOPC  C31319224   1.727  -0.443   0.744  0.7817  0.4062 -0.6082
  159DOPC  H13X19225   1.640  -0.384   0.780  0.4901  1.0690 -2.3094
  159DOPC  H13Y19226   1.821  -0.389   0.768  0.5755  0.4565  0.0911
  159DOPC  C31419227   1.719  -0.455   0.596 -0.0315 -0.2041 -0.5594
  159DOPC  H14X19228   1.816  -0.503   0.568 -0.6827 -1.4134 -0.8087
  159DOPC  H14Y19229   1.627  -0.514   0.575  0.1024 -0.2458 -1.0440
  159DOPC  C31519230   1.694  -0.325   0.521 -0.0375 -0.0968 -0.2271
  159DOPC  H15X19231   1.777  -0.254   0.544  1.0930 -1.3195 -0.4092
  159DOPC  H15Y19232   1.600  -0.278   0.558  0.0359 -0.9470  1.1155
  159DOPC  C31619233   1.689  -0.335   0.367  0.1733 -0.0559  0.7758
  159DOPC  H16X19234   1.778  -0.397   0.343  0.1184  0.0996  0.1704
  159DOPC  H16Y19235   1.597  -0.389   0.337 -0.5235  0.1128  2.4902
  159DOPC  C31719236   1.685  -0.193   0.303  0.4442  0.4838 -0.5074
  159DOPC  H17X19237   1.609  -0.129   0.354  1.5659  1.4423 -0.0106
  159DOPC  H17Y19238   1.787  -0.153   0.318  0.4928  0.7122 -1.4076
  159DOPC  C31819239   1.650  -0.191   0.155  0.7890  0.4440  0.7454
  159DOPC  H18X19240   1.653  -0.084   0.125  0.2253  0.3227  0.2375
  159DOPC  H18Y19241   1.724  -0.250   0.097  1.7532  1.0546  1.3158
  159DOPC  H18Z19242   1.547  -0.230   0.141  0.1987  2.0974  0.2872
  160DOPC     N19243  -1.415   3.127   2.734  0.5520 -0.4485  0.3792
  160DOPC   C1219244  -1.361   3.215   2.621 -0.1336 -0.3876 -0.3520
  160DOPC  H12A19245  -1.398   3.176   2.528 -0.6795 -3.1365  0.9001
  160DOPC  H12B19246  -1.254   3.218   2.616 -0.2168  2.0607 -3.5526
  160DOPC   C1319247  -1.555   3.088   2.711 -0.0092  0.2380  0.2301
  160DOPC  H13A19248  -1.555   3.031   2.619 -0.0524  0.2293  0.2364
  160DOPC  H13B19249  -1.590   3.008   2.774 -1.2433  0.2794 -0.3734
  160DOPC  H13C19250  -1.623   3.172   2.709  1.3794  1.4083 -0.0341
  160DOPC   C1419251  -1.418   3.198   2.867 -0.4118 -0.7949 -0.1106
  160DOPC  H14A19252  -1.322   3.243   2.888  1.1658 -3.4096 -1.2251
  160DOPC  H14B19253  -1.501   3.266   2.862 -1.8815 -2.6421 -2.7680
  160DOPC  H14C19254  -1.438   3.139   2.956  1.3876 -0.6301  0.4548
  160DOPC   C1519255  -1.333   3.005   2.748 -0.3686 -1.0181  0.5065
  160DOPC  H15A19256  -1.356   2.938   2.666 -0.6191  0.9403 -1.1022
  160DOPC  H15B19257  -1.366   2.948   2.834 -0.0284 -3.3324 -0.8030
  160DOPC  H15C19258  -1.227   3.024   2.742 -0.9961  2.9305 -0.9025
  160DOPC   C1119259  -1.402   3.366   2.617  0.1498  0.1996  0.4951
  160DOPC  H11A19260  -1.358   3.409   2.709  2.5313 -0.1841 -0.4021
  160DOPC  H11B19261  -1.343   3.426   2.544 -0.1925 -1.9898 -1.7355
  160DOPC     P19262  -1.637   3.377   2.487  0.6664  0.2950 -0.1337
  160DOPC   O1319263  -1.664   3.507   2.430  0.0700 -0.3480  0.7540
  160DOPC   O1419264  -1.750   3.295   2.521 -0.2433 -0.8222 -0.5732
  160DOPC   O1219265  -1.546   3.393   2.616 -0.2477  0.0546  0.8896
  160DOPC   O1119266  -1.558   3.294   2.379 -0.3538 -0.2380 -0.0229
  160DOPC    C119267  -1.447   3.346   2.311 -0.7156 -0.0982  0.0019
  160DOPC    HA19268  -1.353   3.301   2.349 -1.3302 -1.3599  0.0730
  160DOPC    HB19269  -1.427   3.455   2.325  1.8810 -0.4949 -0.1060
  160DOPC    C219270  -1.461   3.306   2.162  0.4924 -0.1457 -0.2630
  160DOPC    HS19271  -1.376   3.347   2.103 -0.2920 -2.9296 -3.6478
  160DOPC   O2119272  -1.579   3.355   2.101  0.3629  0.0446  0.0025
  160DOPC   C2119273  -1.594   3.488   2.099 -1.0284  0.3823 -0.0420
  160DOPC   O2219274  -1.504   3.568   2.132  0.4727 -0.6310 -0.1139
  160DOPC   C2219275  -1.731   3.533   2.046  1.1295 -0.0329  0.0168
  160DOPC   H2R19276  -1.804   3.531   2.130  1.3998 -0.7882  0.2360
  160DOPC   H2S19277  -1.752   3.459   1.966 -1.6101  1.3390 -0.6623
  160DOPC    C319278  -1.454   3.155   2.145 -0.8578 -0.3865  0.2638
  160DOPC    HX19279  -1.537   3.112   2.205  0.3759  1.7857  3.8423
  160DOPC    HY19280  -1.360   3.121   2.194  0.7600  3.0146 -0.1787
  160DOPC   O3119281  -1.448   3.112   2.008  0.6634 -0.2344  0.1661
  160DOPC   C3119282  -1.573   3.082   1.955 -0.3098  0.2293 -0.1489
  160DOPC   O3219283  -1.685   3.092   2.009 -0.1577  0.9076  0.4837
  160DOPC   C3219284  -1.551   3.026   1.818  0.4154 -0.3081 -0.8564
  160DOPC   H2X19285  -1.457   3.069   1.778  0.0964  2.5702  1.2088
  160DOPC   H2Y19286  -1.543   2.917   1.839  0.3973  0.2837  3.0265
  160DOPC   C2319287  -1.731   3.670   1.977 -0.4764  0.8876 -0.0666
  160DOPC   H3R19288  -1.664   3.673   1.888 -1.1823  0.8358 -0.6053
  160DOPC   H3S19289  -1.675   3.729   2.052 -0.9132  0.4136  0.6374
  160DOPC   C2419290  -1.865   3.733   1.946  0.3130  0.2681 -0.3717
  160DOPC   H4R19291  -1.911   3.748   2.046  1.2589 -1.2807  0.3362
  160DOPC   H4S19292  -1.926   3.667   1.881 -0.2042 -1.3385  1.6344
  160DOPC   C2519293  -1.869   3.871   1.885  0.2086  0.1075 -0.1573
  160DOPC   H5R19294  -1.819   3.928   1.966  2.0757  0.5087 -1.5238
  160DOPC   H5S19295  -1.974   3.903   1.868  0.2033  0.6888  0.8965
  160DOPC   C2619296  -1.790   3.892   1.749  0.3127  0.2448  0.6767
  160DOPC   H6R19297  -1.691   3.844   1.765  0.3836  0.0801 -0.2060
  160DOPC   H6S19298  -1.770   3.998   1.724 -0.3588  0.1598 -0.2779
  160DOPC   C2719299  -1.851   3.814   1.627 -0.0214  0.1346 -0.7025
  160DOPC   H7R19300  -1.961   3.833   1.625 -0.0039  0.2048 -1.7469
  160DOPC   H7S19301  -1.838   3.705   1.646  2.6469  0.5134 -0.0942
  160DOPC   C2819302  -1.780   3.857   1.503  0.6528  0.2024 -0.5709
  160DOPC   H8R19303  -1.673   3.827   1.507  0.1552 -2.0002 -2.3627
  160DOPC   H8S19304  -1.770   3.968   1.495  2.2725 -0.0157 -2.2507
  160DOPC   C2919305  -1.850   3.787   1.389  0.3625  0.0694 -0.2099
  160DOPC   H9R19306  -1.956   3.809   1.367 -0.0936 -2.4270 -0.8921
  160DOPC  C21019307  -1.785   3.706   1.304 -0.2173 -0.3364  0.2026
  160DOPC  H10R19308  -1.858   3.663   1.234  0.1950  0.3383 -0.6547
  160DOPC  C21119309  -1.636   3.664   1.288 -0.5163 -0.0750 -0.5240
  160DOPC  H11R19310  -1.633   3.561   1.247  0.2283 -0.8442  1.3700
  160DOPC  H11S19311  -1.591   3.663   1.389 -0.2590  3.1205 -0.5154
  160DOPC  C21219312  -1.549   3.750   1.188  1.0589 -0.1652  0.3087
  160DOPC  H12R19313  -1.440   3.752   1.208  0.7182  0.3448  2.3038
  160DOPC  H12S19314  -1.583   3.855   1.201  3.3805  0.9307 -1.7688
  160DOPC  C21319315  -1.566   3.692   1.050  0.2873  0.2711 -0.5404
  160DOPC  H13R19316  -1.675   3.678   1.037  0.0793 -2.5309  2.8855
  160DOPC  H13S19317  -1.507   3.599   1.035 -1.8382 -1.8031  2.7137
  160DOPC  C21419318  -1.511   3.789   0.939 -0.7321 -0.0911  0.8132
  160DOPC  H14R19319  -1.402   3.771   0.933 -0.9463 -0.9944 -1.3278
  160DOPC  H14S19320  -1.536   3.891   0.973 -0.7744  0.8307 -1.7815
  160DOPC  C21519321  -1.567   3.758   0.800  0.1196  0.2655 -0.0718
  160DOPC  H15R19322  -1.668   3.803   0.786  0.3344  0.9405  0.4865
  160DOPC  H15S19323  -1.576   3.647   0.797 -0.2669  0.2626  0.9462
  160DOPC  C21619324  -1.473   3.806   0.686  0.1136  0.2378 -0.2801
  160DOPC  H16R19325  -1.383   3.741   0.677 -0.2302 -0.2431 -0.2739
  160DOPC  H16S19326  -1.439   3.910   0.706  0.3604  0.2022 -0.5161
  160DOPC  C21719327  -1.552   3.810   0.554  0.1738  0.1263  0.5616
  160DOPC  H17R19328  -1.621   3.898   0.552 -0.3171 -0.2647 -0.7802
  160DOPC  H17S19329  -1.617   3.720   0.551 -0.4630  0.4755  2.5255
  160DOPC  C21819330  -1.459   3.805   0.432  0.5056  0.1769 -0.0114
  160DOPC  H18R19331  -1.396   3.896   0.428 -1.1878  1.3583 -1.8126
  160DOPC  H18S19332  -1.515   3.793   0.337 -0.6897  0.9828  0.5627
  160DOPC  H18T19333  -1.388   3.720   0.424  0.5114  0.3041 -1.6974
  160DOPC   C3319334  -1.668   3.054   1.722 -0.5171  0.6179 -0.1464
  160DOPC   H3X19335  -1.763   3.025   1.772 -0.6584 -2.8274 -2.0580
  160DOPC   H3Y19336  -1.658   2.995   1.629  0.9471  0.3643  0.1419
  160DOPC   C3419337  -1.664   3.200   1.687  0.3586  0.0421  0.1936
  160DOPC   H4X19338  -1.554   3.217   1.676 -0.0407  1.3613 -2.6846
  160DOPC   H4Y19339  -1.699   3.265   1.769 -0.9450  0.7364 -0.8813
  160DOPC   C3519340  -1.734   3.246   1.558  0.6209 -0.2232 -0.4632
  160DOPC   H5X19341  -1.781   3.344   1.580 -1.8242 -1.5549  0.6286
  160DOPC   H5Y19342  -1.816   3.175   1.536  0.7403 -1.3652  2.3358
  160DOPC   C3619343  -1.640   3.251   1.435 -0.6252  0.1128 -0.0671
  160DOPC   H6X19344  -1.622   3.360   1.426  1.3783 -0.2786 -1.2280
  160DOPC   H6Y19345  -1.540   3.210   1.459  0.1338  2.9206  2.0862
  160DOPC   C3719346  -1.685   3.178   1.308  0.3028 -0.4036  0.2633
  160DOPC   H7X19347  -1.657   3.071   1.312 -1.6454 -0.9265  0.7397
  160DOPC   H7Y19348  -1.796   3.187   1.310  0.2117 -1.3685 -0.0486
  160DOPC   C3819349  -1.627   3.252   1.190 -0.6051  0.6854  0.4044
  160DOPC   H8X19350  -1.665   3.356   1.196  0.2319  1.0041  0.3140
  160DOPC   H8Y19351  -1.681   3.210   1.102 -0.5166  0.2514  0.5584
  160DOPC   C3919352  -1.477   3.248   1.176  0.2079  0.1216 -0.0284
  160DOPC   H9X19353  -1.418   3.330   1.221 -0.4144  0.2465  0.5586
  160DOPC  C31019354  -1.413   3.137   1.132 -0.1348  0.0392 -0.1702
  160DOPC  H10X19355  -1.304   3.123   1.129 -0.2236 -0.5501 -2.8152
  160DOPC  C31119356  -1.475   3.019   1.064 -0.1366  0.4523  0.4431
  160DOPC  H11X19357  -1.566   3.060   1.015 -0.1034 -1.3969 -1.3223
  160DOPC  H11Y19358  -1.505   2.949   1.145  0.3006  0.4527  0.6096
  160DOPC  C31219359  -1.371   2.940   0.973 -0.1480 -0.1009  0.0781
  160DOPC  H12X19360  -1.280   2.906   1.027 -0.4488 -1.5455 -0.2742
  160DOPC  H12Y19361  -1.329   3.006   0.895  1.8212 -0.1724  1.0174
  160DOPC  C31319362  -1.427   2.811   0.911 -0.2436  0.5953 -0.0862
  160DOPC  H13X19363  -1.343   2.766   0.854 -0.4310 -1.5364  1.1729
  160DOPC  H13Y19364  -1.443   2.732   0.988 -1.6653 -0.8340 -1.7773
  160DOPC  C31419365  -1.527   2.820   0.798  0.5316  0.2999 -0.0315
  160DOPC  H14X19366  -1.596   2.733   0.807  0.8960  0.2481  3.3595
  160DOPC  H14Y19367  -1.591   2.910   0.806 -0.2069 -0.2862  0.8179
  160DOPC  C31519368  -1.468   2.812   0.659  0.1364 -0.0966 -0.1030
  160DOPC  H15X19369  -1.394   2.729   0.647  2.1102  1.4937  0.4863
  160DOPC  H15Y19370  -1.415   2.907   0.637 -1.5245  0.7803 -0.4700
  160DOPC  C31619371  -1.583   2.808   0.563  0.6408  0.1253  0.2896
  160DOPC  H16X19372  -1.675   2.756   0.596  0.6761  0.2384  0.5701
  160DOPC  H16Y19373  -1.624   2.911   0.560  1.0764  0.2942 -0.0527
  160DOPC  C31719374  -1.547   2.771   0.427 -0.7836  0.5320 -0.0684
  160DOPC  H17X19375  -1.457   2.831   0.402 -0.3786  1.4309  3.0709
  160DOPC  H17Y19376  -1.514   2.665   0.418 -2.3991  0.0836 -0.8933
  160DOPC  C31819377  -1.651   2.799   0.323  0.5312 -0.0991  0.7366
  160DOPC  H18X19378  -1.601   2.780   0.225 -0.7120 -1.6967  0.3604
  160DOPC  H18Y19379  -1.724   2.715   0.334 -1.2119  1.3543  0.6904
  160DOPC  H18Z19380  -1.706   2.895   0.323  1.0566  0.3316 -2.7148
  161DOPC     N19381  -0.763  -2.987   2.797  0.1042 -0.1871 -0.1594
  161DOPC   C1219382  -0.642  -2.890   2.764 -0.0370 -0.4987 -0.3799
  161DOPC  H12A19383  -0.566  -2.949   2.716  0.9484  0.0012  0.5277
  161DOPC  H12B19384  -0.616  -2.849   2.861 -2.3066  0.1498  0.0193
  161DOPC   C1319385  -0.854  -2.912   2.895 -0.1914 -0.3990  0.0567
  161DOPC  H13A19386  -0.798  -2.887   2.984  0.0676 -0.9546  0.0564
  161DOPC  H13B19387  -0.885  -2.820   2.848 -1.1216  0.1897  1.7375
  161DOPC  H13C19388  -0.945  -2.963   2.923  0.1982 -1.3391 -0.3376
  161DOPC   C1419389  -0.711  -3.107   2.873  0.2240 -0.7210 -0.4481
  161DOPC  H14A19390  -0.658  -3.178   2.812 -0.3855  0.5524 -2.5787
  161DOPC  H14B19391  -0.639  -3.071   2.944  0.2494 -1.1517 -0.2512
  161DOPC  H14C19392  -0.794  -3.145   2.931 -0.4214  0.6738 -0.4169
  161DOPC   C1519393  -0.837  -3.020   2.675  0.3034  0.4560 -0.6165
  161DOPC  H15A19394  -0.858  -2.930   2.620 -3.0664 -0.2249 -0.6552
  161DOPC  H15B19395  -0.932  -3.070   2.691 -0.3814  1.8691 -0.1386
  161DOPC  H15C19396  -0.777  -3.092   2.621 -1.2236 -0.9841 -0.4700
  161DOPC   C1119397  -0.675  -2.778   2.664 -0.3306 -0.1841 -0.5887
  161DOPC  H11A19398  -0.762  -2.719   2.699 -1.0113 -1.8272  0.6559
  161DOPC  H11B19399  -0.593  -2.705   2.675 -1.0347  0.7567 -1.4776
  161DOPC     P19400  -0.583  -2.857   2.437  0.0505 -0.1431 -0.4208
  161DOPC   O1319401  -0.628  -2.912   2.303 -0.4407  0.0106 -0.3504
  161DOPC   O1419402  -0.489  -2.940   2.512  0.2353 -0.5113  0.3923
  161DOPC   O1219403  -0.701  -2.823   2.531 -0.9188 -0.0387 -0.1781
  161DOPC   O1119404  -0.507  -2.728   2.402  0.0678 -0.3230 -0.1806
  161DOPC    C119405  -0.579  -2.619   2.339  0.0847 -0.0150 -0.0560
  161DOPC    HA19406  -0.564  -2.529   2.403  1.0552 -1.5824  2.0389
  161DOPC    HB19407  -0.688  -2.633   2.325 -0.0076 -2.2495  2.2329
  161DOPC    C219408  -0.519  -2.566   2.198  0.6749  0.5665  0.4764
  161DOPC    HS19409  -0.533  -2.456   2.199  1.3863  0.7242 -1.6110
  161DOPC   O2119410  -0.595  -2.632   2.087  0.3182  0.0745 -0.6279
  161DOPC   C2119411  -0.721  -2.597   2.072 -0.5334 -0.7868  0.1657
  161DOPC   O2219412  -0.781  -2.519   2.142  0.2601  0.4345  0.1808
  161DOPC   C2219413  -0.766  -2.650   1.935 -0.8457 -0.2985 -0.1024
  161DOPC   H2R19414  -0.877  -2.659   1.931 -0.9818 -0.8082  2.7525
  161DOPC   H2S19415  -0.717  -2.749   1.929  0.5700  0.2893  1.1627
  161DOPC    C319416  -0.367  -2.596   2.180  0.0095  0.1948  0.7616
  161DOPC    HX19417  -0.348  -2.700   2.214 -1.9260  0.0701  1.5770
  161DOPC    HY19418  -0.301  -2.530   2.241  1.1207 -0.3606  0.1982
  161DOPC   O3119419  -0.333  -2.576   2.043 -0.9262 -0.1945 -0.4654
  161DOPC   C3119420  -0.317  -2.683   1.961 -0.0137 -0.5280 -1.4138
  161DOPC   O3219421  -0.329  -2.796   1.995 -0.1463  0.2078  0.2129
  161DOPC   C3219422  -0.281  -2.623   1.826 -0.3191  0.1485  0.8304
  161DOPC   H2X19423  -0.343  -2.537   1.795 -0.6156 -0.5952 -0.7312
  161DOPC   H2Y19424  -0.172  -2.599   1.829  0.3934 -2.2938 -1.4640
  161DOPC   C2319425  -0.714  -2.559   1.820  0.6365 -0.0409  0.5238
  161DOPC   H3R19426  -0.607  -2.538   1.842  0.4050  1.8076  0.0381
  161DOPC   H3S19427  -0.762  -2.459   1.825  0.5329 -0.0573 -0.1046
  161DOPC   C2419428  -0.755  -2.612   1.684  0.7098 -0.3567 -0.0295
  161DOPC   H4R19429  -0.860  -2.578   1.671  0.5209 -0.2214  1.6008
  161DOPC   H4S19430  -0.760  -2.723   1.695  0.2952 -0.3435 -0.0538
  161DOPC   C2519431  -0.659  -2.571   1.585  0.4346  0.0629  0.0802
  161DOPC   H5R19432  -0.564  -2.625   1.603  0.6341  0.6920  0.9874
  161DOPC   H5S19433  -0.637  -2.462   1.583  0.9602 -0.0473 -1.0850
  161DOPC   C2619434  -0.709  -2.610   1.451 -0.6949  0.7384  0.1315
  161DOPC   H6R19435  -0.807  -2.558   1.437 -0.9313  0.1887 -0.2739
  161DOPC   H6S19436  -0.718  -2.720   1.442  1.4035  0.5831 -0.4736
  161DOPC   C2719437  -0.603  -2.568   1.344  0.2591  0.3246  0.3139
  161DOPC   H7R19438  -0.512  -2.626   1.370 -0.2758 -2.1459 -2.6805
  161DOPC   H7S19439  -0.593  -2.457   1.341 -3.1372  0.7397 -0.0377
  161DOPC   C2819440  -0.650  -2.620   1.207 -0.3855  0.4973  0.4879
  161DOPC   H8R19441  -0.740  -2.567   1.169 -1.1338 -0.9960  0.1138
  161DOPC   H8S19442  -0.675  -2.727   1.223  0.6652 -0.3413 -2.8114
  161DOPC   C2919443  -0.526  -2.611   1.121  0.5423 -0.4757 -0.1671
  161DOPC   H9R19444  -0.437  -2.598   1.183  0.5743  1.5566 -0.5735
  161DOPC  C21019445  -0.527  -2.609   0.988  0.1250 -0.6037  0.1095
  161DOPC  H10R19446  -0.436  -2.597   0.927  0.5813 -0.0200  0.8708
  161DOPC  C21119447  -0.642  -2.621   0.887  0.4572 -0.2560  0.2306
  161DOPC  H11R19448  -0.649  -2.530   0.823 -1.2202 -0.2014  0.4587
  161DOPC  H11S19449  -0.740  -2.632   0.938 -0.3850  0.3714 -1.1761
  161DOPC  C21219450  -0.647  -2.751   0.802  0.2686  0.4543  0.3261
  161DOPC  H12R19451  -0.700  -2.828   0.863  0.3938 -0.6371 -0.9067
  161DOPC  H12S19452  -0.544  -2.791   0.793 -0.0636 -1.2851  3.0381
  161DOPC  C21319453  -0.724  -2.721   0.669  0.7805  0.9275 -0.6741
  161DOPC  H13R19454  -0.669  -2.633   0.629  1.2188  0.8295 -0.3042
  161DOPC  H13S19455  -0.823  -2.693   0.711  0.9311 -1.3639  1.4405
  161DOPC  C21419456  -0.741  -2.831   0.569  0.0391 -0.2630  0.7872
  161DOPC  H14R19457  -0.642  -2.861   0.529 -0.0333  1.4807 -0.8187
  161DOPC  H14S19458  -0.807  -2.798   0.486 -1.8243 -1.2396  1.8281
  161DOPC  C21519459  -0.802  -2.953   0.629 -0.3101 -0.6275 -0.4031
  161DOPC  H15R19460  -0.888  -2.916   0.688  1.9704  2.8092  1.0510
  161DOPC  H15S19461  -0.724  -2.996   0.696  0.1172 -1.4745 -1.3996
  161DOPC  C21619462  -0.817  -3.070   0.529  0.1125  0.3589 -0.1486
  161DOPC  H16R19463  -0.805  -3.169   0.578 -0.5270  1.0897  1.5679
  161DOPC  H16S19464  -0.727  -3.083   0.466 -1.0185 -2.0865 -1.3754
  161DOPC  C21719465  -0.941  -3.073   0.438  0.0565 -0.2059  0.2033
  161DOPC  H17R19466  -0.942  -3.172   0.388 -2.0669  0.6364 -1.5924
  161DOPC  H17S19467  -0.938  -2.992   0.361 -0.3455 -1.2023 -0.8934
  161DOPC  C21819468  -1.071  -3.062   0.515  0.3422 -0.6303 -0.0154
  161DOPC  H18R19469  -1.147  -3.106   0.448  0.6151  0.8270 -1.3155
  161DOPC  H18S19470  -1.087  -2.956   0.542  1.9869 -0.0507 -1.1382
  161DOPC  H18T19471  -1.070  -3.122   0.609 -2.3133 -0.6349  0.0734
  161DOPC   C3319472  -0.283  -2.721   1.707  0.4972 -0.2726 -0.3682
  161DOPC   H3X19473  -0.390  -2.735   1.681  0.6454 -1.6998 -0.2823
  161DOPC   H3Y19474  -0.236  -2.819   1.729  2.6196  0.8338  0.3921
  161DOPC   C3419475  -0.222  -2.649   1.579  0.8285 -0.4575 -0.5770
  161DOPC   H4X19476  -0.117  -2.620   1.598  0.8608 -1.3620  0.7202
  161DOPC   H4Y19477  -0.286  -2.562   1.553 -0.2338 -0.7604  0.8930
  161DOPC   C3519478  -0.205  -2.749   1.468 -0.1879  0.0496  0.9029
  161DOPC   H5X19479  -0.301  -2.799   1.441  0.5976 -0.6282 -0.7963
  161DOPC   H5Y19480  -0.138  -2.831   1.501  0.1791  0.3416  0.8942
  161DOPC   C3619481  -0.167  -2.687   1.329 -0.3886 -0.5694 -0.0961
  161DOPC   H6X19482  -0.234  -2.601   1.307  0.2567 -0.3835 -1.4281
  161DOPC   H6Y19483  -0.061  -2.654   1.330 -0.5313 -0.0923  0.7321
  161DOPC   C3719484  -0.178  -2.781   1.212 -0.2088 -0.2158 -0.7407
  161DOPC   H7X19485  -0.144  -2.883   1.240 -0.3609 -0.1493 -0.2946
  161DOPC   H7Y19486  -0.284  -2.799   1.184 -0.7328 -1.7215  1.7928
  161DOPC   C3819487  -0.103  -2.728   1.087  0.1795  0.6264 -0.1713
  161DOPC   H8X19488   0.002  -2.720   1.123  0.5667 -0.4539 -1.0228
  161DOPC   H8Y19489  -0.134  -2.625   1.059 -1.6853  0.6894  1.8933
  161DOPC   C3919490  -0.099  -2.830   0.973  0.3878  0.0021  1.0029
  161DOPC   H9X19491  -0.096  -2.934   1.010  0.5098  0.4467  2.2807
  161DOPC  C31019492  -0.131  -2.807   0.849  0.2238 -0.6806 -0.0734
  161DOPC  H10X19493  -0.114  -2.887   0.776 -0.6481 -2.1453  1.2644
  161DOPC  C31119494  -0.156  -2.674   0.788 -0.2338  0.1046  0.9880
  161DOPC  H11X19495  -0.113  -2.594   0.851 -2.4096  0.1209  2.5357
  161DOPC  H11Y19496  -0.267  -2.670   0.786 -0.2566 -0.5648  0.4054
  161DOPC  C31219497  -0.098  -2.662   0.643  0.4400  0.4619 -0.3484
  161DOPC  H12X19498   0.004  -2.706   0.648  1.0901  2.0591  2.4191
  161DOPC  H12Y19499  -0.081  -2.558   0.607 -0.3656  0.5584 -0.4818
  161DOPC  C31319500  -0.187  -2.735   0.541  0.6380  0.5801  0.3638
  161DOPC  H13X19501  -0.215  -2.830   0.592 -0.3980  0.4774 -0.3639
  161DOPC  H13Y19502  -0.281  -2.682   0.513  0.6247  0.0178 -0.6714
  161DOPC  C31419503  -0.111  -2.766   0.413 -0.7548  0.2231  1.0418
  161DOPC  H14X19504  -0.107  -2.674   0.350  0.3856 -0.7948 -0.4428
  161DOPC  H14Y19505  -0.007  -2.796   0.439  0.1934  0.2660 -2.2451
  161DOPC  C31519506  -0.158  -2.876   0.309  0.0283 -0.0303 -0.5361
  161DOPC  H15X19507  -0.267  -2.860   0.298 -0.0756  0.7382  1.2447
  161DOPC  H15Y19508  -0.141  -2.964   0.374  4.0954  0.9416  0.0285
  161DOPC  C31619509  -0.085  -2.870   0.173  0.1814  0.4167  0.1234
  161DOPC  H16X19510   0.024  -2.858   0.187  0.4174 -2.0505  0.7128
  161DOPC  H16Y19511  -0.098  -2.976   0.143 -1.1891  0.6798 -0.2735
  161DOPC  C31719512  -0.141  -2.774   0.075  0.6906  0.1097 -0.2266
  161DOPC  H17X19513  -0.238  -2.807   0.032  0.8341 -0.0385 -0.4350
  161DOPC  H17Y19514  -0.169  -2.680   0.128 -1.7729 -0.3995 -0.4767
  161DOPC  C31819515  -0.045  -2.731  -0.040  0.4716 -0.3893 -0.2737
  161DOPC  H18X19516  -0.101  -2.673  -0.116  1.8312  1.6753  0.2160
  161DOPC  H18Y19517   0.035  -2.667   0.003 -1.0738  0.6698  1.1643
  161DOPC  H18Z19518   0.001  -2.817  -0.093 -0.0597  1.1844 -3.5226
  162DOPC     N19519  -2.435   3.102   2.590  0.0850  0.7484  0.2268
  162DOPC   C1219520  -2.431   3.045   2.442  0.2886  0.0506 -0.1910
  162DOPC  H12A19521  -2.429   2.938   2.459 -0.3751  0.3763  2.5598
  162DOPC  H12B19522  -2.338   3.075   2.397  0.7401  0.2371  0.8368
  162DOPC   C1319523  -2.492   3.240   2.592  0.2816 -0.5234  0.3545
  162DOPC  H13A19524  -2.440   3.311   2.529  1.1618 -1.5182 -0.0674
  162DOPC  H13B19525  -2.590   3.228   2.549  0.2939 -0.7629  0.3915
  162DOPC  H13C19526  -2.504   3.271   2.694 -0.2092  1.5658 -0.2895
  162DOPC   C1419527  -2.297   3.086   2.645  0.4057 -0.5149 -0.1901
  162DOPC  H14A19528  -2.233   3.138   2.575  0.8245  0.0752  0.6135
  162DOPC  H14B19529  -2.287   3.118   2.748  0.8135 -0.9190 -0.1034
  162DOPC  H14C19530  -2.275   2.981   2.648  4.2807  0.1485  3.2372
  162DOPC   C1519531  -2.524   3.011   2.668 -0.6463  0.0766  0.0218
  162DOPC  H15A19532  -2.623   3.020   2.627  0.8256  4.2128 -3.4148
  162DOPC  H15B19533  -2.527   3.048   2.769  0.0543  0.2844 -0.0266
  162DOPC  H15C19534  -2.488   2.909   2.662 -2.4003 -0.5013 -4.1593
  162DOPC   C1119535  -2.553   3.083   2.356  0.5118 -0.8097 -0.4031
  162DOPC  H11A19536  -2.541   3.193   2.341 -1.9570 -0.4738 -0.3543
  162DOPC  H11B19537  -2.531   3.036   2.258 -1.1904 -0.9555 -0.7399
  162DOPC     P19538  -2.723   2.883   2.386  0.1056  0.2338  0.4605
  162DOPC   O1319539  -2.867   2.867   2.424 -0.5758  0.3972 -0.0300
  162DOPC   O1419540  -2.633   2.792   2.460 -0.3944  0.7571  0.5560
  162DOPC   O1219541  -2.675   3.031   2.408  0.1741 -0.4892 -0.3541
  162DOPC   O1119542  -2.701   2.867   2.226  0.2911 -0.1212  0.0308
  162DOPC    C119543  -2.763   2.969   2.143  0.3765 -0.0783 -1.0139
  162DOPC    HA19544  -2.748   3.072   2.180  1.5159 -0.2534 -0.9238
  162DOPC    HB19545  -2.873   2.954   2.141  0.6713 -2.6686 -1.1401
  162DOPC    C219546  -2.720   2.961   1.992  0.0852  0.0228 -0.1929
  162DOPC    HS19547  -2.758   3.052   1.941  0.4599 -0.1990 -0.8767
  162DOPC   O2119548  -2.771   2.838   1.934  0.1134 -0.3995  0.3166
  162DOPC   C2119549  -2.796   2.846   1.807 -0.2606  0.3698 -0.3812
  162DOPC   O2219550  -2.796   2.950   1.740 -0.2705  0.3121 -0.2482
  162DOPC   C2219551  -2.835   2.712   1.750  0.2179  0.1338  0.4891
  162DOPC   H2R19552  -2.916   2.676   1.817 -0.0279  1.2965  0.8431
  162DOPC   H2S19553  -2.747   2.645   1.762  1.1295  1.1896 -0.1332
  162DOPC    C319554  -2.563   2.946   1.980  0.0459 -0.1039  0.5398
  162DOPC    HX19555  -2.516   2.867   2.043  2.3367  0.6751 -0.1099
  162DOPC    HY19556  -2.510   3.031   2.028  1.1469 -1.1980  1.3325
  162DOPC   O3119557  -2.520   2.935   1.839 -0.1886 -0.2563  0.5614
  162DOPC   C3119558  -2.488   3.035   1.772 -0.3347 -0.8074  0.3324
  162DOPC   O3219559  -2.471   3.152   1.806 -0.3280  0.1727  0.2419
  162DOPC   C3219560  -2.465   2.986   1.636 -0.4209  0.2891  0.4938
  162DOPC   H2X19561  -2.362   2.947   1.640 -1.2262 -1.8423  2.1345
  162DOPC   H2Y19562  -2.536   2.904   1.612 -2.5317  1.7803  1.3196
  162DOPC   C2319563  -2.884   2.707   1.602  0.1969  0.0079 -0.1555
  162DOPC   H3R19564  -2.955   2.791   1.590  0.5404  0.0175 -2.7017
  162DOPC   H3S19565  -2.938   2.612   1.577  0.2483 -0.4716  1.4542
  162DOPC   C2419566  -2.778   2.721   1.494  0.3375  0.3093 -0.4018
  162DOPC   H4R19567  -2.694   2.649   1.509  0.0732  0.6087  3.5624
  162DOPC   H4S19568  -2.732   2.821   1.503  0.2010  0.2868  0.7683
  162DOPC   C2519569  -2.848   2.706   1.360  0.0726 -0.0148 -0.7329
  162DOPC   H5R19570  -2.936   2.774   1.359 -0.2922 -0.3503  1.6362
  162DOPC   H5S19571  -2.882   2.604   1.333 -0.2184  0.4365 -2.1820
  162DOPC   C2619572  -2.759   2.747   1.240  0.3000 -0.1719 -0.2519
  162DOPC   H6R19573  -2.674   2.679   1.216  1.3416  1.0934 -0.2966
  162DOPC   H6S19574  -2.717   2.847   1.264 -1.6674  0.7119 -0.3459
  162DOPC   C2719575  -2.847   2.776   1.115 -0.3210  0.0708 -0.7127
  162DOPC   H7R19576  -2.937   2.840   1.132 -0.9745 -0.9340 -0.2919
  162DOPC   H7S19577  -2.899   2.684   1.081 -1.8607 -0.0670  1.7674
  162DOPC   C2819578  -2.776   2.845   1.000 -0.2270 -0.7142  0.0372
  162DOPC   H8R19579  -2.719   2.922   1.057  0.8762  0.1021 -2.0656
  162DOPC   H8S19580  -2.842   2.904   0.934  2.3333  0.2139 -1.8618
  162DOPC   C2919581  -2.681   2.766   0.928 -0.2283  0.3413  1.1497
  162DOPC   H9R19582  -2.582   2.744   0.971  0.8436  1.0590 -0.8200
  162DOPC  C21019583  -2.704   2.716   0.803 -0.2717 -0.0987  0.1845
  162DOPC  H10R19584  -2.632   2.644   0.760 -1.2932 -1.3093  0.4270
  162DOPC  C21119585  -2.830   2.738   0.721 -0.1902 -0.1506 -0.2564
  162DOPC  H11R19586  -2.897   2.816   0.761 -0.2608 -0.4541  0.2267
  162DOPC  H11S19587  -2.884   2.641   0.728  1.5997 -1.2525 -0.8174
  162DOPC  C21219588  -2.794   2.770   0.576 -0.1412 -0.4434  0.5057
  162DOPC  H12R19589  -2.743   2.869   0.571  0.0630 -0.4570  2.0399
  162DOPC  H12S19590  -2.888   2.793   0.522  1.1609  1.7299 -1.0410
  162DOPC  C21319591  -2.715   2.672   0.495 -0.8423  0.5153 -0.2248
  162DOPC  H13R19592  -2.752   2.568   0.507  2.1190 -0.6439 -0.2155
  162DOPC  H13S19593  -2.615   2.663   0.542  0.0424  1.3155 -1.9005
  162DOPC  C21419594  -2.679   2.722   0.357  0.3341 -0.8044  0.3471
  162DOPC  H14R19595  -2.629   2.821   0.353 -1.6597  0.2583  0.4265
  162DOPC  H14S19596  -2.779   2.735   0.310 -1.1122 -0.6337  3.2603
  162DOPC  C21519597  -2.603   2.617   0.278 -0.6239  0.5002  0.3852
  162DOPC  H15R19598  -2.660   2.522   0.282  1.9600 -1.2662 -1.5689
  162DOPC  H15S19599  -2.512   2.597   0.339  0.3738 -1.0208 -1.4984
  162DOPC  C21619600  -2.580   2.653   0.131 -0.4946 -0.1855 -0.1334
  162DOPC  H16R19601  -2.521   2.747   0.125  0.3749 -0.3860  3.2439
  162DOPC  H16S19602  -2.676   2.682   0.084 -0.4960  1.1744  0.6755
  162DOPC  C21719603  -2.508   2.543   0.059 -1.4224  0.0898 -0.2758
  162DOPC  H17R19604  -2.563   2.446   0.045 -0.8037 -0.6217  1.8948
  162DOPC  H17S19605  -2.421   2.517   0.123 -1.4055  1.1086  0.1283
  162DOPC  C21819606  -2.461   2.589  -0.083  0.1730 -0.2097 -0.1036
  162DOPC  H18R19607  -2.546   2.572  -0.152 -0.4482  0.5462  0.4503
  162DOPC  H18S19608  -2.373   2.531  -0.118  0.6060  0.2278  0.2396
  162DOPC  H18T19609  -2.420   2.692  -0.094  3.9203 -1.6056 -0.7016
  162DOPC   C3319610  -2.480   3.092   1.522 -0.8236 -0.2573  0.5474
  162DOPC   H3X19611  -2.398   3.165   1.538 -0.3796 -0.7039  0.3325
  162DOPC   H3Y19612  -2.567   3.160   1.532  2.5226  4.7214 -0.5826
  162DOPC   C3419613  -2.470   3.028   1.384  0.0793  0.1751  0.1681
  162DOPC   H4X19614  -2.572   3.000   1.351 -0.0223  0.1293  0.5238
  162DOPC   H4Y19615  -2.397   2.946   1.370 -0.4059 -0.1588 -0.4744
  162DOPC   C3519616  -2.429   3.123   1.267  0.1091 -0.3718 -0.8208
  162DOPC   H5X19617  -2.325   3.156   1.284  1.0236 -3.5197  0.3456
  162DOPC   H5Y19618  -2.504   3.205   1.257 -0.5829 -0.9270 -0.2778
  162DOPC   C3619619  -2.428   3.042   1.132 -0.1913  0.2751  0.2705
  162DOPC   H6X19620  -2.355   2.959   1.140 -0.7563 -0.2555 -0.0313
  162DOPC   H6Y19621  -2.531   3.004   1.112 -0.2519  1.7555 -2.9857
  162DOPC   C3719622  -2.389   3.131   1.011  0.0107  0.3277 -0.4322
  162DOPC   H7X19623  -2.462   3.210   0.987  0.8386  0.9185 -1.0487
  162DOPC   H7Y19624  -2.306   3.192   1.051 -0.2831 -0.0095  0.7437
  162DOPC   C3819625  -2.341   3.055   0.889 -0.0234  0.7081 -0.3108
  162DOPC   H8X19626  -2.294   2.958   0.916  0.2583  0.8293 -0.3637
  162DOPC   H8Y19627  -2.258   3.117   0.849 -0.5624  1.6236 -0.0645
  162DOPC   C3919628  -2.442   3.031   0.784  0.6633 -0.6083 -0.0843
  162DOPC   H9X19629  -2.507   2.950   0.820 -0.9321  1.1121  1.1106
  162DOPC  C31019630  -2.471   3.109   0.676 -0.2918 -0.1184  0.6065
  162DOPC  H10X19631  -2.558   3.088   0.612  1.1485 -2.9019 -0.6020
  162DOPC  C31119632  -2.411   3.238   0.633 -0.5143 -0.2137  0.4531
  162DOPC  H11X19633  -2.332   3.273   0.703 -0.1097 -2.5887  1.2690
  162DOPC  H11Y19634  -2.485   3.317   0.608  1.9303  2.5531  1.2964
  162DOPC  C31219635  -2.321   3.226   0.505  0.2120  0.0373 -0.1330
  162DOPC  H12X19636  -2.236   3.154   0.514  0.9840  1.0871  1.4347
  162DOPC  H12Y19637  -2.281   3.328   0.491  0.0179 -0.1176 -2.0760
  162DOPC  C31319638  -2.391   3.190   0.375  0.7173  0.4668 -0.0626
  162DOPC  H13X19639  -2.418   3.083   0.366 -0.8011  0.8617 -0.4292
  162DOPC  H13Y19640  -2.494   3.231   0.377 -1.0061 -3.2431 -2.1084
  162DOPC  C31419641  -2.298   3.235   0.264 -0.7720 -0.2345  0.2781
  162DOPC  H14X19642  -2.278   3.344   0.274 -0.2564 -0.1741 -1.1805
  162DOPC  H14Y19643  -2.202   3.182   0.277 -0.2883  0.1538 -1.5240
  162DOPC  C31519644  -2.350   3.209   0.126 -0.0386 -0.1493 -0.3796
  162DOPC  H15X19645  -2.336   3.102   0.099 -0.6934  0.0389 -1.5360
  162DOPC  H15Y19646  -2.287   3.271   0.058  3.7197 -0.5296  2.4452
  162DOPC  C31619647  -2.498   3.250   0.103  0.4504 -0.0179  0.0131
  162DOPC  H16X19648  -2.562   3.197   0.176  1.7504  0.4383  1.5216
  162DOPC  H16Y19649  -2.506   3.359   0.122 -0.7206 -0.1040  0.1017
  162DOPC  C31719650  -2.550   3.208  -0.039 -0.0978 -0.0282 -0.0398
  162DOPC  H17X19651  -2.497   3.260  -0.123 -0.0410 -0.0559 -0.0217
  162DOPC  H17Y19652  -2.543   3.098  -0.051 -0.4280 -0.2958  2.0296
  162DOPC  C31819653  -2.699   3.243  -0.048 -0.1198  0.3254 -0.2464
  162DOPC  H18X19654  -2.719   3.351  -0.038 -1.4355 -0.0282  1.3479
  162DOPC  H18Y19655  -2.745   3.192  -0.136  0.7793 -0.7146 -0.1373
  162DOPC  H18Z19656  -2.756   3.189   0.030  1.2015 -1.4385 -0.4254
  163DOPC     N19657  -2.705  -0.533   2.393  0.0327  0.0981  0.7189
  163DOPC   C1219658  -2.632  -0.547   2.264  0.4572  0.2613  0.3620
  163DOPC  H12A19659  -2.582  -0.643   2.256  0.4252  0.2449  0.3577
  163DOPC  H12B19660  -2.550  -0.478   2.274  1.0859 -0.7176  2.4610
  163DOPC   C1319661  -2.819  -0.626   2.406 -0.3702  0.1955  0.0244
  163DOPC  H13A19662  -2.858  -0.623   2.506  0.4461 -0.1153  0.3556
  163DOPC  H13B19663  -2.900  -0.599   2.340  0.2311 -2.2609 -1.8730
  163DOPC  H13C19664  -2.793  -0.730   2.391 -0.8355 -0.4359  3.0768
  163DOPC   C1419665  -2.745  -0.392   2.416  0.1323 -0.4427 -0.5701
  163DOPC  H14A19666  -2.799  -0.384   2.510  0.2874 -0.4396 -0.4805
  163DOPC  H14B19667  -2.654  -0.335   2.431  0.9567 -1.2410 -2.2632
  163DOPC  H14C19668  -2.801  -0.355   2.332  0.2954 -2.4564 -1.6159
  163DOPC   C1519669  -2.611  -0.581   2.505  0.0236 -0.1297 -0.9962
  163DOPC  H15A19670  -2.557  -0.670   2.478 -0.2437  0.1581 -2.5410
  163DOPC  H15B19671  -2.654  -0.605   2.601  0.2926 -0.1686 -0.8829
  163DOPC  H15C19672  -2.543  -0.502   2.535 -1.2829  0.0322  1.9580
  163DOPC   C1119673  -2.711  -0.521   2.130  0.2597 -0.1864  0.8622
  163DOPC  H11A19674  -2.640  -0.544   2.048 -0.5034  0.4634 -0.0032
  163DOPC  H11B19675  -2.792  -0.596   2.121 -0.5802  0.9457 -2.4765
  163DOPC     P19676  -2.891  -0.355   2.053 -0.2750 -0.1579  0.0685
  163DOPC   O1319677  -2.894  -0.211   2.030  0.8539  0.3000 -0.2242
  163DOPC   O1419678  -3.008  -0.412   2.123  0.1043 -0.5822  0.0615
  163DOPC   O1219679  -2.756  -0.384   2.128  0.2345  0.1398  0.1625
  163DOPC   O1119680  -2.878  -0.427   1.916  0.5497 -0.2254  0.7121
  163DOPC    C119681  -2.768  -0.388   1.828 -0.1367 -0.3271 -0.0316
  163DOPC    HA19682  -2.711  -0.477   1.793  1.0598 -0.2305  1.5921
  163DOPC    HB19683  -2.680  -0.338   1.873  1.2205 -2.1042 -0.5808
  163DOPC    C219684  -2.831  -0.303   1.710  0.1039  0.3989  0.3143
  163DOPC    HS19685  -2.922  -0.252   1.748  1.0678  2.2807  0.1865
  163DOPC   O2119686  -2.861  -0.402   1.614  0.5074 -0.2568 -0.1491
  163DOPC   C2119687  -2.961  -0.383   1.527  0.6087  0.4087  0.3865
  163DOPC   O2219688  -3.038  -0.293   1.538  0.2233 -0.0932 -0.2995
  163DOPC   C2219689  -2.961  -0.487   1.421  0.1534  1.0776 -0.1528
  163DOPC   H2R19690  -2.996  -0.583   1.466  0.3929  1.2353  0.3790
  163DOPC   H2S19691  -2.854  -0.502   1.395  1.4421  3.0355  3.2875
  163DOPC    C319692  -2.731  -0.198   1.654  0.3445 -0.0170 -0.5272
  163DOPC    HX19693  -2.625  -0.228   1.672  0.6513  1.3335  0.0974
  163DOPC    HY19694  -2.758  -0.106   1.710 -0.3407 -1.1297  1.0318
  163DOPC   O3119695  -2.752  -0.169   1.517  0.3053  0.4334 -0.1612
  163DOPC   C3119696  -2.700  -0.054   1.462 -0.2027  0.0555  0.0094
  163DOPC   O3219697  -2.623   0.023   1.518 -0.1699  0.0016 -0.1684
  163DOPC   C3219698  -2.768  -0.023   1.329 -0.1893  0.7253 -0.0752
  163DOPC   H2X19699  -2.877  -0.008   1.337 -0.5504 -1.3792 -0.6536
  163DOPC   H2Y19700  -2.722   0.071   1.291  0.3758  0.5761  0.2133
  163DOPC   C2319701  -3.052  -0.460   1.299 -0.3553 -0.1692  0.3989
  163DOPC   H3R19702  -3.045  -0.351   1.277 -1.2465 -0.0918  0.4699
  163DOPC   H3S19703  -3.159  -0.470   1.328 -0.3734  1.1481  0.8575
  163DOPC   C2419704  -3.015  -0.538   1.175  0.1936  0.2102  0.0286
  163DOPC   H4R19705  -2.951  -0.627   1.195 -0.9421 -0.5244  0.4786
  163DOPC   H4S19706  -2.946  -0.479   1.110 -0.1188 -0.2160 -0.7085
  163DOPC   C2519707  -3.141  -0.579   1.088  0.2393 -0.5669  0.0963
  163DOPC   H5R19708  -3.205  -0.489   1.082 -1.7724 -1.9871 -1.1066
  163DOPC   H5S19709  -3.215  -0.646   1.137 -0.8958  1.7578  1.7258
  163DOPC   C2619710  -3.097  -0.644   0.957  0.4186 -0.7842  0.1026
  163DOPC   H6R19711  -3.008  -0.710   0.965  1.1816 -0.0469 -1.6515
  163DOPC   H6S19712  -3.065  -0.561   0.890  1.1568 -1.5030 -0.4461
  163DOPC   C2719713  -3.203  -0.709   0.873  0.2461 -0.1334  0.2010
  163DOPC   H7R19714  -3.297  -0.652   0.892  1.6117  2.4145 -0.1144
  163DOPC   H7S19715  -3.221  -0.806   0.923  2.1840 -0.8637 -0.4274
  163DOPC   C2819716  -3.174  -0.717   0.725  0.1504  0.1518  0.2421
  163DOPC   H8R19717  -3.065  -0.735   0.716  0.0321 -0.9347  0.8385
  163DOPC   H8S19718  -3.199  -0.614   0.691  1.6347  0.9331  1.4096
  163DOPC   C2919719  -3.246  -0.820   0.657  0.0367  0.4010 -0.4531
  163DOPC   H9R19720  -3.269  -0.908   0.720 -0.3147  1.2291  0.6157
  163DOPC  C21019721  -3.294  -0.812   0.529  0.0525  0.7946 -0.7581
  163DOPC  H10R19722  -3.349  -0.897   0.485  0.1893  1.2261 -1.7820
  163DOPC  C21119723  -3.276  -0.697   0.436 -0.5257 -0.3034 -0.3918
  163DOPC  H11R19724  -3.187  -0.641   0.472 -0.8101 -0.0797 -0.0294
  163DOPC  H11S19725  -3.364  -0.628   0.443  0.1630  0.4427  2.4759
  163DOPC  C21219726  -3.238  -0.735   0.295 -0.7447  0.4062  0.5002
  163DOPC  H12R19727  -3.326  -0.793   0.262 -0.9402 -1.7291  4.2095
  163DOPC  H12S19728  -3.150  -0.803   0.290 -0.6286  0.3530  2.4247
  163DOPC  C21319729  -3.224  -0.614   0.192 -0.2959  0.0744  0.0432
  163DOPC  H13R19730  -3.163  -0.536   0.243  0.1389 -1.0384  1.3105
  163DOPC  H13S19731  -3.316  -0.554   0.175  0.1446  1.4508  2.0335
  163DOPC  C21419732  -3.148  -0.658   0.066  0.5305 -0.2051  0.3188
  163DOPC  H14R19733  -3.196  -0.746   0.018  3.3134 -1.6479 -0.0768
  163DOPC  H14S19734  -3.041  -0.680   0.088  1.0876  0.0814 -1.8793
  163DOPC  C21519735  -3.138  -0.550  -0.048 -0.1972 -0.0140  0.0113
  163DOPC  H15R19736  -3.054  -0.573  -0.117 -1.2642 -0.0826 -1.2948
  163DOPC  H15S19737  -3.109  -0.457   0.005 -0.6416 -0.2097  0.6022
  163DOPC  C21619738  -3.262  -0.529  -0.131  0.7530  0.0608 -0.3090
  163DOPC  H16R19739  -3.297  -0.424  -0.128 -0.4178 -0.3369  1.8462
  163DOPC  H16S19740  -3.343  -0.595  -0.093  1.4526 -0.7080 -0.1307
  163DOPC  C21719741  -3.247  -0.568  -0.280  0.5928  0.5725  0.1747
  163DOPC  H17R19742  -3.182  -0.489  -0.323 -0.7801  2.4504  1.3912
  163DOPC  H17S19743  -3.349  -0.562  -0.323  0.1244  1.2463  1.3426
  163DOPC  C21819744  -3.179  -0.704  -0.315  0.1409  0.6352 -0.2831
  163DOPC  H18R19745  -3.088  -0.732  -0.259 -0.3785 -1.2011 -0.2986
  163DOPC  H18S19746  -3.156  -0.710  -0.424  0.8349 -0.9293 -0.0695
  163DOPC  H18T19747  -3.265  -0.774  -0.303  0.6992 -0.0684 -0.3732
  163DOPC   C3319748  -2.742  -0.128   1.216 -0.0808 -0.1539 -0.2499
  163DOPC   H3X19749  -2.769  -0.222   1.270 -1.5379  0.5279  0.2729
  163DOPC   H3Y19750  -2.642  -0.137   1.170 -0.6107 -1.5152 -1.2063
  163DOPC   C3419751  -2.852  -0.103   1.105 -0.6404  1.0044 -0.3237
  163DOPC   H4X19752  -2.842  -0.000   1.063 -0.3657  1.0134 -0.2425
  163DOPC   H4Y19753  -2.948  -0.120   1.156  0.9043 -1.0983  2.1313
  163DOPC   C3519754  -2.823  -0.202   0.983  0.5297  0.2457  0.4041
  163DOPC   H5X19755  -2.819  -0.307   1.021 -2.6267 -0.6254 -1.2755
  163DOPC   H5Y19756  -2.724  -0.189   0.935 -0.6846  3.0500 -1.6261
  163DOPC   C3619757  -2.933  -0.210   0.875  0.1287  0.1330 -0.4442
  163DOPC   H6X19758  -3.026  -0.237   0.930  0.9407 -1.9634 -0.0210
  163DOPC   H6Y19759  -2.952  -0.108   0.834 -0.3323  0.3519  0.3018
  163DOPC   C3719760  -2.906  -0.314   0.772 -0.9806  0.0508 -0.3762
  163DOPC   H7X19761  -2.808  -0.292   0.723  0.0135  2.1489  2.3240
  163DOPC   H7Y19762  -2.893  -0.403   0.838 -0.0816  1.3539  1.2870
  163DOPC   C3819763  -3.012  -0.330   0.669 -0.0731 -0.8125  0.1920
  163DOPC   H8X19764  -3.034  -0.229   0.629 -0.0704 -0.3577  1.2938
  163DOPC   H8Y19765  -3.104  -0.358   0.726  1.0931 -2.3210  1.4034
  163DOPC   C3919766  -2.981  -0.432   0.561 -0.0303 -0.8610  0.7107
  163DOPC   H9X19767  -2.964  -0.532   0.604  0.9613 -0.1106  2.1603
  163DOPC  C31019768  -2.977  -0.410   0.431  0.0846  0.5197  0.4528
  163DOPC  H10X19769  -2.955  -0.496   0.366 -0.2840  1.8053 -1.4602
  163DOPC  C31119770  -2.989  -0.276   0.362 -0.5514  0.4445  0.1381
  163DOPC  H11X19771  -2.936  -0.195   0.417  0.4302 -0.0873 -0.0063
  163DOPC  H11Y19772  -3.094  -0.240   0.356 -0.7607 -0.2602 -0.6555
  163DOPC  C31219773  -2.933  -0.282   0.216 -0.3379  0.5083 -0.4317
  163DOPC  H12X19774  -2.979  -0.368   0.163 -1.9234  0.4625  0.9178
  163DOPC  H12Y19775  -2.824  -0.300   0.221 -0.1077  2.1045  2.4890
  163DOPC  C31319776  -2.954  -0.153   0.148  0.2816 -0.5926  0.0618
  163DOPC  H13X19777  -3.059  -0.126   0.124  1.4735  1.7950 -3.0395
  163DOPC  H13Y19778  -2.912  -0.071   0.208 -0.5515 -0.7419  0.8806
  163DOPC  C31419779  -2.883  -0.144   0.008 -0.3530 -0.4411 -0.3488
  163DOPC  H14X19780  -2.780  -0.183   0.017 -0.1099  0.5559  1.8833
  163DOPC  H14Y19781  -2.937  -0.210  -0.062 -1.7913  0.8302 -0.4979
  163DOPC  C31519782  -2.895  -0.006  -0.059  0.4723  0.7179  0.6404
  163DOPC  H15X19783  -2.799   0.023  -0.107 -0.0020  0.4831 -0.4903
  163DOPC  H15Y19784  -2.913   0.075   0.014  0.2740  0.8670  0.4268
  163DOPC  C31619785  -3.007  -0.006  -0.167 -0.1033 -0.0995 -0.2071
  163DOPC  H16X19786  -2.980  -0.084  -0.242 -2.8294 -1.1567 -0.2133
  163DOPC  H16Y19787  -3.108  -0.030  -0.129 -0.0244  2.4321  1.8142
  163DOPC  C31719788  -3.014   0.124  -0.242  0.2257  0.3083 -0.6472
  163DOPC  H17X19789  -3.093   0.183  -0.191 -1.1167 -0.5561 -1.6253
  163DOPC  H17Y19790  -2.926   0.189  -0.223 -1.5656  2.1795  1.9683
  163DOPC  C31819791  -3.049   0.122  -0.393  0.0877 -0.3698 -0.3511
  163DOPC  H18X19792  -3.068   0.227  -0.422 -2.5345 -0.8792 -0.7679
  163DOPC  H18Y19793  -2.962   0.084  -0.450  1.7387  0.1859  1.7046
  163DOPC  H18Z19794  -3.142   0.065  -0.415 -1.3373  1.2943  1.0060
  164DOPC     N19795  -3.027  -1.263   2.504  0.1895  0.6497 -0.7246
  164DOPC   C1219796  -3.128  -1.148   2.516 -0.2901  0.0241 -0.7156
  164DOPC  H12A19797  -3.224  -1.188   2.486 -0.5631 -2.5192  2.9102
  164DOPC  H12B19798  -3.094  -1.072   2.448 -2.5126  0.6587 -1.1902
  164DOPC   C1319799  -2.900  -1.198   2.540 -0.1789 -0.5426  0.5115
  164DOPC  H13A19800  -2.901  -1.162   2.642 -0.5392 -0.6509  0.5452
  164DOPC  H13B19801  -2.812  -1.261   2.533 -0.1839 -0.9170  2.8096
  164DOPC  H13C19802  -2.880  -1.115   2.475 -1.5646 -0.1274  0.5992
  164DOPC   C1419803  -3.018  -1.313   2.363  0.4068  0.1394 -0.5674
  164DOPC  H14A19804  -3.109  -1.346   2.316 -1.1452  1.2148  1.5397
  164DOPC  H14B19805  -2.971  -1.239   2.300  1.5609  0.3574  0.5168
  164DOPC  H14C19806  -2.959  -1.404   2.366 -0.5413 -0.5113 -1.0446
  164DOPC   C1519807  -3.059  -1.375   2.599  0.1837  0.1278  0.3083
  164DOPC  H15A19808  -3.094  -1.337   2.694 -0.1557 -0.4842  0.4345
  164DOPC  H15B19809  -2.966  -1.425   2.621  0.5886  0.5952 -0.2905
  164DOPC  H15C19810  -3.134  -1.445   2.566 -0.6174  1.0049  0.2288
  164DOPC   C1119811  -3.140  -1.094   2.654 -0.6623 -0.2825 -0.4519
  164DOPC  H11A19812  -3.246  -1.104   2.687 -0.1313 -0.9215  1.1735
  164DOPC  H11B19813  -3.073  -1.153   2.720  1.8577  0.2707 -2.3558
  164DOPC     P19814  -3.142  -0.850   2.571 -0.1054 -0.5381  0.1819
  164DOPC   O1319815  -3.108  -0.718   2.625 -0.0062 -0.5410 -0.6343
  164DOPC   O1419816  -3.288  -0.879   2.549  0.1614  0.7048  0.3911
  164DOPC   O1219817  -3.087  -0.960   2.662  0.7674 -0.8116  0.9735
  164DOPC   O1119818  -3.065  -0.867   2.436 -0.2376 -0.1905 -0.1975
  164DOPC    C119819  -3.125  -0.854   2.306  0.2843  0.0249 -0.2747
  164DOPC    HA19820  -3.125  -0.748   2.273  1.9878 -0.3993 -1.8118
  164DOPC    HB19821  -3.229  -0.892   2.307  1.1813 -2.6381  0.0104
  164DOPC    C219822  -3.061  -0.938   2.197  0.2151  0.2699 -0.2300
  164DOPC    HS19823  -3.050  -1.039   2.242 -2.8984  0.8625  2.1824
  164DOPC   O2119824  -2.932  -0.881   2.159 -0.1006 -0.0757  0.1235
  164DOPC   C2119825  -2.842  -0.974   2.122  0.3239  0.1241  0.1288
  164DOPC   O2219826  -2.856  -1.096   2.127  0.2325 -0.5745  0.4651
  164DOPC   C2219827  -2.711  -0.914   2.074  0.4682 -0.6614 -0.4168
  164DOPC   H2R19828  -2.634  -0.990   2.096  1.2123 -0.2680 -1.5779
  164DOPC   H2S19829  -2.693  -0.816   2.123  2.7131 -0.3308 -1.7818
  164DOPC    C319830  -3.160  -0.957   2.076 -0.4973  0.3900 -0.2526
  164DOPC    HX19831  -3.191  -0.855   2.043 -1.2265  0.2887  0.0748
  164DOPC    HY19832  -3.259  -0.995   2.109 -1.1189  0.1893 -2.2163
  164DOPC   O3119833  -3.110  -1.039   1.970  0.1220  0.6777 -0.2732
  164DOPC   C3119834  -3.103  -1.166   1.999 -0.4690 -0.1780  0.5044
  164DOPC   O3219835  -3.150  -1.218   2.099  0.1100  0.0123 -0.2662
  164DOPC   C3219836  -3.006  -1.249   1.908  0.3574 -0.5859 -0.5995
  164DOPC   H2X19837  -2.903  -1.207   1.906  0.3879 -0.6944 -1.5234
  164DOPC   H2Y19838  -2.990  -1.344   1.962  2.0421  0.5182  0.9496
  164DOPC   C2319839  -2.719  -0.901   1.912 -0.2485  0.5936  0.1570
  164DOPC   H3R19840  -2.760  -0.998   1.877 -0.3387  0.2372  1.2158
  164DOPC   H3S19841  -2.614  -0.894   1.878 -0.3519  1.8200  0.0267
  164DOPC   C2419842  -2.803  -0.781   1.860 -0.0185 -0.3875 -0.1880
  164DOPC   H4R19843  -2.736  -0.693   1.853  1.7645 -1.6839 -0.2744
  164DOPC   H4S19844  -2.885  -0.756   1.930  0.1312  0.1279 -0.1924
  164DOPC   C2519845  -2.849  -0.798   1.721 -0.5947 -0.0812 -0.1599
  164DOPC   H5R19846  -2.924  -0.721   1.694 -1.9910 -2.3473 -3.3271
  164DOPC   H5S19847  -2.899  -0.897   1.712 -1.3522  0.2265  0.5148
  164DOPC   C2619848  -2.732  -0.783   1.623 -0.1588 -0.5523 -1.5464
  164DOPC   H6R19849  -2.645  -0.842   1.660  0.7814  1.0854 -1.0340
  164DOPC   H6S19850  -2.695  -0.678   1.626 -0.8394 -0.3052  2.1417
  164DOPC   C2719851  -2.766  -0.828   1.480 -0.3890  0.4726 -0.2380
  164DOPC   H7R19852  -2.863  -0.777   1.462 -0.9877 -0.6777 -0.3394
  164DOPC   H7S19853  -2.780  -0.938   1.482 -2.5882  0.6653 -1.4647
  164DOPC   C2819854  -2.675  -0.787   1.365  0.0486 -0.5612 -0.1639
  164DOPC   H8R19855  -2.651  -0.679   1.363 -1.0352 -0.2574  1.3193
  164DOPC   H8S19856  -2.725  -0.809   1.268 -2.2458 -0.6921  0.9783
  164DOPC   C2919857  -2.544  -0.864   1.378  0.2692 -0.0849 -0.0464
  164DOPC   H9R19858  -2.505  -0.862   1.481 -1.8379 -0.5385  0.8144
  164DOPC  C21019859  -2.483  -0.942   1.293  0.4492  0.3049  0.8016
  164DOPC  H10R19860  -2.391  -0.995   1.322  0.5015  0.7245  1.4319
  164DOPC  C21119861  -2.523  -0.969   1.150  0.2984  0.0121  0.9470
  164DOPC  H11R19862  -2.597  -0.897   1.108 -1.0064 -3.0271 -2.5978
  164DOPC  H11S19863  -2.575  -1.068   1.153 -0.7294  0.4372 -1.0050
  164DOPC  C21219864  -2.400  -0.964   1.057 -0.2147 -0.4619 -0.2672
  164DOPC  H12R19865  -2.344  -1.059   1.071 -0.6319 -0.4979  1.3999
  164DOPC  H12S19866  -2.329  -0.881   1.082  0.3276 -0.6820 -1.0559
  164DOPC  C21319867  -2.427  -0.956   0.910 -0.1978  0.2410 -0.0806
  164DOPC  H13R19868  -2.489  -0.870   0.878  1.0944  1.0560 -0.4466
  164DOPC  H13S19869  -2.480  -1.049   0.879  2.9554 -0.9878 -2.2558
  164DOPC  C21419870  -2.301  -0.949   0.825 -0.0900 -0.5016 -0.4797
  164DOPC  H14R19871  -2.321  -1.012   0.735 -1.7129  0.5394 -0.8773
  164DOPC  H14S19872  -2.225  -0.996   0.892 -0.6890 -1.1492 -0.2445
  164DOPC  C21519873  -2.251  -0.811   0.793 -0.7235 -0.5096 -0.3862
  164DOPC  H15R19874  -2.210  -0.771   0.887  0.7043 -1.0629 -0.7485
  164DOPC  H15S19875  -2.342  -0.753   0.765  0.6300  1.8015 -0.2238
  164DOPC  C21619876  -2.143  -0.795   0.680  0.0960  0.1407  0.0442
  164DOPC  H16R19877  -2.178  -0.855   0.594 -2.6267  1.6106  0.0397
  164DOPC  H16S19878  -2.045  -0.833   0.717 -0.9905 -2.1897  0.6754
  164DOPC  C21719879  -2.117  -0.651   0.644 -0.1436 -0.2060  0.3643
  164DOPC  H17R19880  -2.206  -0.588   0.665  1.0995  1.8339 -0.1509
  164DOPC  H17S19881  -2.107  -0.650   0.533 -0.5016  0.4984  0.3355
  164DOPC  C21819882  -1.999  -0.591   0.712 -0.4407 -0.3697  0.1756
  164DOPC  H18R19883  -1.985  -0.484   0.686  3.4562 -0.6408  0.5333
  164DOPC  H18S19884  -1.906  -0.647   0.689  0.4060  0.1031  2.2252
  164DOPC  H18T19885  -2.009  -0.598   0.823  0.2712 -0.5356  0.2334
  164DOPC   C3319886  -3.059  -1.274   1.765  0.5815 -0.6183 -0.0157
  164DOPC   H3X19887  -3.168  -1.283   1.784  0.6430  1.5259  1.7030
  164DOPC   H3Y19888  -3.022  -1.370   1.724  1.6036 -0.5622  0.7375
  164DOPC   C3419889  -3.028  -1.162   1.665 -0.3430  0.0927  0.7578
  164DOPC   H4X19890  -2.919  -1.155   1.646 -0.4463  0.7320  0.3788
  164DOPC   H4Y19891  -3.061  -1.066   1.710 -1.6015 -0.8275  1.8927
  164DOPC   C3519892  -3.090  -1.195   1.526 -0.2047  0.2730 -0.3997
  164DOPC   H5X19893  -3.198  -1.213   1.541 -0.6279  1.8661 -1.2917
  164DOPC   H5Y19894  -3.040  -1.280   1.476  1.5045 -1.0084  3.1658
  164DOPC   C3619895  -3.091  -1.070   1.430 -0.3768  0.6181 -0.0279
  164DOPC   H6X19896  -3.131  -0.986   1.491  1.1391  0.1718  1.6894
  164DOPC   H6Y19897  -2.985  -1.046   1.409 -0.5552 -0.3887 -2.3441
  164DOPC   C3719898  -3.166  -1.109   1.303 -0.5982  0.1129  0.3248
  164DOPC   H7X19899  -3.121  -1.206   1.271 -2.0314 -0.4889  0.0796
  164DOPC   H7Y19900  -3.268  -1.133   1.340 -0.8321 -0.5116 -0.6942
  164DOPC   C3819901  -3.160  -1.002   1.200  0.0437 -0.2761 -0.8104
  164DOPC   H8X19902  -3.054  -0.969   1.186  0.4301 -1.1547 -0.0444
  164DOPC   H8Y19903  -3.213  -0.919   1.251  0.3432 -0.0798 -0.8176
  164DOPC   C3919904  -3.225  -1.034   1.066  0.5490  0.3742 -0.6291
  164DOPC   H9X19905  -3.324  -0.988   1.054 -1.1691 -2.4348  1.3272
  164DOPC  C31019906  -3.162  -1.099   0.966 -0.1069 -0.6802  0.8606
  164DOPC  H10X19907  -3.222  -1.131   0.880  0.3692 -1.1359  0.6945
  164DOPC  C31119908  -3.013  -1.112   0.949  0.0860  0.2407 -0.1614
  164DOPC  H11X19909  -2.996  -1.222   0.955 -0.6652  0.0983 -0.5082
  164DOPC  H11Y19910  -2.951  -1.064   1.028 -1.7856 -0.6622  1.9616
  164DOPC  C31219911  -2.965  -1.048   0.817  0.1188  0.6026  0.0734
  164DOPC  H12X19912  -2.982  -0.938   0.821  0.0700  0.6251 -0.6209
  164DOPC  H12Y19913  -3.020  -1.100   0.736  0.2326  0.0808  0.3252
  164DOPC  C31319914  -2.815  -1.069   0.790  0.1916 -0.1376 -0.2552
  164DOPC  H13X19915  -2.751  -1.028   0.870 -1.2446 -0.3180  1.0338
  164DOPC  H13Y19916  -2.792  -1.177   0.774 -0.4196 -0.1107 -1.4454
  164DOPC  C31419917  -2.773  -0.989   0.666  0.1957 -0.2536 -0.1066
  164DOPC  H14X19918  -2.663  -0.993   0.651 -0.1977 -0.8660 -3.8142
  164DOPC  H14Y19919  -2.804  -0.884   0.686 -1.4012 -0.5811 -0.7508
  164DOPC  C31519920  -2.843  -1.024   0.541  0.2044  0.1258  0.2509
  164DOPC  H15X19921  -2.953  -1.012   0.548 -0.0872 -1.7805 -0.3819
  164DOPC  H15Y19922  -2.808  -1.128   0.522 -0.1102 -0.1752  1.2316
  164DOPC  C31619923  -2.797  -0.937   0.417 -0.8264  0.0564 -0.0972
  164DOPC  H16X19924  -2.823  -0.831   0.438  0.7170  0.0933  1.9398
  164DOPC  H16Y19925  -2.688  -0.956   0.409 -0.9196 -0.2381 -0.6966
  164DOPC  C31719926  -2.873  -0.969   0.288 -0.0142  0.4994  0.1364
  164DOPC  H17X19927  -2.847  -1.075   0.266 -0.6361 -0.0410  1.8542
  164DOPC  H17Y19928  -2.982  -0.963   0.305 -0.1607  2.1313 -1.1588
  164DOPC  C31819929  -2.831  -0.887   0.161  0.1645  0.6868  0.2180
  164DOPC  H18X19930  -2.843  -0.779   0.183 -0.5416  0.3514  1.5602
  164DOPC  H18Y19931  -2.735  -0.914   0.111  0.5035  1.4935  0.4078
  164DOPC  H18Z19932  -2.906  -0.911   0.083 -0.0894  1.6593  0.1531
  165DOPC     N19933   0.442  -0.784   2.400  0.6844  0.1686 -0.0920
  165DOPC   C1219934   0.476  -0.772   2.245  0.3452 -0.2090  0.1261
  165DOPC  H12A19935   0.424  -0.684   2.208 -0.1808 -0.0242  1.2642
  165DOPC  H12B19936   0.434  -0.862   2.203  2.0081 -1.2041  0.5239
  165DOPC   C1319937   0.495  -0.660   2.472  0.3670 -0.2093  0.0367
  165DOPC  H13A19938   0.601  -0.644   2.485  0.3227 -0.3157  0.5520
  165DOPC  H13B19939   0.451  -0.570   2.430  1.7631  1.1584  1.3831
  165DOPC  H13C19940   0.462  -0.654   2.575  1.6403  2.2262  0.3942
  165DOPC   C1419941   0.505  -0.909   2.457  0.5334  0.0206  0.0582
  165DOPC  H14A19942   0.612  -0.904   2.444  0.6210  0.2576  0.8188
  165DOPC  H14B19943   0.492  -0.927   2.563 -0.3724 -0.1870 -0.0747
  165DOPC  H14C19944   0.464  -0.995   2.406 -1.2319  1.2019 -0.6284
  165DOPC   C1519945   0.294  -0.779   2.415  0.2387 -0.6582  0.7220
  165DOPC  H15A19946   0.260  -0.679   2.393 -2.4988 -1.6832 -0.1194
  165DOPC  H15B19947   0.256  -0.803   2.514 -0.3898 -2.0999  0.1565
  165DOPC  H15C19948   0.256  -0.844   2.338  1.4520  0.1787 -0.6286
  165DOPC   C1119949   0.632  -0.765   2.201  0.0994 -0.0141 -0.4057
  165DOPC  H11A19950   0.641  -0.737   2.094  1.4932  1.5987  0.0910
  165DOPC  H11B19951   0.668  -0.675   2.256  0.0345  0.4028 -1.0309
  165DOPC     P19952   0.681  -1.005   2.131 -0.1078 -0.2987  0.4134
  165DOPC   O1319953   0.542  -1.025   2.101  0.1070 -0.5016 -0.2107
  165DOPC   O1419954   0.763  -1.123   2.172  0.5194 -0.0074  0.2143
  165DOPC   O1219955   0.702  -0.886   2.238 -0.4477 -0.0120  0.1111
  165DOPC   O1119956   0.750  -0.939   2.001  0.2332  0.2882  0.0917
  165DOPC    C119957   0.886  -0.900   1.992  0.2546  0.0059 -0.8657
  165DOPC    HA19958   0.952  -0.988   1.976  1.7759  0.7191  1.0841
  165DOPC    HB19959   0.924  -0.856   2.087 -1.5317  0.3663 -0.2738
  165DOPC    C219960   0.907  -0.791   1.882 -0.0345  0.6198  0.2430
  165DOPC    HS19961   0.845  -0.704   1.910  0.0694  1.3791 -1.7250
  165DOPC   O2119962   0.847  -0.831   1.762  0.0129  0.2438  0.5994
  165DOPC   C2119963   0.907  -0.922   1.689 -0.0371  0.4111 -0.2941
  165DOPC   O2219964   1.001  -0.991   1.720 -0.9809  0.5663 -0.2163
  165DOPC   C2219965   0.843  -0.917   1.556  0.1210  0.7121  0.1812
  165DOPC   H2R19966   0.814  -0.814   1.527  0.7808  0.3324 -2.0538
  165DOPC   H2S19967   0.755  -0.985   1.558  1.6970 -1.4176  0.5023
  165DOPC    C319968   1.057  -0.745   1.863 -0.1405 -0.1477 -0.1936
  165DOPC    HX19969   1.120  -0.834   1.846 -0.2192 -0.3539  0.5682
  165DOPC    HY19970   1.092  -0.695   1.955 -1.6183  0.2087  0.2029
  165DOPC   O3119971   1.078  -0.660   1.747 -0.3075  0.4227  0.7460
  165DOPC   C3119972   1.009  -0.545   1.753 -0.5948  0.0204 -0.4625
  165DOPC   O3219973   0.965  -0.495   1.854  0.3638 -0.4624 -0.1465
  165DOPC   C3219974   1.035  -0.465   1.621  0.4325 -0.5240 -0.7983
  165DOPC   H2X19975   1.032  -0.355   1.637 -0.0095 -0.2906 -2.2951
  165DOPC   H2Y19976   1.141  -0.495   1.606  0.2813 -4.3825  3.5021
  165DOPC   C2319977   0.932  -0.967   1.438 -0.1054 -0.0076  0.6181
  165DOPC   H3R19978   0.957  -1.072   1.466  2.3897 -0.0823 -1.5295
  165DOPC   H3S19979   1.019  -0.899   1.430  0.6184 -0.8980  0.8634
  165DOPC   C2419980   0.856  -0.958   1.300  0.4571 -0.5478 -0.2552
  165DOPC   H4R19981   0.816  -0.855   1.288 -0.7504 -0.9097  0.4531
  165DOPC   H4S19982   0.767  -1.023   1.315  0.1733 -0.3448 -1.0076
  165DOPC   C2519983   0.937  -1.005   1.187  0.0752  0.0042  0.2500
  165DOPC   H5R19984   0.983  -1.106   1.193 -0.4804 -0.3618 -1.2738
  165DOPC   H5S19985   1.009  -0.920   1.176 -2.6434  2.3836 -0.2930
  165DOPC   C2619986   0.852  -0.999   1.063  0.2780 -0.2292  0.1331
  165DOPC   H6R19987   0.844  -0.895   1.024  1.1020 -1.0310 -2.4132
  165DOPC   H6S19988   0.754  -1.052   1.070  0.4382 -0.4417  0.8367
  165DOPC   C2719989   0.934  -1.064   0.949 -0.0703  0.3134  0.2875
  165DOPC   H7R19990   0.961  -1.165   0.984 -2.0710 -0.0999  0.7486
  165DOPC   H7S19991   1.017  -0.994   0.924 -0.5351  1.0130  0.6460
  165DOPC   C2819992   0.844  -1.074   0.827 -0.2451 -0.3779 -0.2682
  165DOPC   H8R19993   0.810  -0.971   0.803  1.1528 -0.5183 -3.2839
  165DOPC   H8S19994   0.751  -1.126   0.858  0.1608  0.0160  1.7481
  165DOPC   C2919995   0.912  -1.141   0.713 -0.0204  0.5608  0.5598
  165DOPC   H9R19996   0.906  -1.251   0.722 -1.6267  0.4926 -0.8209
  165DOPC  C21019997   0.961  -1.087   0.607  0.1752  0.1219 -0.1917
  165DOPC  H10R19998   0.988  -1.160   0.529 -0.2543 -1.3956  1.0339
  165DOPC  C21119999   0.954  -0.945   0.568 -0.2251 -0.2044  0.1067
  165DOPC  H11R20000   1.034  -0.905   0.503  0.7068 -2.3945 -0.1565
  165DOPC  H11S20001   0.948  -0.891   0.665 -2.1517 -1.9073  1.0231
  165DOPC  C21220002   0.822  -0.921   0.484  0.5793 -0.2389 -0.0212
  165DOPC  H12R20003   0.824  -0.813   0.459  0.2161 -0.3934 -0.7433
  165DOPC  H12S20004   0.733  -0.955   0.539  1.3420 -1.6407  0.3964
  165DOPC  C21320005   0.813  -0.985   0.344 -0.5210 -0.2767 -0.1194
  165DOPC  H13R20006   0.713  -0.967   0.298  0.2662  1.6832 -1.1569
  165DOPC  H13S20007   0.813  -1.096   0.347 -0.4172 -0.3065 -0.9785
  165DOPC  C21420008   0.924  -0.954   0.241  0.4258  0.9497  0.2006
  165DOPC  H14R20009   0.915  -1.028   0.159 -1.1057 -0.8867  1.9090
  165DOPC  H14S20010   1.022  -0.983   0.285  1.1466 -0.6297 -2.2249
  165DOPC  C21520011   0.918  -0.816   0.187  0.4679 -0.0743  0.0946
  165DOPC  H15R20012   0.918  -0.744   0.271  2.9740  0.2602 -0.1023
  165DOPC  H15S20013   0.817  -0.793   0.146  0.8097  2.4953  0.5267
  165DOPC  C21620014   1.021  -0.784   0.076 -0.1304  0.2233 -0.6353
  165DOPC  H16R20015   1.045  -0.875   0.017 -0.2987  0.4751 -1.0923
  165DOPC  H16S20016   1.113  -0.760   0.134 -0.6143 -1.2098  0.8303
  165DOPC  C21720017   0.987  -0.668  -0.010 -0.7149 -0.6554 -0.1157
  165DOPC  H17R20018   0.938  -0.591   0.053 -0.2559 -1.9987  1.9999
  165DOPC  H17S20019   0.917  -0.699  -0.092 -1.1605 -0.8149  0.3187
  165DOPC  C21820020   1.115  -0.613  -0.082  0.0986  0.0952  0.2490
  165DOPC  H18R20021   1.080  -0.523  -0.136  1.4679 -0.1060 -1.0266
  165DOPC  H18S20022   1.147  -0.680  -0.164 -1.0145 -0.0902 -0.0523
  165DOPC  H18T20023   1.198  -0.589  -0.012 -0.6447  2.5096  0.3866
  165DOPC   C3320024   0.938  -0.521   1.516 -0.7769 -0.6843  0.2397
  165DOPC   H3X20025   0.840  -0.471   1.534  0.7554  2.7733 -0.1866
  165DOPC   H3Y20026   0.924  -0.631   1.513  0.2623 -0.8037 -1.2500
  165DOPC   C3420027   0.971  -0.477   1.376 -0.1784  0.0024  0.3662
  165DOPC   H4X20028   1.065  -0.529   1.346  0.3340  0.1535  1.6399
  165DOPC   H4Y20029   0.985  -0.367   1.365  1.1103 -0.2076 -0.2854
  165DOPC   C3520030   0.866  -0.521   1.273  0.2930  0.1789  0.6839
  165DOPC   H5X20031   0.797  -0.434   1.271  1.1717  0.9144  1.3057
  165DOPC   H5Y20032   0.831  -0.622   1.301 -0.3872  0.4221  0.7111
  165DOPC   C3620033   0.930  -0.547   1.135 -0.3314  0.2742  0.0653
  165DOPC   H6X20034   1.007  -0.469   1.116 -1.0888  0.5452 -2.2240
  165DOPC   H6Y20035   0.985  -0.643   1.129 -0.6156 -0.0235  1.7248
  165DOPC   C3720036   0.828  -0.534   1.018 -0.5437 -0.6080  0.1403
  165DOPC   H7X20037   0.807  -0.428   0.991 -2.4791 -0.7675  0.8026
  165DOPC   H7Y20038   0.734  -0.578   1.057 -0.3282 -0.2939  1.0671
  165DOPC   C3820039   0.883  -0.605   0.897  0.4398 -0.2162 -0.5580
  165DOPC   H8X20040   0.921  -0.704   0.931  0.1692 -0.0313  0.2881
  165DOPC   H8Y20041   0.968  -0.543   0.862  1.2365 -1.4294 -0.8427
  165DOPC   C3920042   0.788  -0.629   0.782  0.5082  0.2193  0.1027
  165DOPC   H9X20043   0.716  -0.711   0.793  1.5345 -0.5796  1.0630
  165DOPC  C31020044   0.799  -0.571   0.659 -0.2531 -0.6377 -0.4923
  165DOPC  H10X20045   0.723  -0.595   0.583 -0.9810 -0.5563  0.1966
  165DOPC  C31120046   0.895  -0.468   0.607  0.7381 -0.1166  1.0102
  165DOPC  H11X20047   0.988  -0.514   0.566  0.6708  0.1728  0.5264
  165DOPC  H11Y20048   0.919  -0.400   0.692 -1.0554  0.3814  1.1492
  165DOPC  C31220049   0.842  -0.377   0.496  0.3933  0.2350  0.4018
  165DOPC  H12X20050   0.923  -0.305   0.472  0.4119 -0.1628 -0.8315
  165DOPC  H12Y20051   0.752  -0.327   0.538 -0.4903 -2.2000  1.6083
  165DOPC  C31320052   0.816  -0.454   0.368  0.5061  0.1170  0.3695
  165DOPC  H13X20053   0.900  -0.460   0.295 -0.4284  0.3984 -0.7524
  165DOPC  H13Y20054   0.773  -0.555   0.388  0.4174 -0.0247 -0.5106
  165DOPC  C31420055   0.718  -0.373   0.283  0.3794 -0.2147  0.6792
  165DOPC  H14X20056   0.634  -0.341   0.348 -1.1000  0.5908 -1.5240
  165DOPC  H14Y20057   0.774  -0.282   0.253 -0.4013  0.0069 -0.1589
  165DOPC  C31520058   0.656  -0.447   0.158 -0.0653 -0.0966  0.2741
  165DOPC  H15X20059   0.740  -0.485   0.096  0.3668  0.1548  0.6908
  165DOPC  H15Y20060   0.605  -0.371   0.095  1.3571  1.0939  0.4767
  165DOPC  C31620061   0.560  -0.572   0.178 -0.0198 -0.3240 -0.0090
  165DOPC  H16X20062   0.615  -0.662   0.214  0.5671 -0.1010 -0.3359
  165DOPC  H16Y20063   0.474  -0.540   0.240  1.3849  0.7034  1.4805
  165DOPC  C31720064   0.503  -0.612   0.038 -0.5711  0.3318  0.3057
  165DOPC  H17X20065   0.407  -0.664   0.057  0.6021 -1.5985  1.1960
  165DOPC  H17Y20066   0.485  -0.525  -0.029 -3.3038 -0.4513 -0.1183
  165DOPC  C31820067   0.588  -0.721  -0.034  0.3003  0.2635 -0.8622
  165DOPC  H18X20068   0.560  -0.730  -0.141  0.3005 -1.6845 -0.7232
  165DOPC  H18Y20069   0.696  -0.692  -0.038  0.1724  0.7793 -0.6476
  165DOPC  H18Z20070   0.589  -0.817   0.020  0.1393 -0.8124 -2.6835
  166DOPC     N20071  -3.340  -0.136   2.176  0.4336  0.0636  0.5045
  166DOPC   C1220072  -3.440  -0.044   2.109 -0.3605 -0.7479 -0.3946
  166DOPC  H12A20073  -3.473  -0.100   2.022  2.8008 -2.7572 -0.4674
  166DOPC  H12B20074  -3.383   0.040   2.074 -0.9263 -0.2250 -0.0875
  166DOPC   C1320075  -3.256  -0.062   2.280  0.8301  0.1911 -0.5001
  166DOPC  H13A20076  -3.183   0.004   2.236  0.5747 -0.3151 -1.7333
  166DOPC  H13B20077  -3.323   0.001   2.337  0.0561  0.3555 -1.5495
  166DOPC  H13C20078  -3.207  -0.132   2.345  2.0756  0.3337 -1.2472
  166DOPC   C1420079  -3.249  -0.202   2.073  0.2488 -0.4843 -0.5627
  166DOPC  H14A20080  -3.201  -0.122   2.018  2.3143 -2.0606 -1.2368
  166DOPC  H14B20081  -3.176  -0.275   2.105 -1.4405 -2.3274 -0.7297
  166DOPC  H14C20082  -3.315  -0.256   2.006 -0.1785  1.3529 -1.6846
  166DOPC   C1520083  -3.413  -0.243   2.250 -0.2264  0.5165  0.1210
  166DOPC  H15A20084  -3.350  -0.310   2.308 -0.7773  1.1633  1.5213
  166DOPC  H15B20085  -3.469  -0.303   2.180  2.9576 -1.5892 -0.8548
  166DOPC  H15C20086  -3.488  -0.195   2.312  0.9034 -0.0241  2.0013
  166DOPC   C1120087  -3.555   0.018   2.188 -0.3750  0.4166 -0.2132
  166DOPC  H11A20088  -3.521   0.071   2.279 -1.1335 -2.3770  1.8095
  166DOPC  H11B20089  -3.609   0.097   2.131 -1.5303  0.9313  1.5272
  166DOPC     P20090  -3.747  -0.143   2.150  0.8329  0.0075  0.3394
  166DOPC   O1320091  -3.879  -0.123   2.222  0.1437  0.3971  0.6953
  166DOPC   O1420092  -3.697  -0.280   2.128 -0.2267 -0.1710  0.6096
  166DOPC   O1220093  -3.632  -0.082   2.239  0.4335  0.3951 -0.1148
  166DOPC   O1120094  -3.738  -0.070   2.010 -0.5446 -0.2533  0.6811
  166DOPC    C120095  -3.817   0.049   1.979  0.4531 -0.5501  0.2799
  166DOPC    HA20096  -3.759   0.117   1.913  0.8154 -1.0811  0.0476
  166DOPC    HB20097  -3.835   0.105   2.073  2.5168  1.5426 -0.4599
  166DOPC    C220098  -3.950   0.018   1.906  0.3697  0.7526 -0.4284
  166DOPC    HS20099  -4.003  -0.052   1.973  0.4811 -1.0577 -2.1397
  166DOPC   O2120100  -3.935  -0.032   1.774  0.6047  0.4395  0.0629
  166DOPC   C2120101  -4.016  -0.122   1.736  0.0469 -0.2374 -0.2271
  166DOPC   O2220102  -4.099  -0.179   1.805 -0.2917  0.2566 -0.1694
  166DOPC   C2220103  -3.981  -0.165   1.591  0.3710  0.3333 -1.2181
  166DOPC   H2R20104  -4.042  -0.257   1.576  1.7025 -0.9292  0.6831
  166DOPC   H2S20105  -3.872  -0.185   1.593  0.6737  1.8659 -0.9790
  166DOPC    C320106  -4.039   0.145   1.901 -0.2018  0.1745 -0.0835
  166DOPC    HX20107  -4.051   0.177   2.006 -0.4854 -0.6487  0.1460
  166DOPC    HY20108  -4.140   0.111   1.869 -0.3676 -0.2949  0.9004
  166DOPC   O3120109  -3.986   0.249   1.812 -0.0716  0.5798  0.1009
  166DOPC   C3120110  -4.040   0.366   1.824  0.1401  0.1280  0.2603
  166DOPC   O3220111  -4.127   0.394   1.905 -0.2956 -0.5984 -0.4473
  166DOPC   C3220112  -3.997   0.452   1.710 -0.1794 -0.2290 -0.0001
  166DOPC   H2X20113  -3.979   0.555   1.747  0.4026 -0.0500 -0.7558
  166DOPC   H2Y20114  -3.904   0.407   1.668 -0.8762 -0.5862 -1.2133
  166DOPC   C2320115  -4.023  -0.069   1.490 -0.2877 -0.7813  0.2233
  166DOPC   H3R20116  -3.961   0.023   1.490  1.1046 -1.6843 -0.8221
  166DOPC   H3S20117  -4.126  -0.031   1.510  0.1818  0.8173 -0.2556
  166DOPC   C2420118  -4.007  -0.131   1.343  0.5806 -0.4739 -0.7894
  166DOPC   H4R20119  -4.089  -0.205   1.332 -0.1103 -0.5100  3.1822
  166DOPC   H4S20120  -3.904  -0.173   1.331  0.9791  0.1935  0.1958
  166DOPC   C2520121  -4.013  -0.017   1.233 -0.5400  0.0582 -0.4673
  166DOPC   H5R20122  -3.940   0.063   1.256 -2.5077  2.5226 -2.2710
  166DOPC   H5S20123  -4.113   0.030   1.230 -0.5305  0.0357 -1.2879
  166DOPC   C2620124  -3.973  -0.079   1.104 -0.0308 -0.5278  0.8709
  166DOPC   H6R20125  -4.033  -0.165   1.069 -0.6101 -0.4421  1.6346
  166DOPC   H6S20126  -3.870  -0.122   1.102 -0.0444 -0.5451 -0.4282
  166DOPC   C2720127  -3.979   0.029   0.990 -0.1343  0.3895 -0.2771
  166DOPC   H7R20128  -3.909   0.003   0.908  2.4471  1.0640  1.5840
  166DOPC   H7S20129  -3.939   0.124   1.031 -1.2416 -0.2314  2.4333
  166DOPC   C2820130  -4.119   0.045   0.933  0.1837  0.1975 -0.0359
  166DOPC   H8R20131  -4.112   0.135   0.868  0.5357  1.1837  1.3089
  166DOPC   H8S20132  -4.198   0.077   1.004 -1.0269 -2.3115 -0.1659
  166DOPC   C2920133  -4.168  -0.068   0.850 -0.2156 -0.0644  0.0691
  166DOPC   H9R20134  -4.259  -0.116   0.890 -0.5587 -0.2912 -0.9735
  166DOPC  C21020135  -4.136  -0.099   0.723  0.4470  0.0727 -0.4382
  166DOPC  H10R20136  -4.175  -0.190   0.675 -1.2649  1.2096 -1.3191
  166DOPC  C21120137  -4.041  -0.024   0.642 -0.2864 -0.1066  0.7490
  166DOPC  H11R20138  -3.940  -0.065   0.666  0.6045  0.8750 -1.0850
  166DOPC  H11S20139  -4.046   0.082   0.674 -0.6740  0.2263 -0.3725
  166DOPC  C21220140  -4.049  -0.044   0.488 -0.1881 -0.5043 -0.3055
  166DOPC  H12R20141  -4.054  -0.152   0.462 -0.0876  0.0849 -3.1014
  166DOPC  H12S20142  -3.962  -0.008   0.430 -1.5395  1.8761 -0.9976
  166DOPC  C21320143  -4.163   0.034   0.422  0.3417 -0.0129  0.4832
  166DOPC  H13R20144  -4.152   0.141   0.447 -2.9709  0.2510  1.2823
  166DOPC  H13S20145  -4.256  -0.014   0.460  1.9337 -2.1427  1.9404
  166DOPC  C21420146  -4.173   0.014   0.271 -0.2433 -0.2246  0.2719
  166DOPC  H14R20147  -4.197  -0.092   0.248  2.7239 -0.8753 -0.1974
  166DOPC  H14S20148  -4.076   0.034   0.220  0.2825 -1.4901  0.7441
  166DOPC  C21520149  -4.287   0.096   0.208  0.1591 -0.3250 -0.0940
  166DOPC  H15R20150  -4.266   0.203   0.228 -0.5556 -0.1919 -0.0044
  166DOPC  H15S20151  -4.387   0.083   0.255  0.2477  0.8101  0.4345
  166DOPC  C21620152  -4.305   0.069   0.059  0.1221  0.0729  0.4274
  166DOPC  H16R20153  -4.398   0.122   0.030  0.9231  0.2792 -2.0158
  166DOPC  H16S20154  -4.331  -0.039   0.056  0.8635 -0.0934 -0.7299
  166DOPC  C21720155  -4.192   0.111  -0.032 -0.1235  0.4166  0.2714
  166DOPC  H17R20156  -4.096   0.060  -0.010 -0.8902 -0.3957  1.8804
  166DOPC  H17S20157  -4.170   0.220  -0.027  0.5734  0.2969 -0.1035
  166DOPC  C21820158  -4.225   0.077  -0.183 -0.3114 -0.8607 -0.2572
  166DOPC  H18R20159  -4.305   0.144  -0.222  0.9015  0.2320 -0.9552
  166DOPC  H18S20160  -4.265  -0.026  -0.191 -0.1558 -0.7870 -2.6073
  166DOPC  H18T20161  -4.137   0.082  -0.250 -2.2738 -1.5392 -3.0529
  166DOPC   C3320162  -4.110   0.455   1.601 -0.2790  0.2148 -0.3083
  166DOPC   H3X20163  -4.204   0.492   1.648 -0.7056  2.3286 -2.6069
  166DOPC   H3Y20164  -4.136   0.350   1.574  0.8745 -0.3958  0.8492
  166DOPC   C3420165  -4.090   0.533   1.469  0.3958  0.6331 -0.6216
  166DOPC   H4X20166  -4.087   0.643   1.483 -1.6772  0.8806 -1.7950
  166DOPC   H4Y20167  -4.181   0.524   1.406 -0.0087  1.4760 -0.1746
  166DOPC   C3520168  -3.973   0.476   1.383  0.0074  0.4934 -0.0800
  166DOPC   H5X20169  -4.008   0.372   1.364 -0.2404  0.4910  0.3764
  166DOPC   H5Y20170  -3.875   0.461   1.435  0.3473 -0.2977 -0.9261
  166DOPC   C3620171  -3.935   0.556   1.261  0.8715 -0.6536  0.1626
  166DOPC   H6X20172  -3.888   0.651   1.294 -0.6573 -0.3415  1.5848
  166DOPC   H6Y20173  -3.861   0.496   1.203  1.0623 -0.2991  0.0337
  166DOPC   C3720174  -4.053   0.583   1.170 -0.8217 -0.6293 -0.1918
  166DOPC   H7X20175  -4.094   0.483   1.143  0.8575 -1.0622 -1.3326
  166DOPC   H7Y20176  -4.123   0.651   1.223  1.8924  3.6274 -1.5419
  166DOPC   C3820177  -4.018   0.636   1.024  0.0441 -0.5938  0.3682
  166DOPC   H8X20178  -3.915   0.597   1.009  0.6117 -0.0054  2.4352
  166DOPC   H8Y20179  -4.012   0.747   1.031  1.2967 -0.6687  0.8017
  166DOPC   C3920180  -4.122   0.599   0.917  0.2530  0.3617 -0.2108
  166DOPC   H9X20181  -4.209   0.551   0.964  1.6691 -1.9165  0.2257
  166DOPC  C31020182  -4.109   0.596   0.784  0.1097 -0.7073  0.4423
  166DOPC  H10X20183  -4.196   0.571   0.722  1.8906 -1.3802 -1.9497
  166DOPC  C31120184  -3.977   0.646   0.721 -0.4677  0.6390  0.0047
  166DOPC  H11X20185  -3.897   0.653   0.798  0.0995 -0.5255 -0.4551
  166DOPC  H11Y20186  -3.985   0.749   0.682  0.0927  0.3888 -0.7972
  166DOPC  C31220187  -3.942   0.556   0.601  0.6278  0.0839  0.0446
  166DOPC  H12X20188  -3.972   0.454   0.635  1.0713  0.5727  2.0350
  166DOPC  H12Y20189  -3.832   0.552   0.585  0.6750  1.3654 -0.0370
  166DOPC  C31320190  -4.013   0.589   0.471  0.0536 -0.1744  0.5011
  166DOPC  H13X20191  -4.122   0.589   0.491  0.1582  1.0104  1.1373
  166DOPC  H13Y20192  -3.975   0.687   0.435 -1.8085  0.4011 -0.0060
  166DOPC  C31420193  -3.989   0.488   0.354  0.4666 -0.5913 -0.0679
  166DOPC  H14X20194  -3.884   0.457   0.339  0.5226 -0.7150  0.5538
  166DOPC  H14Y20195  -4.044   0.393   0.374  0.0021 -0.7401 -1.8859
  166DOPC  C31520196  -4.041   0.542   0.219  0.2531 -0.5186 -0.2109
  166DOPC  H15X20197  -3.987   0.638   0.204 -2.5562  1.2870  0.5830
  166DOPC  H15Y20198  -4.151   0.559   0.220  0.2662 -0.2229  2.6005
  166DOPC  C31620199  -4.003   0.446   0.105  0.3954  0.3935  0.1527
  166DOPC  H16X20200  -3.904   0.395   0.115  0.6657  0.1424 -2.8717
  166DOPC  H16Y20201  -4.078   0.364   0.108  0.6037  0.2296  1.3579
  166DOPC  C31720202  -3.996   0.503  -0.036  0.2663  0.1073  0.5016
  166DOPC  H17X20203  -4.089   0.557  -0.064  0.0943 -0.0529  0.7650
  166DOPC  H17Y20204  -3.910   0.574  -0.035  0.5364 -0.2203  1.2449
  166DOPC  C31820205  -3.969   0.398  -0.143  0.1564 -0.3080  0.2492
  166DOPC  H18X20206  -4.054   0.327  -0.158  0.1037 -0.0168 -0.9119
  166DOPC  H18Y20207  -3.955   0.438  -0.245 -2.1733 -1.7576 -0.7206
  166DOPC  H18Z20208  -3.880   0.335  -0.120  0.7549 -0.3580 -1.9701
  167DOPC     N20209   2.928  -1.830   2.971 -0.3974  0.2037 -0.1546
  167DOPC   C1220210   2.853  -1.910   2.875 -0.1506  0.8228 -0.2812
  167DOPC  H12A20211   2.831  -2.004   2.924 -0.3915  0.1984 -1.5238
  167DOPC  H12B20212   2.921  -1.941   2.797 -0.2230  0.0465 -0.0523
  167DOPC   C1320213   3.037  -1.918   3.034  0.3292  0.5640 -1.5185
  167DOPC  H13A20214   3.084  -1.871   3.119  1.8902 -0.5474 -1.7354
  167DOPC  H13B20215   2.999  -2.013   3.069  0.7514  0.9461  0.0703
  167DOPC  H13C20216   3.113  -1.947   2.963  0.1637 -0.8097 -1.1648
  167DOPC   C1420217   2.834  -1.784   3.077  0.3111  0.2797 -0.3488
  167DOPC  H14A20218   2.794  -1.873   3.124  0.6532  0.6104  0.5914
  167DOPC  H14B20219   2.890  -1.740   3.158 -0.2003 -1.0633  0.7707
  167DOPC  H14C20220   2.746  -1.730   3.045 -0.4477 -0.7777 -0.1080
  167DOPC   C1520221   2.987  -1.709   2.903 -0.1070 -0.2579 -0.3644
  167DOPC  H15A20222   3.027  -1.645   2.981  0.8893 -1.1810 -0.0993
  167DOPC  H15B20223   2.907  -1.660   2.850 -0.6148 -0.2590  0.3730
  167DOPC  H15C20224   3.054  -1.738   2.824  2.3073  2.1595  0.6411
  167DOPC   C1120225   2.725  -1.859   2.815  0.3013 -0.2044  0.3944
  167DOPC  H11A20226   2.734  -1.764   2.759  2.6181 -0.8251 -0.3902
  167DOPC  H11B20227   2.696  -1.930   2.735 -0.0776  1.6589 -1.1930
  167DOPC     P20228   2.524  -1.965   2.930 -0.1741  0.3495  0.1245
  167DOPC   O1320229   2.410  -1.911   3.005 -0.2729  0.2190  0.2378
  167DOPC   O1420230   2.588  -2.086   2.985  1.0459  0.0764 -0.6135
  167DOPC   O1220231   2.615  -1.841   2.905 -0.4551  0.2163 -0.1755
  167DOPC   O1120232   2.479  -1.997   2.777  0.0635  0.2202  0.4164
  167DOPC    C120233   2.425  -1.891   2.699 -0.2369  0.2584 -0.2250
  167DOPC    HA20234   2.449  -1.912   2.592 -0.6017  3.0058 -0.9188
  167DOPC    HB20235   2.472  -1.794   2.726  0.6629 -1.0937  3.7275
  167DOPC    C220236   2.272  -1.893   2.689  0.4635  0.3845  0.5348
  167DOPC    HS20237   2.224  -1.894   2.790 -1.4539  3.7250 -0.1779
  167DOPC   O2120238   2.227  -2.005   2.605 -0.1447  0.1350  0.0652
  167DOPC   C2120239   2.114  -2.065   2.622 -0.1077 -0.0550  0.0763
  167DOPC   O2220240   2.034  -2.038   2.713 -0.0371  0.8260  0.5526
  167DOPC   C2220241   2.087  -2.165   2.508  0.0803  0.7410 -0.1710
  167DOPC   H2R20242   2.112  -2.264   2.553 -0.8175 -1.1643 -3.5355
  167DOPC   H2S20243   2.160  -2.154   2.425 -0.8317 -1.6964 -1.3782
  167DOPC    C320244   2.228  -1.757   2.635  0.1304 -0.0034 -0.0439
  167DOPC    HX20245   2.256  -1.676   2.707  1.7759  0.2296 -0.9073
  167DOPC    HY20246   2.119  -1.775   2.637 -0.0045  0.7314  1.4906
  167DOPC   O3120247   2.279  -1.730   2.507  0.2028 -0.2086 -0.2512
  167DOPC   C3120248   2.209  -1.744   2.401 -0.0827 -0.1167 -0.2489
  167DOPC   O3220249   2.098  -1.799   2.395 -0.3844 -0.1408 -0.4524
  167DOPC   C3220250   2.280  -1.670   2.284  0.6660 -0.1098 -0.1816
  167DOPC   H2X20251   2.257  -1.561   2.287 -1.4149 -0.4715 -0.9007
  167DOPC   H2Y20252   2.390  -1.684   2.286  0.7273  0.1916 -0.9761
  167DOPC   C2320253   1.942  -2.181   2.452  0.7014 -0.2555 -0.2689
  167DOPC   H3R20254   1.874  -2.181   2.540  1.8288 -1.8509  0.6501
  167DOPC   H3S20255   1.939  -2.280   2.400  0.6985 -0.6335  0.4330
  167DOPC   C2420256   1.899  -2.063   2.353  0.1870 -0.4554 -0.0455
  167DOPC   H4R20257   1.925  -1.972   2.411 -0.7644 -1.4345  2.0378
  167DOPC   H4S20258   1.792  -2.062   2.327 -0.0727  0.9409  0.9231
  167DOPC   C2520259   1.992  -2.074   2.230  0.5642 -0.0136  0.1848
  167DOPC   H5R20260   2.025  -2.179   2.211 -3.1159 -1.0203 -1.5951
  167DOPC   H5S20261   2.087  -2.023   2.254  0.3791  0.3645  0.1223
  167DOPC   C2620262   1.922  -2.020   2.096 -0.3867  0.4929  0.0686
  167DOPC   H6R20263   1.878  -1.920   2.115  1.2223  1.1632  0.3569
  167DOPC   H6S20264   1.836  -2.091   2.086 -0.0250  0.0884 -0.2234
  167DOPC   C2720265   2.028  -2.021   1.978 -0.4645 -0.0166 -0.2845
  167DOPC   H7R20266   2.074  -2.121   1.960  1.3512  0.8297 -0.5284
  167DOPC   H7S20267   2.114  -1.959   2.008 -1.2094  0.7053  0.4282
  167DOPC   C2820268   1.961  -1.974   1.847  0.1766 -0.0541 -0.5997
  167DOPC   H8R20269   1.865  -2.025   1.823 -0.2190  1.9965 -4.1652
  167DOPC   H8S20270   2.027  -2.002   1.762  0.7798  0.1286 -0.1969
  167DOPC   C2920271   1.938  -1.826   1.860 -0.1535 -0.0780  0.0211
  167DOPC   H9R20272   1.842  -1.805   1.909 -0.9392 -1.3161 -0.8977
  167DOPC  C21020273   1.994  -1.726   1.797 -0.1716 -0.1084  0.4008
  167DOPC  H10R20274   1.965  -1.621   1.811 -1.2815 -0.2920 -0.4278
  167DOPC  C21120275   2.107  -1.734   1.700  0.5878  0.9255  0.2875
  167DOPC  H11R20276   2.148  -1.837   1.700 -0.1553  0.5078 -3.2226
  167DOPC  H11S20277   2.188  -1.663   1.728  1.9622 -0.9728  1.2817
  167DOPC  C21220278   2.054  -1.703   1.559 -0.0762 -0.0883  0.5903
  167DOPC  H12R20279   1.948  -1.735   1.550 -1.0017  2.9280 -0.5536
  167DOPC  H12S20280   2.064  -1.594   1.541  1.4093 -0.3990 -0.6496
  167DOPC  C21320281   2.131  -1.783   1.447  0.0653 -0.4819 -0.7513
  167DOPC  H13R20282   2.120  -1.893   1.459 -1.3846 -0.4211 -1.2599
  167DOPC  H13S20283   2.238  -1.765   1.469 -0.4412  1.7478  0.1223
  167DOPC  C21420284   2.098  -1.731   1.308 -0.5261 -0.3136  0.3430
  167DOPC  H14R20285   2.106  -1.622   1.286 -0.2528 -0.2650  0.6769
  167DOPC  H14S20286   1.993  -1.760   1.285 -1.2495  0.0340  2.8932
  167DOPC  C21520287   2.190  -1.799   1.204 -0.1816  0.2136  0.1877
  167DOPC  H15R20288   2.142  -1.769   1.109 -1.4101  2.1586  1.3422
  167DOPC  H15S20289   2.198  -1.909   1.215  2.0182  0.2559 -0.4198
  167DOPC  C21620290   2.338  -1.749   1.208  0.4966  0.2478 -0.2051
  167DOPC  H16R20291   2.387  -1.812   1.131  2.5334  0.0234  1.1842
  167DOPC  H16S20292   2.401  -1.753   1.300  0.2576 -0.2346 -0.0564
  167DOPC  C21720293   2.345  -1.610   1.148  0.1494  0.1500 -0.6188
  167DOPC  H17R20294   2.309  -1.533   1.219  2.4759 -0.5888  1.5399
  167DOPC  H17S20295   2.282  -1.598   1.057 -3.5075  1.4430  1.8574
  167DOPC  C21820296   2.488  -1.570   1.120  0.5927  0.5568  0.1450
  167DOPC  H18R20297   2.490  -1.465   1.085 -1.6320  0.6197  0.0715
  167DOPC  H18S20298   2.524  -1.645   1.046  0.3468 -0.8993  1.4416
  167DOPC  H18T20299   2.551  -1.580   1.211 -0.8892 -0.0837  1.1397
  167DOPC   C3320300   2.223  -1.735   2.156 -0.3771  0.0250 -0.2430
  167DOPC   H3X20301   2.113  -1.727   2.147 -0.7231 -1.2956  2.0831
  167DOPC   H3Y20302   2.232  -1.845   2.169 -3.3336 -0.4968 -1.7456
  167DOPC   C3420303   2.307  -1.690   2.037 -0.4084  0.5469 -0.1735
  167DOPC   H4X20304   2.281  -1.756   1.951 -2.0759 -1.0687  1.4790
  167DOPC   H4Y20305   2.416  -1.706   2.054 -0.6160 -0.8642 -0.0210
  167DOPC   C3520306   2.278  -1.545   2.003 -0.2845 -0.2510  0.4685
  167DOPC   H5X20307   2.293  -1.468   2.082 -2.8870 -1.4764  2.3140
  167DOPC   H5Y20308   2.174  -1.534   1.966 -0.9683 -2.7440  1.4689
  167DOPC   C3620309   2.373  -1.495   1.890  0.5485 -0.5577 -0.7246
  167DOPC   H6X20310   2.470  -1.459   1.930 -0.7520  1.1288  1.1240
  167DOPC   H6Y20311   2.382  -1.580   1.820 -0.5059 -1.4370  0.1632
  167DOPC   C3720312   2.321  -1.363   1.824 -0.3162  0.0759  0.5826
  167DOPC   H7X20313   2.224  -1.390   1.777 -1.4177  2.5426  1.2553
  167DOPC   H7Y20314   2.298  -1.302   1.914 -2.6230 -1.8146  1.3968
  167DOPC   C3820315   2.410  -1.313   1.716  0.0710  0.4038  0.0131
  167DOPC   H8X20316   2.517  -1.320   1.747  0.4712  0.0217 -1.3719
  167DOPC   H8Y20317   2.398  -1.203   1.699  3.1442  0.7549 -0.5825
  167DOPC   C3920318   2.409  -1.398   1.587 -0.2400 -0.0734 -0.2314
  167DOPC   H9X20319   2.448  -1.501   1.594 -0.2553  0.0314  1.8835
  167DOPC  C31020320   2.372  -1.356   1.468 -0.4597  0.5459 -0.2886
  167DOPC  H10X20321   2.357  -1.442   1.401 -2.4709 -0.0309  0.8608
  167DOPC  C31120322   2.323  -1.230   1.417  0.9422 -0.3838 -0.1157
  167DOPC  H11X20323   2.380  -1.193   1.330 -1.8653 -1.1790 -2.4507
  167DOPC  H11Y20324   2.345  -1.152   1.493  0.8926 -0.9254  0.4715
  167DOPC  C31220325   2.173  -1.234   1.382 -0.7027 -0.1914 -0.1438
  167DOPC  H12X20326   2.133  -1.131   1.381  1.2523  0.6814 -2.8738
  167DOPC  H12Y20327   2.112  -1.282   1.461 -1.3291  0.5978 -0.1377
  167DOPC  C31320328   2.135  -1.289   1.244  0.4068  0.5691  0.2109
  167DOPC  H13X20329   2.139  -1.400   1.255 -0.9574  0.4921  0.1369
  167DOPC  H13Y20330   2.031  -1.259   1.220 -0.2663 -0.7409  1.3083
  167DOPC  C31420331   2.228  -1.237   1.137  1.1672 -0.3266  0.5762
  167DOPC  H14X20332   2.220  -1.129   1.114  2.2723 -0.0172  1.5111
  167DOPC  H14Y20333   2.337  -1.259   1.147  1.7017  1.4382 -0.9550
  167DOPC  C31520334   2.198  -1.289   0.990 -0.1224 -0.1618 -0.7954
  167DOPC  H15X20335   2.108  -1.235   0.953 -1.3246 -1.5886 -0.0940
  167DOPC  H15Y20336   2.168  -1.395   1.001 -0.0570 -0.2218 -1.2072
  167DOPC  C31620337   2.317  -1.269   0.895  0.2188 -0.1997  0.4113
  167DOPC  H16X20338   2.339  -1.164   0.869  0.2608  0.0621  1.4491
  167DOPC  H16Y20339   2.410  -1.304   0.943  2.1518  3.9970  0.1169
  167DOPC  C31720340   2.294  -1.346   0.763 -0.1803 -0.3351  0.0750
  167DOPC  H17X20341   2.392  -1.361   0.712 -0.5709 -2.0925 -0.2336
  167DOPC  H17Y20342   2.273  -1.452   0.791  0.7169 -0.4082  0.5141
  167DOPC  C31820343   2.179  -1.304   0.673 -0.0218 -0.5508 -0.6156
  167DOPC  H18X20344   2.088  -1.276   0.729 -0.6964  1.2023 -2.4647
  167DOPC  H18Y20345   2.204  -1.217   0.608 -2.2708 -0.4362 -1.4107
  167DOPC  H18Z20346   2.151  -1.394   0.613  0.4670 -1.6042  0.6839
  168DOPC     N20347  -1.720  -2.263   2.882 -0.0833 -0.1977  0.1951
  168DOPC   C1220348  -1.700  -2.220   2.739  0.2947  0.2030 -0.0905
  168DOPC  H12A20349  -1.660  -2.303   2.683  1.8997  0.3494  0.7707
  168DOPC  H12B20350  -1.630  -2.138   2.744  0.7139 -0.2188  3.2188
  168DOPC   C1320351  -1.608  -2.342   2.931  0.1714  0.2183  0.4486
  168DOPC  H13A20352  -1.519  -2.298   2.972 -0.4245  0.6031  1.3536
  168DOPC  H13B20353  -1.639  -2.387   3.024  0.2501 -0.4229  0.1730
  168DOPC  H13C20354  -1.583  -2.418   2.859  0.8452  1.9470 -1.2372
  168DOPC   C1420355  -1.841  -2.349   2.890  0.0041  0.3859  0.3117
  168DOPC  H14A20356  -1.852  -2.386   2.991  0.7456 -1.5623 -0.2702
  168DOPC  H14B20357  -1.930  -2.295   2.863 -0.8606 -0.8538  0.5657
  168DOPC  H14C20358  -1.830  -2.431   2.820 -0.3814  0.6945 -0.1127
  168DOPC   C1520359  -1.738  -2.152   2.975 -0.1556 -0.4264  0.0351
  168DOPC  H15A20360  -1.749  -2.193   3.075 -3.4075 -1.2989 -0.5743
  168DOPC  H15B20361  -1.837  -2.113   2.961 -0.2196 -0.7210 -0.3424
  168DOPC  H15C20362  -1.666  -2.072   2.974  0.6834 -1.1562 -1.4886
  168DOPC   C1120363  -1.822  -2.169   2.666  0.0544  0.2602  0.5262
  168DOPC  H11A20364  -1.788  -2.145   2.563 -2.1025  1.3417  0.0028
  168DOPC  H11B20365  -1.894  -2.254   2.667  1.7958 -1.2988 -0.2173
  168DOPC     P20366  -2.026  -2.010   2.676  0.3596  0.0520 -0.0224
  168DOPC   O1320367  -2.078  -1.888   2.736 -0.2417 -0.2840  0.0309
  168DOPC   O1420368  -2.120  -2.123   2.692  0.1736 -0.6342 -0.7755
  168DOPC   O1220369  -1.879  -2.050   2.726 -0.5845  0.4012  0.1811
  168DOPC   O1120370  -2.013  -1.988   2.516 -0.1791  0.0642  0.6202
  168DOPC    C120371  -1.935  -1.872   2.475  0.1137  0.6048  0.0900
  168DOPC    HA20372  -1.825  -1.880   2.488  0.2747  0.7816 -1.0813
  168DOPC    HB20373  -1.971  -1.782   2.529 -3.4802 -0.5378 -0.1378
  168DOPC    C220374  -1.955  -1.840   2.324 -0.0408 -0.1098 -0.0526
  168DOPC    HS20375  -1.888  -1.758   2.293  1.4181 -0.7600  1.2529
  168DOPC   O2120376  -2.096  -1.827   2.292  0.4572 -0.0098 -0.1396
  168DOPC   C2120377  -2.158  -1.709   2.328 -0.8543  0.3574 -0.5988
  168DOPC   O2220378  -2.105  -1.636   2.410 -0.3697 -0.9030  0.2013
  168DOPC   C2220379  -2.278  -1.693   2.236 -0.0656 -0.1953 -0.2851
  168DOPC   H2R20380  -2.303  -1.586   2.250 -1.3937 -0.6652  1.3427
  168DOPC   H2S20381  -2.367  -1.753   2.267 -0.5668  0.4670 -0.4262
  168DOPC    C320382  -1.893  -1.961   2.245 -0.0354 -0.5971  0.5683
  168DOPC    HX20383  -1.930  -2.062   2.272 -0.0423 -0.7619 -0.0483
  168DOPC    HY20384  -1.786  -1.970   2.273  0.2301 -0.0593 -0.2303
  168DOPC   O3120385  -1.885  -1.935   2.102 -0.8752  0.9851 -0.0886
  168DOPC   C3120386  -1.965  -1.997   2.022 -0.6855  0.3271  0.2936
  168DOPC   O3220387  -2.049  -2.079   2.051  0.7163  0.2268 -0.0730
  168DOPC   C3220388  -1.933  -1.945   1.879  0.3600 -0.2427  0.4776
  168DOPC   H2X20389  -1.956  -1.837   1.887 -0.1754 -0.3158  0.0128
  168DOPC   H2Y20390  -1.828  -1.977   1.862  0.6053  0.7083  0.1417
  168DOPC   C2320391  -2.242  -1.711   2.085 -0.2900 -0.0840 -0.6791
  168DOPC   H3R20392  -2.176  -1.798   2.063 -0.4540  0.1805 -2.3425
  168DOPC   H3S20393  -2.185  -1.622   2.052  1.3584  0.0674  2.1684
  168DOPC   C2420394  -2.361  -1.728   1.998 -0.1105 -0.2847  0.3142
  168DOPC   H4R20395  -2.430  -1.642   2.013  1.7587  1.0982  1.6627
  168DOPC   H4S20396  -2.418  -1.822   2.014 -1.3203 -0.0302 -1.9943
  168DOPC   C2520397  -2.317  -1.726   1.853  0.3446  0.0801  0.0024
  168DOPC   H5R20398  -2.246  -1.811   1.841  0.7099  0.3969 -0.0991
  168DOPC   H5S20399  -2.256  -1.636   1.831 -1.0990  0.7633 -1.3778
  168DOPC   C2620400  -2.437  -1.732   1.754 -0.1044  0.3482 -0.0120
  168DOPC   H6R20401  -2.499  -1.641   1.762  3.9847  3.2692  2.0309
  168DOPC   H6S20402  -2.501  -1.820   1.775  2.2954 -2.1025 -2.1365
  168DOPC   C2720403  -2.389  -1.750   1.608  0.5984 -0.3670 -0.8556
  168DOPC   H7R20404  -2.353  -1.855   1.603  0.3555 -0.3940 -2.3765
  168DOPC   H7S20405  -2.305  -1.678   1.594  2.1671 -2.0755 -0.5835
  168DOPC   C2820406  -2.503  -1.723   1.504  0.1183 -0.1874  0.1987
  168DOPC   H8R20407  -2.465  -1.764   1.408 -0.4390 -0.1199 -0.0550
  168DOPC   H8S20408  -2.518  -1.614   1.487 -0.2992 -0.4396 -1.1836
  168DOPC   C2920409  -2.638  -1.790   1.540  0.2226 -0.2254  0.2447
  168DOPC   H9R20410  -2.696  -1.742   1.621  0.4777 -0.6883  0.7084
  168DOPC  C21020411  -2.691  -1.891   1.470  0.0010 -0.1972 -0.3316
  168DOPC  H10R20412  -2.785  -1.931   1.511 -1.0205  2.5107  0.2077
  168DOPC  C21120413  -2.633  -1.974   1.359 -0.2464 -0.4350 -0.3559
  168DOPC  H11R20414  -2.640  -2.082   1.385 -1.7308 -0.7041 -1.7266
  168DOPC  H11S20415  -2.523  -1.959   1.358 -0.3816  1.1590  1.8437
  168DOPC  C21220416  -2.699  -1.953   1.224  0.3149  0.3484  0.5758
  168DOPC  H12R20417  -2.806  -1.962   1.250  0.7647 -0.4086  2.2850
  168DOPC  H12S20418  -2.671  -2.038   1.157  1.2411  0.3842  0.9060
  168DOPC  C21320419  -2.683  -1.810   1.162 -0.4970  0.3280 -0.1944
  168DOPC  H13R20420  -2.573  -1.796   1.154 -0.6178  0.2845 -2.7556
  168DOPC  H13S20421  -2.723  -1.741   1.239  2.3821  1.2116  0.6442
  168DOPC  C21420422  -2.760  -1.798   1.027 -0.1633 -0.3600 -0.4734
  168DOPC  H14R20423  -2.769  -1.692   0.996 -0.7227 -0.5971 -1.1391
  168DOPC  H14S20424  -2.861  -1.841   1.046 -0.1045  1.1465  4.9733
  168DOPC  C21520425  -2.685  -1.868   0.914 -0.1900  0.3030 -0.0206
  168DOPC  H15R20426  -2.647  -1.965   0.951 -1.1652 -0.4069 -0.8388
  168DOPC  H15S20427  -2.601  -1.806   0.876  1.3709 -0.5301  1.8926
  168DOPC  C21620428  -2.774  -1.896   0.795  0.2190 -0.1313 -0.1108
  168DOPC  H16R20429  -2.827  -1.803   0.768 -0.4437  0.1154  1.9051
  168DOPC  H16S20430  -2.849  -1.975   0.817  0.4272 -0.2391  0.2157
  168DOPC  C21720431  -2.690  -1.927   0.671  0.0823 -0.6359 -0.3607
  168DOPC  H17R20432  -2.622  -2.012   0.696  0.5700  0.3663  2.0183
  168DOPC  H17S20433  -2.632  -1.836   0.646  0.2795 -0.8176 -0.5718
  168DOPC  C21820434  -2.760  -1.977   0.543  0.1330 -0.4566 -0.5170
  168DOPC  H18R20435  -2.831  -1.895   0.520 -0.1132  0.4450  2.9024
  168DOPC  H18S20436  -2.823  -2.066   0.565  0.5367 -0.8751 -1.0071
  168DOPC  H18T20437  -2.683  -1.986   0.463  1.6020 -0.8273  0.8743
  168DOPC   C3320438  -2.024  -2.006   1.762 -0.4127  0.0187 -0.2636
  168DOPC   H3X20439  -2.132  -1.996   1.786 -0.7080  0.0615 -1.5451
  168DOPC   H3Y20440  -1.992  -2.110   1.740  1.1246  0.7268 -1.5939
  168DOPC   C3420441  -2.012  -1.930   1.624 -0.2468  0.4648 -0.4353
  168DOPC   H4X20442  -1.906  -1.924   1.593 -0.0293 -2.3310 -0.5241
  168DOPC   H4Y20443  -2.046  -1.826   1.639  2.3921  1.3713 -0.2889
  168DOPC   C3520444  -2.090  -1.997   1.508 -1.1340 -0.5223 -0.2286
  168DOPC   H5X20445  -2.184  -2.043   1.544 -1.2892 -0.9922 -1.1984
  168DOPC   H5Y20446  -2.021  -2.078   1.476  0.8741  0.6789  0.8410
  168DOPC   C3620447  -2.100  -1.899   1.386 -0.3436  0.4010 -0.7385
  168DOPC   H6X20448  -2.174  -1.824   1.419  0.0669  0.1216  0.9392
  168DOPC   H6Y20449  -2.001  -1.851   1.369  1.0064 -1.1543  1.9788
  168DOPC   C3720450  -2.153  -1.980   1.262  0.0770  0.2579  0.6671
  168DOPC   H7X20451  -2.111  -2.083   1.261 -0.0124  0.2245  0.0328
  168DOPC   H7Y20452  -2.261  -1.987   1.285 -0.0793 -1.5978 -0.4519
  168DOPC   C3820453  -2.133  -1.903   1.136  0.0278  0.5378  0.2556
  168DOPC   H8X20454  -2.028  -1.911   1.101 -1.0585 -1.1936 -3.0964
  168DOPC   H8Y20455  -2.160  -1.796   1.151 -1.9542 -0.0295  1.1192
  168DOPC   C3920456  -2.223  -1.973   1.036  0.1790 -0.0477 -0.2610
  168DOPC   H9X20457  -2.251  -2.078   1.054 -1.2653  0.5762  1.4813
  168DOPC  C31020458  -2.270  -1.911   0.928 -0.3853  0.4241  0.2352
  168DOPC  H10X20459  -2.324  -1.976   0.857  1.1954  1.1816 -1.7789
  168DOPC  C31120460  -2.256  -1.767   0.888  0.2552 -0.3238 -0.3408
  168DOPC  H11X20461  -2.175  -1.714   0.942  0.7766  0.1204 -1.5155
  168DOPC  H11Y20462  -2.352  -1.720   0.918 -0.9875 -1.7200 -1.8700
  168DOPC  C31220463  -2.215  -1.721   0.749 -0.0741  0.9772  0.1440
  168DOPC  H12X20464  -2.112  -1.758   0.733  0.6010  2.4718  0.8054
  168DOPC  H12Y20465  -2.217  -1.610   0.742 -0.5248  0.9473 -0.2823
  168DOPC  C31320466  -2.322  -1.774   0.650 -0.2189 -0.2383  0.2740
  168DOPC  H13X20467  -2.326  -1.884   0.662  0.7148 -0.1688  1.4154
  168DOPC  H13Y20468  -2.423  -1.735   0.672  0.1173  0.4944  0.5741
  168DOPC  C31420469  -2.285  -1.753   0.499 -0.5248  0.5896  0.5657
  168DOPC  H14X20470  -2.345  -1.669   0.458 -0.8722  0.0070 -0.1413
  168DOPC  H14Y20471  -2.178  -1.729   0.486 -0.5967  1.4406  1.4260
  168DOPC  C31520472  -2.320  -1.873   0.414  0.5835  0.0404 -0.1750
  168DOPC  H15X20473  -2.422  -1.910   0.435 -0.4920  0.7650 -3.5684
  168DOPC  H15Y20474  -2.249  -1.956   0.437 -1.6985 -2.0861 -0.4017
  168DOPC  C31620475  -2.328  -1.859   0.261 -0.2157  0.3073 -0.3614
  168DOPC  H16X20476  -2.239  -1.821   0.208 -0.3612 -0.1449 -0.9398
  168DOPC  H16Y20477  -2.342  -1.956   0.209  3.2823 -0.6087  0.1752
  168DOPC  C31720478  -2.444  -1.756   0.219  0.7293 -0.2245  0.0622
  168DOPC  H17X20479  -2.537  -1.782   0.273  0.8462 -0.6839  0.0451
  168DOPC  H17Y20480  -2.426  -1.650   0.247 -1.3028  0.1326  0.1905
  168DOPC  C31820481  -2.480  -1.762   0.068 -0.0500 -0.2893 -0.5183
  168DOPC  H18X20482  -2.503  -1.867   0.040  0.3463 -0.5508  0.1145
  168DOPC  H18Y20483  -2.567  -1.697   0.044 -0.1237 -0.3883 -0.5187
  168DOPC  H18Z20484  -2.400  -1.722   0.002 -0.8147 -0.7497 -1.7584
  169DOPC     N20485   2.596  -0.900   2.936 -0.0134 -0.3197  0.2954
  169DOPC   C1220486   2.522  -1.010   2.856 -0.4648  0.0589 -0.4315
  169DOPC  H12A20487   2.436  -0.965   2.810 -0.9253 -0.8469 -0.4677
  169DOPC  H12B20488   2.489  -1.073   2.937 -2.3247  1.1077 -0.3285
  169DOPC   C1320489   2.636  -0.785   2.844 -0.2114  0.3670 -0.5570
  169DOPC  H13A20490   2.691  -0.824   2.759 -2.4772 -0.9811 -1.5031
  169DOPC  H13B20491   2.548  -0.748   2.793 -0.2629  0.3739 -0.4633
  169DOPC  H13C20492   2.674  -0.696   2.890 -0.7325  1.1285 -1.5418
  169DOPC   C1420493   2.711  -0.958   3.011  0.1980 -0.7234  0.4948
  169DOPC  H14A20494   2.792  -0.982   2.944  1.6631  2.5035  0.9351
  169DOPC  H14B20495   2.751  -0.891   3.086 -2.5202  0.4376  1.0300
  169DOPC  H14C20496   2.695  -1.053   3.059 -0.9306 -1.2678 -0.8621
  169DOPC   C1520497   2.502  -0.843   3.040  0.2744  0.2258 -0.8061
  169DOPC  H15A20498   2.568  -0.786   3.104 -0.9042  0.6311  0.0934
  169DOPC  H15B20499   2.464  -0.918   3.108  2.2340  0.0993  0.2444
  169DOPC  H15C20500   2.424  -0.787   2.991  0.9957 -0.2481 -2.5830
  169DOPC   C1120501   2.607  -1.087   2.744  0.1819 -0.0652 -0.0243
  169DOPC  H11A20502   2.541  -1.150   2.680 -2.4559  2.1240  0.3834
  169DOPC  H11B20503   2.652  -1.008   2.681 -0.8632  0.4642 -0.1258
  169DOPC     P20504   2.674  -1.317   2.871  0.0377  0.4273  0.0846
  169DOPC   O1320505   2.643  -1.299   3.017 -0.0741  0.4473  0.0480
  169DOPC   O1420506   2.793  -1.404   2.841  0.2716  0.0987  0.5101
  169DOPC   O1220507   2.707  -1.168   2.807  0.1020  0.1219  0.4846
  169DOPC   O1120508   2.541  -1.368   2.803  0.3858  0.3365  0.4990
  169DOPC    C120509   2.543  -1.486   2.711  1.1031 -0.1528  0.0906
  169DOPC    HA20510   2.434  -1.510   2.706  0.9465  0.4768  0.3297
  169DOPC    HB20511   2.582  -1.579   2.757  1.5382  0.1061  0.2435
  169DOPC    C220512   2.613  -1.464   2.570  0.5762  0.1391  0.8002
  169DOPC    HS20513   2.717  -1.426   2.585  0.5162  1.2618 -1.2130
  169DOPC   O2120514   2.532  -1.371   2.489 -0.4328  0.4688 -0.7596
  169DOPC   C2120515   2.601  -1.277   2.427 -0.2071  0.0893  0.3952
  169DOPC   O2220516   2.720  -1.260   2.431  0.3162  0.4301 -0.5175
  169DOPC   C2220517   2.501  -1.199   2.339  0.9259 -0.3417  0.0247
  169DOPC   H2R20518   2.512  -1.094   2.373  0.6491 -0.2010 -0.3129
  169DOPC   H2S20519   2.400  -1.243   2.351  0.3250  0.9237 -0.1848
  169DOPC    C320520   2.635  -1.597   2.502  0.5475  0.0190  0.1233
  169DOPC    HX20521   2.541  -1.630   2.452  1.9028  1.1499 -3.5320
  169DOPC    HY20522   2.656  -1.674   2.579 -1.1550  0.5125  1.1262
  169DOPC   O3120523   2.748  -1.582   2.407 -0.0066  0.1195 -0.4286
  169DOPC   C3120524   2.705  -1.564   2.280  0.3992 -0.2468  0.0294
  169DOPC   O3220525   2.589  -1.589   2.241 -0.5029  0.0888 -0.4778
  169DOPC   C3220526   2.821  -1.522   2.197 -0.6762 -0.3447 -0.6285
  169DOPC   H2X20527   2.888  -1.452   2.252 -1.1081  0.6484 -1.3425
  169DOPC   H2Y20528   2.896  -1.604   2.190  1.7663  1.6765  0.2109
  169DOPC   C2320529   2.541  -1.201   2.191  0.2931  0.1500  0.6567
  169DOPC   H3R20530   2.506  -1.297   2.147  2.9504  0.0322 -1.5101
  169DOPC   H3S20531   2.651  -1.187   2.181  0.3067  0.1145  0.7600
  169DOPC   C2420532   2.489  -1.090   2.101 -0.2009  0.4419  1.3158
  169DOPC   H4R20533   2.522  -1.114   1.998  0.4627  1.1766  1.3459
  169DOPC   H4S20534   2.540  -0.994   2.122  3.2557 -0.6623 -1.1896
  169DOPC   C2520535   2.338  -1.076   2.102  0.0713  0.3163 -0.1543
  169DOPC   H5R20536   2.312  -1.048   2.206  0.2261 -1.3057  0.3477
  169DOPC   H5S20537   2.294  -1.177   2.090 -0.3316  0.6161 -1.3573
  169DOPC   C2620538   2.287  -0.956   2.017 -0.5724  0.1047 -0.4676
  169DOPC   H6R20539   2.368  -0.881   2.025 -0.4415  0.0060 -0.8063
  169DOPC   H6S20540   2.193  -0.924   2.066 -0.6790 -1.0317  0.1052
  169DOPC   C2720541   2.269  -0.997   1.875  0.2909 -0.1689  0.8023
  169DOPC   H7R20542   2.201  -1.085   1.870 -1.3503  0.8948  2.7292
  169DOPC   H7S20543   2.359  -1.036   1.823 -0.1354 -0.4587  0.2717
  169DOPC   C2820544   2.215  -0.875   1.796  0.1273 -0.4098 -0.0826
  169DOPC   H8R20545   2.134  -0.823   1.851 -0.5303 -2.9327  1.5196
  169DOPC   H8S20546   2.158  -0.918   1.710 -1.9580 -0.5132  1.2733
  169DOPC   C2920547   2.316  -0.774   1.759 -0.0543  0.2380  0.6078
  169DOPC   H9R20548   2.360  -0.713   1.839  1.9444 -0.4142  0.0549
  169DOPC  C21020549   2.359  -0.751   1.635 -0.1340 -0.6097 -0.1072
  169DOPC  H10R20550   2.432  -0.670   1.617 -2.1922  1.3709  0.0311
  169DOPC  C21120551   2.331  -0.833   1.511 -0.9605  0.7977  0.9899
  169DOPC  H11R20552   2.252  -0.909   1.529 -0.1975 -0.8779 -2.0366
  169DOPC  H11S20553   2.417  -0.901   1.493 -1.0548  1.6056 -3.6483
  169DOPC  C21220554   2.303  -0.761   1.384 -0.0341 -0.3369 -0.5070
  169DOPC  H12R20555   2.382  -0.688   1.359 -0.5810  0.0978 -0.9863
  169DOPC  H12S20556   2.212  -0.701   1.406 -1.1279 -2.5399  1.4232
  169DOPC  C21320557   2.274  -0.844   1.261  0.4537  0.6848  0.5661
  169DOPC  H13R20558   2.203  -0.922   1.297  0.1255  1.4583  1.6499
  169DOPC  H13S20559   2.362  -0.892   1.214 -0.8504  0.1105 -1.4212
  169DOPC  C21420560   2.217  -0.766   1.142 -1.3606 -0.4123 -0.1648
  169DOPC  H14R20561   2.299  -0.698   1.112 -2.1301  0.8285  0.4466
  169DOPC  H14S20562   2.141  -0.692   1.176  0.4427  1.4040  0.0806
  169DOPC  C21520563   2.179  -0.863   1.026 -0.1036  0.2322  0.3150
  169DOPC  H15R20564   2.110  -0.935   1.075 -1.0054  1.5665  1.0481
  169DOPC  H15S20565   2.255  -0.939   0.997 -1.1176  0.0143 -1.9788
  169DOPC  C21620566   2.121  -0.806   0.894 -0.2830  0.2592 -0.1645
  169DOPC  H16R20567   2.021  -0.758   0.897 -1.0861 -1.1154 -2.1888
  169DOPC  H16S20568   2.102  -0.896   0.832 -0.3156 -0.0840  0.3405
  169DOPC  C21720569   2.218  -0.710   0.823 -0.2937 -0.3299  0.3645
  169DOPC  H17R20570   2.312  -0.767   0.805  0.3234  0.1179  1.9965
  169DOPC  H17S20571   2.226  -0.619   0.887 -2.2658  0.1798 -0.0540
  169DOPC  C21820572   2.166  -0.661   0.686  1.0330 -0.1288 -0.2566
  169DOPC  H18R20573   2.166  -0.739   0.607 -1.4314  0.6441 -1.1067
  169DOPC  H18S20574   2.224  -0.574   0.647  0.5070  0.9412  1.2334
  169DOPC  H18T20575   2.063  -0.622   0.698 -0.1842 -2.9996 -0.5408
  169DOPC   C3320576   2.790  -1.487   2.055 -0.0898 -0.3196 -0.3598
  169DOPC   H3X20577   2.889  -1.456   2.014 -0.6004  0.0312 -1.3876
  169DOPC   H3Y20578   2.728  -1.396   2.041  1.6150  0.6232 -2.3161
  169DOPC   C3420579   2.740  -1.603   1.965 -0.4554  0.1643 -0.1515
  169DOPC   H4X20580   2.644  -1.636   2.009 -0.5503  0.8623  0.1752
  169DOPC   H4Y20581   2.814  -1.685   1.975  0.3625  1.0641  1.4347
  169DOPC   C3520582   2.736  -1.579   1.819  0.1262 -0.5142  0.1297
  169DOPC   H5X20583   2.838  -1.555   1.780 -0.9234  0.9422 -1.8605
  169DOPC   H5Y20584   2.682  -1.483   1.804  0.9355  0.1696  1.3486
  169DOPC   C3620585   2.668  -1.691   1.739  0.3083  0.1937 -0.5971
  169DOPC   H6X20586   2.706  -1.790   1.773 -0.7934 -0.0823 -0.1074
  169DOPC   H6Y20587   2.563  -1.669   1.769  1.3811  2.3382  1.9114
  169DOPC   C3720588   2.678  -1.673   1.588  0.5071 -0.3461  0.7930
  169DOPC   H7X20589   2.672  -1.567   1.557 -2.0599 -0.6704 -0.0584
  169DOPC   H7Y20590   2.786  -1.700   1.580  0.5440 -0.0163  0.1128
  169DOPC   C3820591   2.572  -1.750   1.503 -0.5171  0.3304 -0.9221
  169DOPC   H8X20592   2.594  -1.735   1.395 -3.2199  2.4332 -1.2836
  169DOPC   H8Y20593   2.470  -1.710   1.521 -0.2123  1.4584 -1.5916
  169DOPC   C3920594   2.584  -1.893   1.537 -0.0410  0.2418 -0.5082
  169DOPC   H9X20595   2.510  -1.917   1.615  1.3783  0.4274  0.9450
  169DOPC  C31020596   2.641  -1.993   1.469  0.0263 -0.0923  0.3502
  169DOPC  H10X20597   2.644  -2.091   1.518 -1.0760 -0.0211  0.5850
  169DOPC  C31120598   2.729  -1.977   1.351 -0.0831  0.4017 -0.6216
  169DOPC  H11X20599   2.806  -2.056   1.364  0.0932  0.8999  1.8479
  169DOPC  H11Y20600   2.780  -1.878   1.346 -0.3174  0.7185  1.9668
  169DOPC  C31220601   2.651  -2.019   1.223 -0.5343  0.3987  0.8147
  169DOPC  H12X20602   2.564  -1.952   1.206 -1.6901 -1.2051  0.1315
  169DOPC  H12Y20603   2.597  -2.115   1.239  0.7031 -0.1144  2.1606
  169DOPC  C31320604   2.742  -2.024   1.094 -0.8256 -0.0813  0.7373
  169DOPC  H13X20605   2.802  -1.930   1.094 -0.2750 -0.3956  2.6156
  169DOPC  H13Y20606   2.796  -2.120   1.104  1.3768  0.9286 -0.5969
  169DOPC  C31420607   2.670  -2.024   0.957 -0.1502  0.5850 -0.2635
  169DOPC  H14X20608   2.593  -2.104   0.948 -1.0898  1.4842 -0.3712
  169DOPC  H14Y20609   2.613  -1.929   0.948 -1.0952 -0.1091 -2.1321
  169DOPC  C31520610   2.767  -2.052   0.851 -0.2411 -0.1915 -0.4191
  169DOPC  H15X20611   2.774  -2.162   0.836 -3.0791 -0.8274  2.0358
  169DOPC  H15Y20612   2.868  -2.026   0.890 -0.7497 -0.2620  0.9790
  169DOPC  C31620613   2.728  -1.980   0.720  0.3533  0.6287 -0.2359
  169DOPC  H16X20614   2.629  -1.930   0.730  1.3608  2.4604  1.3648
  169DOPC  H16Y20615   2.800  -1.899   0.695  1.0240 -0.7023 -2.9146
  169DOPC  C31720616   2.706  -2.084   0.611 -0.1392  0.8149  0.3551
  169DOPC  H17X20617   2.801  -2.138   0.590  2.2151  4.3690  1.0171
  169DOPC  H17Y20618   2.631  -2.163   0.636  0.1603 -0.4330 -2.3003
  169DOPC  C31820619   2.656  -2.014   0.485 -0.0583  0.6749 -0.5885
  169DOPC  H18X20620   2.743  -1.972   0.429  1.4827 -1.7430 -0.1433
  169DOPC  H18Y20621   2.604  -2.082   0.415 -0.6389 -0.8045  1.1921
  169DOPC  H18Z20622   2.584  -1.934   0.513  0.4847  0.7037  0.8241
  170DOPC     N20623   3.257  -2.418   2.691 -0.1556 -0.1564  0.7519
  170DOPC   C1220624   3.174  -2.359   2.575  0.5120  0.2282 -0.7350
  170DOPC  H12A20625   3.184  -2.252   2.568  1.9326  0.1895  0.2412
  170DOPC  H12B20626   3.068  -2.365   2.592  0.6904 -0.8332  0.1259
  170DOPC   C1320627   3.233  -2.327   2.807 -0.5023 -0.3767 -0.4721
  170DOPC  H13A20628   3.131  -2.329   2.843  0.1294 -0.7977  1.4258
  170DOPC  H13B20629   3.291  -2.365   2.890 -0.6085  1.4124  0.4787
  170DOPC  H13C20630   3.265  -2.228   2.780  0.1247 -1.0222 -2.2396
  170DOPC   C1420631   3.400  -2.424   2.659 -0.4197  0.8604  0.4044
  170DOPC  H14A20632   3.460  -2.462   2.741 -1.8632  0.3914  1.2943
  170DOPC  H14B20633   3.401  -2.481   2.568  1.3398  0.1866  0.8127
  170DOPC  H14C20634   3.440  -2.327   2.636  2.6935 -0.8473 -2.0615
  170DOPC   C1520635   3.209  -2.562   2.708  0.2947 -0.6290  0.9365
  170DOPC  H15A20636   3.282  -2.611   2.770 -0.1597 -1.8341  0.5493
  170DOPC  H15B20637   3.204  -2.617   2.615  0.3576 -0.4272  0.8118
  170DOPC  H15C20638   3.115  -2.552   2.761  0.2133  0.6868  0.5744
  170DOPC   C1120639   3.201  -2.411   2.432 -0.0828 -0.4482  1.0548
  170DOPC  H11A20640   3.130  -2.356   2.367 -1.1381 -2.5740  0.3179
  170DOPC  H11B20641   3.301  -2.377   2.398 -0.9797  2.1688  0.7864
  170DOPC     P20642   3.272  -2.645   2.354 -0.2160  0.1141 -0.4199
  170DOPC   O1320643   3.213  -2.784   2.372 -0.6723  0.0128  0.2746
  170DOPC   O1420644   3.404  -2.620   2.424  0.2520  0.1677  0.3573
  170DOPC   O1220645   3.170  -2.544   2.419  0.0709  0.2734 -0.5162
  170DOPC   O1120646   3.285  -2.615   2.199 -0.0516 -0.0993 -0.1999
  170DOPC    C120647   3.178  -2.564   2.120  0.7524 -0.4686  0.2295
  170DOPC    HA20648   3.186  -2.458   2.087 -2.8859 -0.7169 -2.0532
  170DOPC    HB20649   3.078  -2.584   2.164 -0.4921  0.9601 -1.7571
  170DOPC    C220650   3.155  -2.644   1.990  0.4906  0.1897  0.5192
  170DOPC    HS20651   3.145  -2.752   2.014  0.4884  0.3125  1.0914
  170DOPC   O2120652   3.267  -2.621   1.909  0.4859 -0.4841 -0.1061
  170DOPC   C2120653   3.362  -2.711   1.912  0.3682  0.1109  0.0407
  170DOPC   O2220654   3.353  -2.828   1.952 -0.4154 -0.0425 -0.2743
  170DOPC   C2220655   3.481  -2.659   1.836 -0.4516  0.1818  0.7652
  170DOPC   H2R20656   3.509  -2.743   1.769 -1.2940  0.2147  0.3596
  170DOPC   H2S20657   3.561  -2.652   1.913  0.2131 -3.8064  0.6600
  170DOPC    C320658   3.029  -2.595   1.919 -0.0926 -0.3118 -0.2286
  170DOPC    HX20659   3.024  -2.484   1.915  0.6650 -0.2747 -0.3758
  170DOPC    HY20660   2.943  -2.630   1.980  0.1843  0.1090  0.4175
  170DOPC   O3120661   3.017  -2.638   1.779 -0.1808  0.5598 -0.0329
  170DOPC   C3120662   2.997  -2.763   1.760  0.7197  0.4237 -0.5263
  170DOPC   O3220663   2.977  -2.844   1.850  0.2776  0.0497 -0.3213
  170DOPC   C3220664   3.019  -2.799   1.615 -0.3971  0.3534 -0.2121
  170DOPC   H2X20665   2.996  -2.706   1.558 -0.7495  0.8043  0.6421
  170DOPC   H2Y20666   3.126  -2.827   1.614 -0.3605  0.4870  0.1369
  170DOPC   C2320667   3.478  -2.518   1.770 -0.3017 -0.1393 -0.0057
  170DOPC   H3R20668   3.578  -2.475   1.746 -0.8037  0.9430 -0.2285
  170DOPC   H3S20669   3.441  -2.440   1.841  4.3165  1.0312  1.4488
  170DOPC   C2420670   3.390  -2.524   1.645 -0.7096  0.4229  0.3427
  170DOPC   H4R20671   3.375  -2.422   1.604  2.2601  0.2311 -1.4979
  170DOPC   H4S20672   3.295  -2.561   1.688 -0.3536 -0.2716  0.5545
  170DOPC   C2520673   3.464  -2.601   1.527  0.0661  0.0800  0.4259
  170DOPC   H5R20674   3.449  -2.710   1.543 -1.2989  0.0509 -0.8352
  170DOPC   H5S20675   3.571  -2.573   1.520  0.6377 -2.4046 -3.1722
  170DOPC   C2620676   3.385  -2.589   1.399 -0.4206  1.0342  0.8566
  170DOPC   H6R20677   3.361  -2.486   1.366 -2.6506  0.2280 -0.2595
  170DOPC   H6S20678   3.286  -2.637   1.418 -0.7709  1.5021  0.2341
  170DOPC   C2720679   3.459  -2.663   1.278 -0.0602 -0.0651  0.5907
  170DOPC   H7R20680   3.486  -2.765   1.313  1.9093  1.0736  2.6989
  170DOPC   H7S20681   3.552  -2.606   1.259  1.2835 -2.1991  0.4659
  170DOPC   C2820682   3.374  -2.681   1.151 -1.1973 -0.2457 -0.3432
  170DOPC   H8R20683   3.308  -2.594   1.131  0.3982  0.9496 -0.6221
  170DOPC   H8S20684   3.298  -2.761   1.160 -1.7717  0.4644  1.6109
  170DOPC   C2920685   3.453  -2.698   1.018  0.8069 -0.4100  0.1661
  170DOPC   H9R20686   3.553  -2.736   1.045  1.3964 -0.2093 -1.6271
  170DOPC  C21020687   3.424  -2.660   0.889  0.1168 -0.0662  0.1101
  170DOPC  H10R20688   3.502  -2.676   0.813  1.2287  0.3355  1.1262
  170DOPC  C21120689   3.312  -2.571   0.837 -0.7277  0.6627  0.4319
  170DOPC  H11R20690   3.336  -2.463   0.847  1.9688  0.0797  0.9008
  170DOPC  H11S20691   3.220  -2.598   0.892  1.6874 -0.8129  4.1100
  170DOPC  C21220692   3.298  -2.590   0.684  0.1067  0.0818 -0.7808
  170DOPC  H12R20693   3.274  -2.697   0.664 -2.0588 -0.2621  2.8114
  170DOPC  H12S20694   3.386  -2.547   0.633  1.0029  1.0403  1.4656
  170DOPC  C21320695   3.172  -2.507   0.639 -0.3038  0.1369  0.1231
  170DOPC  H13R20696   3.191  -2.398   0.643 -0.0652  0.0738  0.9066
  170DOPC  H13S20697   3.093  -2.530   0.714 -2.0453  1.2248 -1.2995
  170DOPC  C21420698   3.132  -2.552   0.501 -0.0119 -0.9765  0.9104
  170DOPC  H14R20699   3.096  -2.656   0.486  0.7134 -0.9421 -1.4825
  170DOPC  H14S20700   3.213  -2.542   0.426 -1.5674 -0.3729 -0.7651
  170DOPC  C21520701   3.027  -2.448   0.456 -0.0551  1.1739 -0.5420
  170DOPC  H15R20702   3.062  -2.343   0.461 -0.6005  1.3024  1.6127
  170DOPC  H15S20703   2.935  -2.457   0.518  0.8961  1.4106  0.9472
  170DOPC  C21620704   2.986  -2.474   0.310  0.2774  0.0460 -0.2390
  170DOPC  H16R20705   2.983  -2.583   0.291 -0.5071 -0.1162  0.7545
  170DOPC  H16S20706   3.076  -2.429   0.262  0.6988  1.7484  1.9974
  170DOPC  C21720707   2.862  -2.401   0.268 -0.6221 -0.2966 -0.1605
  170DOPC  H17R20708   2.879  -2.291   0.274  1.7335 -0.6748  1.3011
  170DOPC  H17S20709   2.784  -2.411   0.347  0.2107 -3.0545  0.3974
  170DOPC  C21820710   2.782  -2.447   0.143 -0.7126 -0.6766  0.3511
  170DOPC  H18R20711   2.749  -2.553   0.147 -1.8260 -0.3857 -0.4138
  170DOPC  H18S20712   2.847  -2.435   0.053  1.1572 -1.9119  1.4723
  170DOPC  H18T20713   2.696  -2.381   0.117  0.5506  1.0778  0.4991
  170DOPC   C3320714   2.935  -2.922   1.565  0.0300 -0.2745  1.1798
  170DOPC   H3X20715   2.830  -2.889   1.554  0.1316 -0.6587 -1.6464
  170DOPC   H3Y20716   2.954  -3.012   1.627  0.5537 -1.9508 -1.2663
  170DOPC   C3420717   2.984  -2.959   1.417  0.7875 -0.7491 -0.2808
  170DOPC   H4X20718   2.903  -3.026   1.381  0.0343 -0.4641  0.8355
  170DOPC   H4Y20719   3.081  -3.012   1.419 -0.4813 -3.2199  1.8268
  170DOPC   C3520720   2.983  -2.840   1.320 -0.0290 -0.1354 -0.1923
  170DOPC   H5X20721   3.070  -2.773   1.337  1.7582 -2.4868  0.5208
  170DOPC   H5Y20722   2.894  -2.773   1.326  0.8431  1.4184 -3.1074
  170DOPC   C3620723   2.996  -2.906   1.184 -0.2393 -0.5633 -0.1493
  170DOPC   H6X20724   3.094  -2.957   1.172 -1.0533 -1.7083 -2.6482
  170DOPC   H6Y20725   2.921  -2.988   1.189  0.9020 -1.5991  0.4478
  170DOPC   C3720726   2.959  -2.803   1.079  0.3854  0.2393  0.2227
  170DOPC   H7X20727   2.860  -2.764   1.112  0.9706 -0.0952  2.6273
  170DOPC   H7Y20728   3.038  -2.726   1.074  1.1503 -0.4708  0.9290
  170DOPC   C3820729   2.941  -2.862   0.938  0.0687 -0.4343 -0.0129
  170DOPC   H8X20730   2.899  -2.781   0.873  0.1179  0.7614  1.3989
  170DOPC   H8Y20731   2.861  -2.938   0.947 -1.0000  0.5133 -1.0392
  170DOPC   C3920732   3.070  -2.915   0.888 -0.3204 -0.2388 -0.4402
  170DOPC   H9X20733   3.164  -2.874   0.929 -0.2084 -0.0702 -0.8567
  170DOPC  C31020734   3.087  -3.015   0.799 -0.0947  0.1742  0.3887
  170DOPC  H10X20735   3.191  -3.043   0.772  0.3497  2.4297 -0.5021
  170DOPC  C31120736   2.975  -3.081   0.719 -0.4389 -0.2794 -0.0448
  170DOPC  H11X20737   2.898  -3.115   0.792 -0.3414  0.1065  0.2400
  170DOPC  H11Y20738   3.013  -3.164   0.656  0.7139  0.6765 -0.6387
  170DOPC  C31220739   2.919  -2.984   0.610 -0.1041  0.2993  0.5116
  170DOPC  H12X20740   2.866  -2.896   0.652 -1.2603  1.1661 -2.4727
  170DOPC  H12Y20741   2.843  -3.050   0.563 -2.1170  1.6054  1.7618
  170DOPC  C31320742   3.017  -2.939   0.498  0.7144  0.1877  0.3972
  170DOPC  H13X20743   3.102  -2.879   0.536  0.6600 -0.3153  1.3546
  170DOPC  H13Y20744   3.077  -3.022   0.455  1.2827  1.0229 -0.4734
  170DOPC  C31420745   2.954  -2.877   0.363  0.1628  0.0162 -0.0926
  170DOPC  H14X20746   2.902  -2.783   0.392 -0.9469 -1.1581  1.9858
  170DOPC  H14Y20747   3.042  -2.854   0.300 -0.5418 -1.6063 -1.7783
  170DOPC  C31520748   2.851  -2.964   0.288  0.5895  0.9654  0.3058
  170DOPC  H15X20749   2.810  -2.914   0.198 -1.9464 -1.2693  0.0697
  170DOPC  H15Y20750   2.762  -2.989   0.351  0.0529  0.0081 -0.8100
  170DOPC  C31620751   2.881  -3.109   0.234  0.4591  0.0567  0.0870
  170DOPC  H16X20752   2.937  -3.103   0.139  3.5008  1.1272  1.8037
  170DOPC  H16Y20753   2.955  -3.149   0.306 -0.3195 -2.3472 -0.3697
  170DOPC  C31720754   2.759  -3.212   0.247 -0.2245 -0.1678  0.1039
  170DOPC  H17X20755   2.746  -3.235   0.355 -0.2587 -0.9542 -0.0630
  170DOPC  H17Y20756   2.669  -3.156   0.215 -0.4283  1.9874  3.8532
  170DOPC  C31820757   2.787  -3.348   0.180 -0.0629 -0.6225 -0.4974
  170DOPC  H18X20758   2.827  -3.339   0.077 -1.0795  1.4596 -0.7575
  170DOPC  H18Y20759   2.853  -3.405   0.249  0.7310  0.8881  0.0480
  170DOPC  H18Z20760   2.689  -3.399   0.172  0.0233 -0.8056 -0.4196
  171DOPC     N20761  -0.075   1.211  -2.857 -0.2614 -0.3471 -0.1869
  171DOPC   C1220762  -0.201   1.230  -2.767 -0.5375  0.2269  0.3040
  171DOPC  H12A20763  -0.288   1.192  -2.818  0.1239 -0.5475 -0.2611
  171DOPC  H12B20764  -0.220   1.336  -2.761  0.0330  0.2821  1.3784
  171DOPC   C1320765   0.038   1.286  -2.791  0.3119  0.6241  0.1206
  171DOPC  H13A20766   0.031   1.393  -2.804  0.8887  0.3504 -3.0194
  171DOPC  H13B20767   0.050   1.269  -2.685 -2.3694 -0.2427  0.3555
  171DOPC  H13C20768   0.134   1.254  -2.830  0.4990  1.6246 -0.2785
  171DOPC   C1420769  -0.096   1.266  -2.989  0.3979 -0.5839 -0.1732
  171DOPC  H14A20770  -0.001   1.278  -3.038  1.5323  0.7837  2.2058
  171DOPC  H14B20771  -0.174   1.214  -3.045  0.3529 -3.2288  2.1296
  171DOPC  H14C20772  -0.127   1.369  -2.980  0.8661 -0.4300 -0.3201
  171DOPC   C1520773  -0.041   1.066  -2.865  0.0471  0.2402 -0.0912
  171DOPC  H15A20774  -0.025   1.030  -2.764 -1.9860 -2.7239 -0.6763
  171DOPC  H15B20775   0.051   1.053  -2.920  0.0243 -0.3576  0.0038
  171DOPC  H15C20776  -0.121   1.002  -2.900 -1.1539  0.9635  1.2444
  171DOPC   C1120777  -0.207   1.171  -2.623 -0.3497 -0.0704 -0.0316
  171DOPC  H11A20778  -0.114   1.196  -2.568  1.0101 -2.6422 -1.0118
  171DOPC  H11B20779  -0.296   1.195  -2.560 -1.3366  0.1595 -1.4793
  171DOPC     P20780  -0.329   0.952  -2.678  0.6443 -0.2469 -0.2054
  171DOPC   O1320781  -0.279   0.840  -2.760  0.2010  0.3982  0.1779
  171DOPC   O1420782  -0.427   1.038  -2.744  0.2180 -0.2238 -0.0037
  171DOPC   O1220783  -0.208   1.026  -2.619 -0.2396 -0.0823 -0.2934
  171DOPC   O1120784  -0.403   0.889  -2.554 -0.0132  0.7081 -0.2019
  171DOPC    C120785  -0.436   0.947  -2.426  0.4318  1.0916 -0.3902
  171DOPC    HA20786  -0.546   0.957  -2.431 -0.0618 -3.0851 -1.7761
  171DOPC    HB20787  -0.395   1.049  -2.409  0.8281  1.0673 -1.1539
  171DOPC    C220788  -0.411   0.848  -2.309  0.1372 -0.6965 -0.1845
  171DOPC    HS20789  -0.478   0.877  -2.225  2.7160  1.6018  1.2291
  171DOPC   O2120790  -0.274   0.845  -2.280  0.0262  0.5887  0.1867
  171DOPC   C2120791  -0.229   0.925  -2.188  0.0748 -0.0359 -0.0363
  171DOPC   O2220792  -0.305   0.990  -2.115 -0.2912 -0.0293  0.0932
  171DOPC   C2220793  -0.081   0.894  -2.155  0.4050  0.6391 -0.1590
  171DOPC   H2R20794  -0.017   0.959  -2.219  2.2195  1.0615  1.9775
  171DOPC   H2S20795  -0.058   0.791  -2.191 -0.3252  0.7547 -0.9986
  171DOPC    C320796  -0.461   0.706  -2.345  0.6521 -0.4302  0.8166
  171DOPC    HX20797  -0.390   0.661  -2.418  0.6946 -1.5096  1.5187
  171DOPC    HY20798  -0.558   0.723  -2.397  1.1351  1.4599  0.4357
  171DOPC   O3120799  -0.481   0.624  -2.227  0.7450  0.2743  0.0713
  171DOPC   C3120800  -0.528   0.498  -2.248 -0.4176 -0.2981 -0.1396
  171DOPC   O3220801  -0.545   0.448  -2.362 -0.7098  0.5531  0.2162
  171DOPC   C3220802  -0.546   0.418  -2.121 -0.5893 -0.3453  0.3285
  171DOPC   H2X20803  -0.645   0.436  -2.074 -1.0770  2.2477 -1.4662
  171DOPC   H2Y20804  -0.535   0.310  -2.148  0.8779 -0.7304  2.2690
  171DOPC   C2320805  -0.048   0.926  -2.012 -0.6087  0.4932 -0.3666
  171DOPC   H3R20806  -0.079   1.031  -1.996 -0.6144  0.3856  0.3600
  171DOPC   H3S20807   0.063   0.931  -2.000 -0.7976 -0.5363  2.6932
  171DOPC   C2420808  -0.102   0.814  -1.916 -0.4051 -0.4085  0.1834
  171DOPC   H4R20809  -0.068   0.712  -1.943  0.8805  0.5068 -1.8859
  171DOPC   H4S20810  -0.213   0.820  -1.914 -0.3238  1.6995  1.4219
  171DOPC   C2520811  -0.051   0.830  -1.775  0.1737 -0.1516  0.1375
  171DOPC   H5R20812  -0.037   0.938  -1.754  1.7028 -0.3181  0.0928
  171DOPC   H5S20813   0.047   0.780  -1.761 -0.7022 -2.0880 -0.3136
  171DOPC   C2620814  -0.147   0.777  -1.662 -0.4199  0.0193 -0.0273
  171DOPC   H6R20815  -0.179   0.671  -1.671  2.3462 -0.9631  0.8859
  171DOPC   H6S20816  -0.237   0.841  -1.648 -0.8173 -0.7808  1.2532
  171DOPC   C2720817  -0.065   0.777  -1.527  1.1031 -0.6481  0.0415
  171DOPC   H7R20818  -0.011   0.874  -1.518  1.0603 -0.7507  1.6933
  171DOPC   H7S20819   0.008   0.694  -1.539  2.6040  0.6373 -0.0712
  171DOPC   C2820820  -0.143   0.749  -1.396  0.3571  1.3443  0.0818
  171DOPC   H8R20821  -0.248   0.760  -1.433  0.5957 -0.2738 -1.1819
  171DOPC   H8S20822  -0.115   0.812  -1.309  0.1838  0.9136  0.4528
  171DOPC   C2920823  -0.133   0.605  -1.343  0.2544  0.5606  0.1901
  171DOPC   H9R20824  -0.151   0.529  -1.420  1.3884 -0.9523  1.3489
  171DOPC  C21020825  -0.116   0.565  -1.220  0.1374 -0.8718 -0.4504
  171DOPC  H10R20826  -0.115   0.458  -1.195  0.9089 -0.5553  1.0070
  171DOPC  C21120827  -0.096   0.665  -1.107 -0.4297  0.0196 -0.1546
  171DOPC  H11R20828  -0.197   0.701  -1.078 -1.4528 -2.0284 -0.9768
  171DOPC  H11S20829  -0.026   0.748  -1.129  1.2452 -2.0524 -3.5000
  171DOPC  C21220830  -0.039   0.588  -0.987 -0.0919  0.1701  0.7877
  171DOPC  H12R20831   0.058   0.535  -0.999  0.1375  0.8392 -0.5010
  171DOPC  H12S20832  -0.116   0.509  -0.969 -0.0295 -0.3854 -1.1617
  171DOPC  C21320833  -0.051   0.685  -0.868  1.2972 -0.0845 -0.2259
  171DOPC  H13R20834  -0.152   0.732  -0.869  1.4708  0.2850 -0.4183
  171DOPC  H13S20835   0.011   0.777  -0.878  0.9514  0.1728 -0.0643
  171DOPC  C21420836  -0.030   0.618  -0.739 -0.1558  0.2213  0.2743
  171DOPC  H14R20837   0.077   0.588  -0.742 -0.6203 -1.4851 -1.6782
  171DOPC  H14S20838  -0.079   0.522  -0.710  2.1199 -0.5541  1.7712
  171DOPC  C21520839  -0.048   0.711  -0.625 -0.9863  0.1284 -0.0708
  171DOPC  H15R20840  -0.157   0.721  -0.611 -1.0259 -1.7959  1.3689
  171DOPC  H15S20841   0.010   0.805  -0.642 -0.2020 -0.3470 -0.0422
  171DOPC  C21620842   0.010   0.665  -0.495 -0.1935  0.1574 -0.3397
  171DOPC  H16R20843  -0.005   0.555  -0.486 -0.2367  0.1099 -0.9233
  171DOPC  H16S20844  -0.051   0.717  -0.418 -0.4654  1.6599 -1.5174
  171DOPC  C21720845   0.158   0.699  -0.475 -0.5927  0.2279 -0.8352
  171DOPC  H17R20846   0.179   0.801  -0.514 -0.8147  0.8862  0.7001
  171DOPC  H17S20847   0.223   0.636  -0.539  0.3794 -0.3361  0.6550
  171DOPC  C21820848   0.195   0.691  -0.331  0.2149  0.4499 -0.4401
  171DOPC  H18R20849   0.202   0.586  -0.298  0.5520 -0.4388 -3.1384
  171DOPC  H18S20850   0.117   0.735  -0.264  0.8056 -0.1950  0.6838
  171DOPC  H18T20851   0.289   0.746  -0.307  0.8161  0.6844 -3.0624
  171DOPC   C3320852  -0.436   0.451  -2.020 -0.2593 -0.3305  0.3954
  171DOPC   H3X20853  -0.427   0.562  -2.017 -0.9158 -0.0195 -3.3149
  171DOPC   H3Y20854  -0.343   0.401  -2.054 -0.1947 -0.5352  0.8821
  171DOPC   C3420855  -0.468   0.405  -1.875 -0.3977 -0.5266 -0.0122
  171DOPC   H4X20856  -0.500   0.299  -1.881  1.8002 -1.1868 -1.6539
  171DOPC   H4Y20857  -0.562   0.455  -1.843 -0.8841 -1.5401  0.1771
  171DOPC   C3520858  -0.354   0.432  -1.782  0.6972  0.0080  0.9584
  171DOPC   H5X20859  -0.330   0.540  -1.777 -1.6910  0.8502 -2.1698
  171DOPC   H5Y20860  -0.260   0.381  -1.812 -0.5316 -1.8662  0.0949
  171DOPC   C3620861  -0.373   0.391  -1.639 -0.6109  0.4740 -0.0087
  171DOPC   H6X20862  -0.310   0.447  -1.566  0.1273  0.5218 -0.6693
  171DOPC   H6Y20863  -0.473   0.426  -1.604 -0.3479  0.8002  0.4319
  171DOPC   C3720864  -0.349   0.240  -1.622 -1.0442 -0.0149 -0.2861
  171DOPC   H7X20865  -0.424   0.177  -1.674 -0.9663 -1.3361  1.1239
  171DOPC   H7Y20866  -0.245   0.222  -1.657 -1.7500 -0.4044 -2.2684
  171DOPC   C3820867  -0.351   0.198  -1.476  0.6719 -0.2954 -0.2002
  171DOPC   H8X20868  -0.316   0.283  -1.414  0.5044 -0.9219  0.7684
  171DOPC   H8Y20869  -0.277   0.117  -1.465  1.9029  0.6753 -1.0365
  171DOPC   C3920870  -0.488   0.154  -1.423 -0.2562 -0.1948  0.4226
  171DOPC   H9X20871  -0.530   0.064  -1.471  0.3786  0.1934 -0.9118
  171DOPC  C31020872  -0.555   0.200  -1.318  0.5836 -0.7788 -0.3644
  171DOPC  H10X20873  -0.657   0.166  -1.297 -0.3402  0.9637 -1.7222
  171DOPC  C31120874  -0.511   0.305  -1.218  0.5901  0.4749 -0.0144
  171DOPC  H11X20875  -0.589   0.382  -1.201  0.3982  0.3584 -0.3408
  171DOPC  H11Y20876  -0.429   0.365  -1.263  0.5939  1.2631  1.0020
  171DOPC  C31220877  -0.465   0.251  -1.083  0.2341 -0.6062 -0.0573
  171DOPC  H12X20878  -0.535   0.185  -1.026  0.6159 -0.9431  0.0265
  171DOPC  H12Y20879  -0.456   0.340  -1.017 -2.3746  1.3146 -2.0646
  171DOPC  C31320880  -0.330   0.182  -1.085  0.8045  0.3760  0.0975
  171DOPC  H13X20881  -0.331   0.094  -1.152  1.7001 -0.5408  1.2422
  171DOPC  H13Y20882  -0.259   0.251  -1.138  1.3620 -0.0835  0.2351
  171DOPC  C31420883  -0.275   0.128  -0.957  0.3092 -0.3916 -0.5582
  171DOPC  H14X20884  -0.310   0.025  -0.934  0.3758 -0.6305 -1.4929
  171DOPC  H14Y20885  -0.165   0.127  -0.971  0.1168 -0.6071 -2.3883
  171DOPC  C31520886  -0.313   0.209  -0.829 -0.3303 -0.0253  0.2613
  171DOPC  H15X20887  -0.421   0.192  -0.813 -0.0764 -0.6964  1.4070
  171DOPC  H15Y20888  -0.288   0.315  -0.849  1.4742 -0.5788 -0.6203
  171DOPC  C31620889  -0.226   0.159  -0.709 -0.3698 -0.7968  0.4885
  171DOPC  H16X20890  -0.275   0.070  -0.665 -1.1173 -0.5472  0.1912
  171DOPC  H16Y20891  -0.121   0.140  -0.740  0.0556  0.4022  1.1148
  171DOPC  C31720892  -0.225   0.267  -0.605 -0.9308  0.6891 -0.4959
  171DOPC  H17X20893  -0.160   0.356  -0.624 -0.7742  0.1135 -2.8550
  171DOPC  H17Y20894  -0.330   0.299  -0.588 -0.9603 -0.2142  1.3074
  171DOPC  C31820895  -0.170   0.218  -0.467  0.1045 -0.0776 -0.4672
  171DOPC  H18X20896  -0.243   0.145  -0.426  0.0069 -0.7827 -1.8384
  171DOPC  H18Y20897  -0.068   0.173  -0.470 -0.5102 -1.5721  0.0747
  171DOPC  H18Z20898  -0.170   0.310  -0.404  1.0366  0.1589 -0.7828
  172DOPC     N20899  -0.784   1.532  -2.103 -0.4403  0.0695  0.1277
  172DOPC   C1220900  -0.796   1.677  -2.143 -0.0531  0.5987  0.1435
  172DOPC  H12A20901  -0.898   1.693  -2.174 -0.1238 -2.4809 -1.5731
  172DOPC  H12B20902  -0.745   1.700  -2.235 -0.9258 -2.0990 -1.1074
  172DOPC   C1320903  -0.831   1.451  -2.216 -0.0847 -0.0715 -0.1283
  172DOPC  H13A20904  -0.773   1.495  -2.296  1.6507 -0.5283  0.8311
  172DOPC  H13B20905  -0.799   1.350  -2.196 -0.3837 -0.2300 -0.4587
  172DOPC  H13C20906  -0.937   1.450  -2.237  0.0500  0.4769 -0.8837
  172DOPC   C1420907  -0.867   1.499  -1.984 -0.2582 -0.2603  0.0494
  172DOPC  H14A20908  -0.971   1.525  -1.993 -0.6414 -1.3916  0.9060
  172DOPC  H14B20909  -0.848   1.399  -1.949  1.1271 -0.6521 -1.7204
  172DOPC  H14C20910  -0.834   1.554  -1.896 -0.0992 -1.2896  0.6517
  172DOPC   C1520911  -0.638   1.497  -2.079 -0.0935  0.1056  0.6312
  172DOPC  H15A20912  -0.576   1.504  -2.167  0.6470 -0.6994  1.0726
  172DOPC  H15B20913  -0.616   1.399  -2.039  3.2709  1.2796  2.0616
  172DOPC  H15C20914  -0.592   1.561  -2.005  0.1161  1.8490 -0.9484
  172DOPC   C1120915  -0.772   1.776  -2.029 -0.2733  0.2011 -0.0439
  172DOPC  H11A20916  -0.679   1.742  -1.978 -0.1455  0.2402 -0.2503
  172DOPC  H11B20917  -0.746   1.873  -2.078 -0.9217  0.7589  0.6947
  172DOPC     P20918  -1.020   1.834  -2.004  0.2928 -0.3455  0.2645
  172DOPC   O1320919  -1.076   1.742  -2.104  0.2777 -0.1519  0.0479
  172DOPC   O1420920  -1.002   1.973  -2.041  0.3210 -0.2161 -0.4422
  172DOPC   O1220921  -0.887   1.787  -1.945  0.6749 -0.2593 -0.0829
  172DOPC   O1120922  -1.120   1.828  -1.879 -0.0415  0.1157  0.0240
  172DOPC    C120923  -1.083   1.856  -1.742  0.2938  0.2101  0.3658
  172DOPC    HA20924  -1.180   1.861  -1.689  0.9295  1.0859  1.4886
  172DOPC    HB20925  -1.046   1.959  -1.722  0.0236 -0.4024  5.0467
  172DOPC    C220926  -1.015   1.730  -1.668  0.5204  0.5634  0.1542
  172DOPC    HS20927  -0.916   1.724  -1.719 -0.6540 -0.0438 -2.2360
  172DOPC   O2120928  -1.108   1.615  -1.693  0.2257  0.1810 -0.1899
  172DOPC   C2120929  -1.042   1.509  -1.660 -0.6895  0.9604 -0.0907
  172DOPC   O2220930  -0.919   1.507  -1.641  0.9165  0.3507 -0.6117
  172DOPC   C2220931  -1.131   1.388  -1.671  0.0276  0.3306  0.5679
  172DOPC   H2R20932  -1.162   1.379  -1.777 -0.8307  0.3610  0.8065
  172DOPC   H2S20933  -1.220   1.405  -1.607  0.6579 -1.0465  1.8760
  172DOPC    C320934  -1.008   1.772  -1.522 -0.1330 -0.6011  0.0760
  172DOPC    HX20935  -0.959   1.695  -1.459  0.3920 -1.5598 -1.4465
  172DOPC    HY20936  -1.111   1.796  -1.488  1.1098 -0.0172  3.7863
  172DOPC   O3120937  -0.937   1.896  -1.492 -0.0560 -0.0345 -0.8935
  172DOPC   C3120938  -0.804   1.887  -1.493 -0.1778 -0.6442  0.6232
  172DOPC   O3220939  -0.741   1.782  -1.506  0.7597 -0.0343 -0.0778
  172DOPC   C3220940  -0.745   2.025  -1.461 -0.2986  0.3272 -0.1574
  172DOPC   H2X20941  -0.637   2.033  -1.487 -0.0695  0.6452  0.8587
  172DOPC   H2Y20942  -0.800   2.088  -1.534 -0.5339  2.3754  1.7100
  172DOPC   C2320943  -1.058   1.260  -1.626 -0.1901  0.6418  0.1989
  172DOPC   H3R20944  -0.959   1.250  -1.674 -1.0395  1.4805 -1.8844
  172DOPC   H3S20945  -1.117   1.172  -1.661  0.9301  0.5368 -1.5785
  172DOPC   C2420946  -1.046   1.257  -1.478 -0.2152  0.4621 -0.1987
  172DOPC   H4R20947  -1.147   1.275  -1.436 -0.8575 -0.7889 -1.1166
  172DOPC   H4S20948  -0.986   1.336  -1.428 -2.0442 -0.3293  3.5696
  172DOPC   C2520949  -0.999   1.116  -1.426  0.2327  0.3258 -0.0231
  172DOPC   H5R20950  -0.898   1.088  -1.463  0.4782  0.4594  0.5242
  172DOPC   H5S20951  -1.064   1.042  -1.476  2.5391 -0.5771 -1.8932
  172DOPC   C2620952  -1.024   1.095  -1.274 -0.0586 -0.6942  0.0856
  172DOPC   H6R20953  -1.047   0.986  -1.269  0.4516 -0.8767 -1.2304
  172DOPC   H6S20954  -1.109   1.154  -1.232  0.6035  0.5672 -0.3081
  172DOPC   C2720955  -0.898   1.112  -1.196  0.4356 -0.2771  0.0606
  172DOPC   H7R20956  -0.856   1.210  -1.227 -1.8624  0.1970 -1.7822
  172DOPC   H7S20957  -0.815   1.039  -1.211  1.6297  0.6437  1.7817
  172DOPC   C2820958  -0.915   1.124  -1.045  0.2482 -0.0655 -0.8260
  172DOPC   H8R20959  -1.015   1.172  -1.040  0.4662  0.6575 -2.7106
  172DOPC   H8S20960  -0.844   1.201  -1.008 -0.0439  1.1867 -2.7355
  172DOPC   C2920961  -0.913   0.982  -0.983  0.4127  0.2775 -0.6286
  172DOPC   H9R20962  -0.974   0.902  -1.028 -0.3438  1.7449 -2.3323
  172DOPC  C21020963  -0.847   0.951  -0.866 -0.4680  0.1556  0.4434
  172DOPC  H10R20964  -0.850   0.847  -0.833 -0.6961  0.4214  1.2783
  172DOPC  C21120965  -0.770   1.037  -0.773  0.1300  0.1224 -0.3366
  172DOPC  H11R20966  -0.772   1.144  -0.803  0.2989 -0.1073 -1.1854
  172DOPC  H11S20967  -0.663   1.010  -0.765  0.1552  0.5946  1.1402
  172DOPC  C21220968  -0.840   1.030  -0.624  0.0405  0.5890  0.2574
  172DOPC  H12R20969  -0.949   1.025  -0.649  0.4608  0.6058 -1.7882
  172DOPC  H12S20970  -0.809   1.119  -0.565 -0.4953  3.0234 -2.8767
  172DOPC  C21320971  -0.784   0.906  -0.549 -0.4232 -0.0262  0.6694
  172DOPC  H13R20972  -0.675   0.927  -0.545 -0.5191  0.9231 -0.8581
  172DOPC  H13S20973  -0.793   0.821  -0.621  1.8611  0.2912 -0.0720
  172DOPC  C21420974  -0.851   0.891  -0.416 -0.1186 -0.2447 -0.1325
  172DOPC  H14R20975  -0.957   0.861  -0.430  0.3803 -1.7660 -0.8183
  172DOPC  H14S20976  -0.840   0.989  -0.365  0.4696  1.1124 -2.7052
  172DOPC  C21520977  -0.772   0.792  -0.324 -0.0864 -0.0874  0.0535
  172DOPC  H15R20978  -0.663   0.815  -0.322 -0.4812  1.9981  1.9195
  172DOPC  H15S20979  -0.786   0.686  -0.354 -1.4938 -0.2597  1.2596
  172DOPC  C21620980  -0.819   0.800  -0.183 -0.3996 -0.2749 -0.6358
  172DOPC  H16R20981  -0.927   0.777  -0.195 -0.1393 -0.3997 -3.1771
  172DOPC  H16S20982  -0.810   0.899  -0.133 -0.5150 -1.1468  1.1723
  172DOPC  C21720983  -0.749   0.694  -0.090  0.0974 -0.5538 -0.4972
  172DOPC  H17R20984  -0.641   0.719  -0.084 -0.2597  0.7397  2.7206
  172DOPC  H17S20985  -0.760   0.597  -0.143  1.0968 -1.7248  1.3211
  172DOPC  C21820986  -0.810   0.679   0.048  0.2663  0.0157  0.5952
  172DOPC  H18R20987  -0.759   0.604   0.112 -1.0680 -4.1856 -2.8190
  172DOPC  H18S20988  -0.912   0.635   0.044  1.2302 -2.3602  0.8170
  172DOPC  H18T20989  -0.829   0.779   0.093 -1.4365 -0.0989  0.1790
  172DOPC   C3320990  -0.787   2.074  -1.321 -0.1884 -1.0794 -0.5600
  172DOPC   H3X20991  -0.897   2.069  -1.308 -0.0337 -1.5236  0.7405
  172DOPC   H3Y20992  -0.756   2.181  -1.322 -0.6144 -0.9460  0.0522
  172DOPC   C3420993  -0.717   2.006  -1.207  0.3532 -0.0337 -0.7153
  172DOPC   H4X20994  -0.617   2.054  -1.210 -0.3963  1.5230 -2.2459
  172DOPC   H4Y20995  -0.707   1.897  -1.225 -2.8941 -0.7463  0.8743
  172DOPC   C3520996  -0.794   2.021  -1.069  0.0170  0.2885 -0.5883
  172DOPC   H5X20997  -0.875   1.945  -1.070  0.0026  0.2987 -1.7407
  172DOPC   H5Y20998  -0.832   2.125  -1.057  1.9281  1.0157 -0.4880
  172DOPC   C3620999  -0.706   1.992  -0.951 -0.7447 -0.0055  0.5416
  172DOPC   H6X21000  -0.665   1.890  -0.962 -1.0278  0.0380 -1.0551
  172DOPC   H6Y21001  -0.628   2.067  -0.927  0.8105 -2.4649  4.0489
  172DOPC   C3721002  -0.795   1.995  -0.826  0.1157  0.0905  0.5803
  172DOPC   H7X21003  -0.852   2.089  -0.811 -0.9990 -0.5373  0.3302
  172DOPC   H7Y21004  -0.874   1.918  -0.833  0.6515 -0.5866  1.6510
  172DOPC   C3821005  -0.727   1.965  -0.695 -0.4389  0.4994 -0.3473
  172DOPC   H8X21006  -0.690   1.861  -0.700 -1.4224  0.0379  1.3378
  172DOPC   H8Y21007  -0.812   1.969  -0.624 -0.5201 -0.4745 -0.3801
  172DOPC   C3921008  -0.628   2.065  -0.654  0.0343 -0.1596 -0.6720
  172DOPC   H9X21009  -0.600   2.133  -0.736  2.4241  1.1549  1.1023
  172DOPC  C31021010  -0.570   2.075  -0.530  0.3531 -0.0065 -0.1149
  172DOPC  H10X21011  -0.511   2.167  -0.523 -0.5752  0.7142 -1.2828
  172DOPC  C31121012  -0.600   1.994  -0.409 -0.0185  0.7963  0.1699
  172DOPC  H11X21013  -0.677   1.918  -0.435  2.2199 -1.2568 -0.8687
  172DOPC  H11Y21014  -0.631   2.078  -0.343  2.2687  2.0756 -0.2548
  172DOPC  C31221015  -0.480   1.910  -0.347  0.2331 -0.6656  0.7383
  172DOPC  H12X21016  -0.429   1.851  -0.426 -1.5171 -0.5508 -0.5232
  172DOPC  H12Y21017  -0.525   1.839  -0.275 -0.9065 -1.8059 -1.0246
  172DOPC  C31321018  -0.388   2.005  -0.270  0.6468  0.6535  0.3308
  172DOPC  H13X21019  -0.303   2.028  -0.338  0.2052 -0.3247 -0.5719
  172DOPC  H13Y21020  -0.433   2.107  -0.262  1.4551  0.9069  1.9990
  172DOPC  C31421021  -0.341   1.971  -0.129  0.6235 -0.3695 -0.1402
  172DOPC  H14X21022  -0.291   1.871  -0.127  0.4157 -0.4697  0.0450
  172DOPC  H14Y21023  -0.262   2.041  -0.095  1.4696 -1.6756  0.6598
  172DOPC  C31521024  -0.457   1.972  -0.022  0.6679  0.8564  0.4413
  172DOPC  H15X21025  -0.531   1.894  -0.049  0.0509  1.9222 -1.0908
  172DOPC  H15Y21026  -0.515   2.067  -0.030 -0.6097  0.1753  1.2525
  172DOPC  C31621027  -0.392   1.957   0.123  0.6421  0.2314  0.8878
  172DOPC  H16X21028  -0.346   1.859   0.147  0.9745  0.4791  1.2889
  172DOPC  H16Y21029  -0.305   2.027   0.128 -0.7460  2.3443 -1.8966
  172DOPC  C31721030  -0.497   1.982   0.228 -0.6521 -0.2324  0.4817
  172DOPC  H17X21031  -0.562   2.072   0.217 -1.6971 -0.9972  0.2055
  172DOPC  H17Y21032  -0.566   1.896   0.214  0.3073 -1.1747  1.3732
  172DOPC  C31821033  -0.450   1.975   0.370  0.5116 -0.4772  0.8477
  172DOPC  H18X21034  -0.536   1.985   0.439 -0.2813  0.2869 -0.2162
  172DOPC  H18Y21035  -0.400   1.877   0.384  0.8041 -0.4067  0.3351
  172DOPC  H18Z21036  -0.379   2.060   0.383 -0.1542  0.3243 -0.5064
  173DOPC     N21037  -1.891  -0.328  -2.579  0.0982 -0.3178  0.0484
  173DOPC   C1221038  -1.899  -0.202  -2.503  0.2834 -0.1219  0.4884
  173DOPC  H12A21039  -1.927  -0.231  -2.402  1.4790 -0.6976  0.6614
  173DOPC  H12B21040  -1.982  -0.141  -2.537  1.0497  0.1477 -0.9494
  173DOPC   C1321041  -1.795  -0.417  -2.505  0.1199  0.9917 -0.0349
  173DOPC  H13A21042  -1.851  -0.447  -2.417  2.6105 -1.8252  0.7411
  173DOPC  H13B21043  -1.796  -0.501  -2.573 -2.3368  0.2181  0.8661
  173DOPC  H13C21044  -1.697  -0.379  -2.480  1.0318 -1.3915  0.2338
  173DOPC   C1421045  -1.825  -0.302  -2.710 -0.0296 -0.1715 -0.8363
  173DOPC  H14A21046  -1.739  -0.245  -2.678  0.7974 -1.7324 -0.1672
  173DOPC  H14B21047  -1.786  -0.393  -2.753 -0.4572 -1.7448  1.8509
  173DOPC  H14C21048  -1.880  -0.238  -2.777 -0.0783 -1.7768 -2.4047
  173DOPC   C1521049  -2.018  -0.394  -2.603  0.1507  0.0746 -0.5631
  173DOPC  H15A21050  -2.077  -0.425  -2.518  0.6396  1.4274  0.3175
  173DOPC  H15B21051  -1.997  -0.486  -2.654  2.1409 -0.5561  1.2238
  173DOPC  H15C21052  -2.084  -0.338  -2.667 -1.6687 -0.4449  0.7655
  173DOPC   C1121053  -1.771  -0.126  -2.486 -0.1208 -0.2849  0.6111
  173DOPC  H11A21054  -1.776  -0.085  -2.382  1.7070 -1.8427  1.3920
  173DOPC  H11B21055  -1.681  -0.192  -2.482  0.7960  0.9902  2.8792
  173DOPC     P21056  -1.852   0.104  -2.570  0.1518 -0.0222  0.1879
  173DOPC   O1321057  -1.986   0.073  -2.625 -0.3065 -0.5390 -0.0206
  173DOPC   O1421058  -1.775   0.222  -2.622  0.7141  0.4906 -0.2291
  173DOPC   O1221059  -1.751  -0.023  -2.580  0.3566 -0.0845 -0.0397
  173DOPC   O1121060  -1.877   0.119  -2.417  0.3389  0.2087  0.3256
  173DOPC    C121061  -1.779   0.158  -2.328 -0.2667 -0.7917  0.3519
  173DOPC    HA21062  -1.785   0.269  -2.333  1.1412 -0.7459 -1.0446
  173DOPC    HB21063  -1.672   0.133  -2.348 -0.5422 -0.9131 -1.0817
  173DOPC    C221064  -1.813   0.126  -2.182  0.2873 -0.8218 -0.2837
  173DOPC    HS21065  -1.770   0.028  -2.152  0.6573 -0.4565  0.4062
  173DOPC   O2121066  -1.955   0.118  -2.164  0.6867  0.3370  0.3231
  173DOPC   C2121067  -2.007  -0.010  -2.176  0.3011 -0.2115 -0.1594
  173DOPC   O2221068  -1.937  -0.110  -2.184  0.1673  0.0946  0.3952
  173DOPC   C2221069  -2.155  -0.008  -2.167 -0.3172 -0.5309  0.5990
  173DOPC   H2R21070  -2.194  -0.087  -2.235 -0.2041  1.2229 -1.6285
  173DOPC   H2S21071  -2.192   0.092  -2.201  1.3114  0.4833  1.6902
  173DOPC    C321072  -1.757   0.232  -2.081 -0.0130  0.3186 -0.3569
  173DOPC    HX21073  -1.816   0.324  -2.097 -0.9284 -0.3737 -1.0028
  173DOPC    HY21074  -1.652   0.237  -2.116  0.3719 -1.5394  0.3573
  173DOPC   O3121075  -1.762   0.190  -1.945  0.1684  0.0327  0.2299
  173DOPC   C3121076  -1.849   0.248  -1.865 -0.2665  0.3761 -0.1407
  173DOPC   O3221077  -1.919   0.345  -1.891  0.4162  0.3415  0.8620
  173DOPC   C3221078  -1.840   0.175  -1.730  0.5967  0.4139  0.2389
  173DOPC   H2X21079  -1.856   0.067  -1.752  0.6472  0.6792 -1.1756
  173DOPC   H2Y21080  -1.739   0.192  -1.689 -0.0702 -1.0152  2.6753
  173DOPC   C2321081  -2.195  -0.039  -2.026 -0.1489 -0.1669 -0.3022
  173DOPC   H3R21082  -2.305  -0.040  -2.010 -0.0892  1.1265  0.2958
  173DOPC   H3S21083  -2.140   0.039  -1.969  1.5778  0.5131 -2.7329
  173DOPC   C2421084  -2.145  -0.176  -1.966  0.0200 -0.6213 -0.2826
  173DOPC   H4R21085  -2.038  -0.162  -1.937 -0.0939 -0.1059 -0.1066
  173DOPC   H4S21086  -2.152  -0.261  -2.038  2.0232 -1.6982  0.6997
  173DOPC   C2521087  -2.216  -0.212  -1.837  0.3361  0.2633  0.2121
  173DOPC   H5R21088  -2.161  -0.300  -1.797  0.6165 -0.4426 -1.6309
  173DOPC   H5S21089  -2.325  -0.231  -1.845 -0.7691  3.9397  3.4249
  173DOPC   C2621090  -2.206  -0.089  -1.737  0.3815  0.0100 -0.2125
  173DOPC   H6R21091  -2.266  -0.012  -1.790 -0.7467  0.4115  1.5547
  173DOPC   H6S21092  -2.101  -0.055  -1.727  0.3464 -0.0525  0.4702
  173DOPC   C2721093  -2.267  -0.124  -1.599  0.0150  0.3124  0.0771
  173DOPC   H7R21094  -2.367  -0.159  -1.631  0.0362  1.9400 -1.9521
  173DOPC   H7S21095  -2.289  -0.035  -1.537 -3.7506 -0.1386 -0.3745
  173DOPC   C2821096  -2.206  -0.228  -1.509 -0.3295 -0.0085  0.4823
  173DOPC   H8R21097  -2.201  -0.321  -1.569 -0.5946  0.4640 -0.2943
  173DOPC   H8S21098  -2.268  -0.250  -1.419  1.7116 -2.2985  1.4233
  173DOPC   C2921099  -2.067  -0.188  -1.465 -0.3035 -0.2271 -0.0166
  173DOPC   H9R21100  -1.989  -0.198  -1.542  2.0796  3.1205  1.7150
  173DOPC  C21021101  -2.025  -0.137  -1.348 -0.3234  0.3697 -0.5089
  173DOPC  H10R21102  -1.919  -0.108  -1.342 -0.4695  0.7716  0.4397
  173DOPC  C21121103  -2.111  -0.107  -1.220 -0.1114  0.6424 -0.0844
  173DOPC  H11R21104  -2.220  -0.118  -1.238 -0.2203 -0.1093  0.9840
  173DOPC  H11S21105  -2.088  -0.003  -1.186  2.2974  0.0973  0.1673
  173DOPC  C21221106  -2.087  -0.196  -1.103 -0.2740  0.6929 -0.3479
  173DOPC  H12R21107  -1.989  -0.172  -1.057 -0.2949 -0.6025  0.3993
  173DOPC  H12S21108  -2.086  -0.303  -1.133 -1.0628  1.1365 -2.1059
  173DOPC  C21321109  -2.183  -0.195  -0.982  0.3263 -0.5171 -0.1179
  173DOPC  H13R21110  -2.279  -0.247  -1.005 -0.6624  1.3289 -0.3254
  173DOPC  H13S21111  -2.199  -0.089  -0.956 -0.7479 -0.7410  0.1910
  173DOPC  C21421112  -2.125  -0.259  -0.853  0.0128 -0.0425  0.3438
  173DOPC  H14R21113  -2.025  -0.211  -0.843 -0.8455  1.7383  0.7195
  173DOPC  H14S21114  -2.125  -0.369  -0.868 -0.3510 -0.4883  3.0490
  173DOPC  C21521115  -2.206  -0.230  -0.727  0.0761 -0.1920 -0.4560
  173DOPC  H15R21116  -2.207  -0.120  -0.714  0.2407 -0.3061  0.6855
  173DOPC  H15S21117  -2.143  -0.264  -0.642  3.0001 -0.0852 -2.4487
  173DOPC  C21621118  -2.344  -0.295  -0.724  1.0054 -0.4702  0.5124
  173DOPC  H16R21119  -2.324  -0.401  -0.750 -2.0800 -0.5838 -1.9815
  173DOPC  H16S21120  -2.415  -0.253  -0.798  0.7750 -1.2440  0.2922
  173DOPC  C21721121  -2.411  -0.288  -0.584 -0.0705 -0.1674 -0.1861
  173DOPC  H17R21122  -2.328  -0.308  -0.513 -0.8102 -1.5872  0.3165
  173DOPC  H17S21123  -2.495  -0.359  -0.566 -1.5562  1.4726 -0.4057
  173DOPC  C21821124  -2.464  -0.147  -0.538  0.3586  0.1848  0.1674
  173DOPC  H18R21125  -2.555  -0.131  -0.599 -0.5606 -1.1675  1.1081
  173DOPC  H18S21126  -2.386  -0.076  -0.572  0.2464 -0.2270 -0.9820
  173DOPC  H18T21127  -2.486  -0.154  -0.429  2.4337 -0.9937  0.5628
  173DOPC   C3321128  -1.926   0.227  -1.613  0.7891 -0.0811 -0.0273
  173DOPC   H3X21129  -2.028   0.186  -1.624  1.1177 -1.6075  2.0787
  173DOPC   H3Y21130  -1.937   0.337  -1.621  2.3509  0.0680 -0.6857
  173DOPC   C3421131  -1.863   0.191  -1.472  0.6118 -0.0836  0.7281
  173DOPC   H4X21132  -1.771   0.250  -1.452  1.2676 -0.4696 -1.0266
  173DOPC   H4Y21133  -1.831   0.085  -1.484  2.2080  0.4651 -0.1282
  173DOPC   C3521134  -1.957   0.218  -1.360 -0.2457 -0.2116 -0.3658
  173DOPC   H5X21135  -2.053   0.161  -1.358 -0.2299 -0.2590 -0.8767
  173DOPC   H5Y21136  -1.981   0.326  -1.365 -1.0496 -0.4142 -1.1727
  173DOPC   C3621137  -1.878   0.199  -1.228 -0.5887 -0.0593  0.5695
  173DOPC   H6X21138  -1.863   0.090  -1.214  3.9395  0.0823 -1.2695
  173DOPC   H6Y21139  -1.785   0.254  -1.253 -0.8323  0.7882  1.4867
  173DOPC   C3721140  -1.943   0.262  -1.100  0.6152 -0.2972 -0.6263
  173DOPC   H7X21141  -1.968   0.366  -1.129  2.2711  0.1210 -0.6639
  173DOPC   H7Y21142  -2.029   0.199  -1.068  0.8304 -0.0482  0.4799
  173DOPC   C3821143  -1.849   0.272  -0.977  0.0160  0.2526  0.0187
  173DOPC   H8X21144  -1.770   0.336  -1.021 -0.9392  0.4135 -1.5561
  173DOPC   H8Y21145  -1.805   0.174  -0.948  0.3014 -0.0834 -1.4463
  173DOPC   C3921146  -1.917   0.322  -0.851 -0.6390 -0.5637 -0.1136
  173DOPC   H9X21147  -1.985   0.406  -0.870  0.4044  0.2207 -0.4609
  173DOPC  C31021148  -1.909   0.270  -0.728 -0.2592  0.2312  0.3320
  173DOPC  H10X21149  -1.956   0.327  -0.647 -0.6623  0.8588 -0.3341
  173DOPC  C31121150  -1.839   0.158  -0.662 -0.4599  0.1067 -0.0360
  173DOPC  H11X21151  -1.775   0.182  -0.575 -2.4610  1.4412  1.1579
  173DOPC  H11Y21152  -1.784   0.103  -0.741 -0.7428 -2.0455  1.1753
  173DOPC  C31221153  -1.938   0.053  -0.611 -0.6120 -0.1575 -0.0217
  173DOPC  H12X21154  -1.863  -0.020  -0.575  1.6686  1.8986 -0.3309
  173DOPC  H12Y21155  -1.995   0.005  -0.693  0.3800 -0.6924 -0.4176
  173DOPC  C31321156  -2.025   0.100  -0.494  0.3271  0.5243  0.6873
  173DOPC  H13X21157  -1.955   0.136  -0.416  1.1336 -1.4758  0.9425
  173DOPC  H13Y21158  -2.084   0.183  -0.537  0.7320  0.0472 -0.8479
  173DOPC  C31421159  -2.112  -0.006  -0.433  0.0481 -0.2983  0.2304
  173DOPC  H14X21160  -2.168   0.049  -0.355  0.9259  1.5081 -0.3523
  173DOPC  H14Y21161  -2.195  -0.037  -0.500 -0.7869  1.1232  0.5619
  173DOPC  C31521162  -2.029  -0.125  -0.378 -0.4228 -0.5134 -0.6356
  173DOPC  H15X21163  -1.943  -0.083  -0.323 -2.5590  2.8103  0.4486
  173DOPC  H15Y21164  -1.993  -0.184  -0.466  0.2909 -1.2019  0.0981
  173DOPC  C31621165  -2.113  -0.219  -0.290  0.4268  0.3142  0.6296
  173DOPC  H16X21166  -2.135  -0.179  -0.189  0.4957  0.1535  0.7092
  173DOPC  H16Y21167  -2.205  -0.248  -0.345  0.1482  0.7332  0.8784
  173DOPC  C31721168  -2.042  -0.354  -0.263  0.6777  0.2854  0.3895
  173DOPC  H17X21169  -2.123  -0.416  -0.219  1.5870 -0.7861  0.5744
  173DOPC  H17Y21170  -2.005  -0.398  -0.358 -2.0409 -0.4579 -0.4349
  173DOPC  C31821171  -1.926  -0.358  -0.169  0.1378 -0.4150 -0.1074
  173DOPC  H18X21172  -1.857  -0.445  -0.176  0.2400 -0.3863  0.4791
  173DOPC  H18Y21173  -1.858  -0.274  -0.195 -0.5280 -0.0936 -0.8473
  173DOPC  H18Z21174  -1.970  -0.343  -0.068 -0.8286  0.5218 -0.6510
  174DOPC     N21175   0.358  -1.101  -3.153  1.3169 -0.3979  0.6907
  174DOPC   C1221176   0.267  -1.160  -3.047  0.1899  0.5686  0.0447
  174DOPC  H12A21177   0.252  -1.267  -3.056 -0.5800  0.5917  0.9082
  174DOPC  H12B21178   0.169  -1.116  -3.044 -0.2288 -0.3172 -0.0980
  174DOPC   C1321179   0.500  -1.160  -3.152  0.9805  0.9192  0.0879
  174DOPC  H13A21180   0.544  -1.170  -3.054  2.2640  0.8576 -0.4778
  174DOPC  H13B21181   0.491  -1.261  -3.189 -2.0306  1.1254  0.0013
  174DOPC  H13C21182   0.566  -1.099  -3.212  1.4849  1.7844  1.4912
  174DOPC   C1421183   0.374  -0.955  -3.127  0.3768  0.7845  0.4199
  174DOPC  H14A21184   0.285  -0.902  -3.157 -0.9720 -0.7735  1.4808
  174DOPC  H14B21185   0.406  -0.930  -3.027 -0.6584  0.6102  0.8097
  174DOPC  H14C21186   0.454  -0.927  -3.194  0.4228 -1.4046 -0.5009
  174DOPC   C1521187   0.313  -1.121  -3.297 -0.0027  0.0479 -0.1988
  174DOPC  H15A21188   0.287  -1.224  -3.316 -0.2166 -0.0565  0.6003
  174DOPC  H15B21189   0.393  -1.099  -3.366 -0.9632 -0.6999 -1.5982
  174DOPC  H15C21190   0.227  -1.062  -3.322 -1.0821 -1.1084  0.6596
  174DOPC   C1121191   0.312  -1.145  -2.898 -0.5267  0.3040 -0.1775
  174DOPC  H11A21192   0.333  -1.037  -2.882  1.9498 -0.2563  0.7988
  174DOPC  H11B21193   0.229  -1.173  -2.830 -0.1198 -0.8886 -0.1487
  174DOPC     P21194   0.432  -1.366  -2.845 -0.2254  0.2307 -0.0019
  174DOPC   O1321195   0.566  -1.412  -2.803  0.2158  0.6741 -0.0548
  174DOPC   O1421196   0.362  -1.438  -2.959 -0.4955 -0.7335  0.0680
  174DOPC   O1221197   0.433  -1.216  -2.871  0.1232 -0.0293  0.1117
  174DOPC   O1121198   0.335  -1.369  -2.711 -0.2288  0.2044  0.1271
  174DOPC    C121199   0.357  -1.477  -2.623  0.1493  0.6734  0.3821
  174DOPC    HA21200   0.398  -1.570  -2.667 -1.2453 -0.2165  0.8605
  174DOPC    HB21201   0.255  -1.504  -2.586  0.4612 -0.2679  0.5881
  174DOPC    C221202   0.425  -1.441  -2.488 -0.0326 -0.1133  0.6082
  174DOPC    HS21203   0.417  -1.534  -2.427 -1.8825 -1.8529 -2.1003
  174DOPC   O2121204   0.354  -1.325  -2.441 -0.3960  0.1672  0.4330
  174DOPC   C2121205   0.255  -1.346  -2.362  0.4409  0.2001 -0.1901
  174DOPC   O2221206   0.206  -1.452  -2.327  0.4160 -0.5609  1.0890
  174DOPC   C2221207   0.210  -1.212  -2.298 -0.4005  0.2263 -0.3301
  174DOPC   H2R21208   0.101  -1.224  -2.284  0.0228 -3.3070  0.8402
  174DOPC   H2S21209   0.220  -1.121  -2.361  0.4757  1.0969  1.0148
  174DOPC    C321210   0.577  -1.407  -2.497  0.1056  0.5540  0.1392
  174DOPC    HX21211   0.580  -1.314  -2.559 -0.4949 -0.2526 -1.1222
  174DOPC    HY21212   0.619  -1.481  -2.568 -0.8370  0.3544 -0.2154
  174DOPC   O3121213   0.632  -1.404  -2.360 -0.4343 -0.2829  0.0868
  174DOPC   C3121214   0.765  -1.372  -2.366  0.5976  0.0454  0.4475
  174DOPC   O3221215   0.828  -1.371  -2.472  0.5971  0.2517  0.5138
  174DOPC   C3221216   0.817  -1.335  -2.231  0.1440  0.6578  0.0760
  174DOPC   H2X21217   0.747  -1.260  -2.187 -1.0829  0.1661 -0.9627
  174DOPC   H2Y21218   0.814  -1.425  -2.166 -0.4862 -0.7923 -1.8683
  174DOPC   C2321219   0.282  -1.189  -2.160 -0.1275  0.7080  0.2777
  174DOPC   H3R21220   0.265  -1.083  -2.131 -2.1440  0.2885  0.7617
  174DOPC   H3S21221   0.389  -1.215  -2.170 -0.9783 -2.4122 -2.6188
  174DOPC   C2421222   0.227  -1.278  -2.048 -0.2740 -0.4703 -0.4361
  174DOPC   H4R21223   0.252  -1.383  -2.077 -0.1633 -0.0106 -2.1036
  174DOPC   H4S21224   0.119  -1.261  -2.032  0.1086 -0.0034  2.1787
  174DOPC   C2521225   0.295  -1.231  -1.914  1.0803 -0.2552 -0.3922
  174DOPC   H5R21226   0.285  -1.122  -1.898 -0.2024 -0.3265 -0.6086
  174DOPC   H5S21227   0.403  -1.254  -1.920  1.1147 -0.4316  0.6390
  174DOPC   C2621228   0.234  -1.290  -1.785 -0.4559 -0.0943  0.1659
  174DOPC   H6R21229   0.236  -1.401  -1.791 -0.9656 -0.0490 -1.1327
  174DOPC   H6S21230   0.125  -1.270  -1.786 -0.3885  0.2647 -0.2076
  174DOPC   C2721231   0.299  -1.231  -1.665 -0.0021  0.3501  0.0138
  174DOPC   H7R21232   0.310  -1.122  -1.682  0.3452  0.1728 -0.9538
  174DOPC   H7S21233   0.399  -1.277  -1.653  0.9511  2.4732  0.6696
  174DOPC   C2821234   0.228  -1.262  -1.532  0.1988  0.6158 -0.1292
  174DOPC   H8R21235   0.128  -1.215  -1.533 -1.2059 -2.1492  0.6506
  174DOPC   H8S21236   0.283  -1.204  -1.455  1.7170 -1.9545  0.8653
  174DOPC   C2921237   0.239  -1.405  -1.493 -0.5759  0.4472 -0.0175
  174DOPC   H9R21238   0.246  -1.472  -1.580  2.3297  1.6739 -0.8418
  174DOPC  C21021239   0.251  -1.447  -1.367 -0.6450  0.4962 -0.6924
  174DOPC  H10R21240   0.266  -1.556  -1.354 -0.4033  0.5415 -0.5805
  174DOPC  C21121241   0.252  -1.370  -1.238 -0.0770  0.0276  0.2734
  174DOPC  H11R21242   0.161  -1.306  -1.233 -0.8318 -1.1169  2.7599
  174DOPC  H11S21243   0.334  -1.295  -1.238 -0.8298  0.9023 -1.0424
  174DOPC  C21221244   0.258  -1.454  -1.107 -0.6739 -0.0736 -0.0850
  174DOPC  H12R21245   0.345  -1.523  -1.106  0.3785  1.2032  1.3558
  174DOPC  H12S21246   0.165  -1.514  -1.113 -0.4525 -0.3066 -1.6177
  174DOPC  C21321247   0.257  -1.367  -0.987 -0.3283 -0.2809  0.1717
  174DOPC  H13R21248   0.168  -1.301  -0.991  0.1113  0.2602 -0.9936
  174DOPC  H13S21249   0.345  -1.299  -0.993  0.3617 -1.3158 -2.5433
  174DOPC  C21421250   0.252  -1.450  -0.861 -0.3446  0.0473 -0.2810
  174DOPC  H14R21251   0.333  -1.525  -0.870 -0.2167  0.1792 -0.2395
  174DOPC  H14S21252   0.167  -1.521  -0.857  0.2470 -0.7185 -1.0220
  174DOPC  C21521253   0.271  -1.387  -0.730  0.5807  0.1175 -0.7636
  174DOPC  H15R21254   0.352  -1.311  -0.723 -0.6346  1.6089 -2.1056
  174DOPC  H15S21255   0.307  -1.470  -0.665  2.4763  2.0906  0.8905
  174DOPC  C21621256   0.144  -1.329  -0.679  0.3205 -0.1431  0.8075
  174DOPC  H16R21257   0.111  -1.238  -0.733 -0.6097 -0.9722 -0.0658
  174DOPC  H16S21258   0.173  -1.283  -0.583  2.8687 -1.9632  1.0227
  174DOPC  C21721259   0.024  -1.421  -0.653 -0.0017 -0.2106 -0.2546
  174DOPC  H17R21260  -0.031  -1.457  -0.742 -3.4280  3.1661  0.2374
  174DOPC  H17S21261  -0.048  -1.352  -0.603 -2.6028 -2.8976  0.0423
  174DOPC  C21821262   0.051  -1.533  -0.555  0.4340  0.1184 -0.2340
  174DOPC  H18R21263   0.124  -1.596  -0.611 -0.0270 -0.7261  0.0845
  174DOPC  H18S21264  -0.038  -1.600  -0.549  1.1588 -0.8087  0.6038
  174DOPC  H18T21265   0.073  -1.502  -0.451  1.2958 -1.7621  0.1954
  174DOPC   C3321266   0.961  -1.286  -2.236 -0.1016 -0.1231 -0.4381
  174DOPC   H3X21267   0.980  -1.218  -2.321  0.6431  1.2579  0.7821
  174DOPC   H3Y21268   1.033  -1.365  -2.264 -0.9902 -0.9300 -0.5177
  174DOPC   C3421269   1.000  -1.201  -2.117 -0.2528 -0.0853 -0.3015
  174DOPC   H4X21270   0.958  -1.098  -2.122  1.2115  0.5062 -0.9880
  174DOPC   H4Y21271   1.109  -1.186  -2.134 -0.1435 -0.0361  0.3978
  174DOPC   C3521272   0.959  -1.264  -1.981 -0.5250  0.5758 -0.0597
  174DOPC   H5X21273   1.016  -1.359  -1.983 -2.6236 -0.7487 -2.5839
  174DOPC   H5Y21274   0.850  -1.281  -1.976 -0.8054  2.4022  1.0020
  174DOPC   C3621275   1.000  -1.198  -1.850 -0.0715 -0.5774  0.9051
  174DOPC   H6X21276   1.107  -1.168  -1.852  0.3067 -1.7981  1.9331
  174DOPC   H6Y21277   0.945  -1.103  -1.835  0.1814 -0.0600 -1.0473
  174DOPC   C3721278   0.962  -1.282  -1.725  0.5997  0.7284 -0.8413
  174DOPC   H7X21279   0.852  -1.291  -1.735  0.2062  3.4992 -0.0329
  174DOPC   H7Y21280   1.010  -1.382  -1.734 -0.7085 -0.2677  2.1846
  174DOPC   C3821281   1.005  -1.228  -1.590 -0.2265  0.4061  0.5932
  174DOPC   H8X21282   0.943  -1.277  -1.512 -2.2323 -2.0439 -2.3254
  174DOPC   H8Y21283   0.981  -1.122  -1.571 -2.4442  0.1633 -0.5140
  174DOPC   C3921284   1.152  -1.252  -1.573  0.1769 -0.3733  0.8439
  174DOPC   H9X21285   1.208  -1.172  -1.623  0.1956 -1.2014 -0.5087
  174DOPC  C31021286   1.214  -1.323  -1.477  0.1929 -0.1177  0.3143
  174DOPC  H10X21287   1.324  -1.323  -1.477  0.2004 -1.5403  0.4638
  174DOPC  C31121288   1.154  -1.409  -1.370  0.3729  0.2319  0.2351
  174DOPC  H11X21289   1.216  -1.499  -1.349 -1.9697 -1.5002  0.0666
  174DOPC  H11Y21290   1.048  -1.428  -1.395  0.5100  0.8336 -0.8900
  174DOPC  C31221291   1.158  -1.329  -1.236 -0.0181 -0.1997 -0.4106
  174DOPC  H12X21292   1.085  -1.249  -1.256  1.1868  0.2479 -3.5813
  174DOPC  H12Y21293   1.254  -1.275  -1.218  0.0368 -0.2400 -0.5809
  174DOPC  C31321294   1.120  -1.408  -1.114  0.0741  0.2282  0.5564
  174DOPC  H13X21295   1.015  -1.445  -1.110  0.5103 -0.9760  1.2759
  174DOPC  H13Y21296   1.172  -1.506  -1.116  1.2649  0.8396 -1.7076
  174DOPC  C31421297   1.143  -1.340  -0.977  0.2523  0.5513 -0.1900
  174DOPC  H14X21298   1.247  -1.302  -0.967  0.5605 -0.3765  0.2285
  174DOPC  H14Y21299   1.076  -1.252  -0.975 -1.3124 -0.4893 -2.3606
  174DOPC  C31521300   1.100  -1.436  -0.864 -0.6225 -0.0192  0.3624
  174DOPC  H15X21301   1.183  -1.507  -0.843 -0.7860 -0.3954 -0.2363
  174DOPC  H15Y21302   1.017  -1.504  -0.894  1.2083 -2.3555  0.2473
  174DOPC  C31621303   1.075  -1.372  -0.724  0.6878 -0.0198 -0.3090
  174DOPC  H16X21304   1.169  -1.316  -0.703  0.7486 -0.3210  0.2298
  174DOPC  H16Y21305   0.989  -1.303  -0.733 -1.1040 -2.3048 -2.2535
  174DOPC  C31721306   1.055  -1.479  -0.614  0.2037 -0.1214  0.2722
  174DOPC  H17X21307   0.981  -1.547  -0.661  1.6230 -1.3204 -0.3221
  174DOPC  H17Y21308   1.150  -1.536  -0.608  0.8218  0.5807 -1.8147
  174DOPC  C31821309   0.996  -1.426  -0.482 -0.4835 -0.8523 -0.1424
  174DOPC  H18X21310   1.077  -1.383  -0.419 -1.8275  1.5201  0.0832
  174DOPC  H18Y21311   0.919  -1.348  -0.499 -0.9064 -1.3130 -0.3691
  174DOPC  H18Z21312   0.945  -1.512  -0.434 -0.1476 -0.1572  1.5208
  175DOPC     N21313  -1.009  -2.973  -2.357 -0.4099 -0.5502  0.6284
  175DOPC   C1221314  -0.865  -2.969  -2.297  0.4142 -0.5130  0.8520
  175DOPC  H12A21315  -0.856  -2.876  -2.243  1.3288 -0.3366  0.4078
  175DOPC  H12B21316  -0.791  -2.961  -2.375  1.5682 -1.4532  1.8078
  175DOPC   C1321317  -1.117  -2.988  -2.260  0.9806  0.3476  0.6536
  175DOPC  H13A21318  -1.112  -3.066  -2.186  0.1358  0.9181  1.3250
  175DOPC  H13B21319  -1.126  -2.904  -2.192  1.6889 -0.8413  2.2933
  175DOPC  H13C21320  -1.215  -2.991  -2.306  1.0241  0.1352  0.5759
  175DOPC   C1421321  -1.018  -3.089  -2.454 -0.1610  0.1690 -0.5817
  175DOPC  H14A21322  -0.991  -3.181  -2.406 -3.0479 -0.7436 -0.4999
  175DOPC  H14B21323  -1.122  -3.087  -2.485 -0.5066 -0.1926  0.4869
  175DOPC  H14C21324  -0.951  -3.078  -2.537  2.8505 -0.7100  1.5752
  175DOPC   C1521325  -1.036  -2.851  -2.436  0.1144 -0.2979 -0.6066
  175DOPC  H15A21326  -0.960  -2.836  -2.512  0.4035  0.9033 -0.1182
  175DOPC  H15B21327  -1.017  -2.767  -2.371 -1.4871 -0.0803 -0.3829
  175DOPC  H15C21328  -1.136  -2.849  -2.477 -0.4980  0.5649  0.8484
  175DOPC   C1121329  -0.823  -3.090  -2.205 -0.0407 -0.4967  0.1632
  175DOPC  H11A21330  -0.716  -3.076  -2.177 -0.5638 -0.7819  2.4742
  175DOPC  H11B21331  -0.884  -3.081  -2.113 -0.9366  0.3944 -0.4917
  175DOPC     P21332  -0.724  -3.272  -2.359 -0.1562 -0.5600 -0.1007
  175DOPC   O1321333  -0.645  -3.158  -2.423  0.3069  0.4837 -0.1520
  175DOPC   O1421334  -0.769  -3.375  -2.453  0.3532  0.0329  0.3046
  175DOPC   O1221335  -0.840  -3.214  -2.279  0.2491 -0.2859 -0.0224
  175DOPC   O1121336  -0.637  -3.341  -2.250  0.0817  0.6114  0.1884
  175DOPC    C121337  -0.668  -3.474  -2.207  0.4065  0.1049  0.2665
  175DOPC    HA21338  -0.570  -3.525  -2.193 -1.1587 -2.9301  1.0102
  175DOPC    HB21339  -0.734  -3.530  -2.278 -1.1001  2.3266 -0.1750
  175DOPC    C221340  -0.749  -3.473  -2.066 -0.0436 -0.0777  0.7438
  175DOPC    HS21341  -0.840  -3.412  -2.082 -0.7759 -1.1774  0.6048
  175DOPC   O2121342  -0.661  -3.419  -1.967 -0.5811  0.0569  0.4789
  175DOPC   C2121343  -0.693  -3.308  -1.905  0.1626 -0.7648  0.2969
  175DOPC   O2221344  -0.804  -3.251  -1.924 -0.0963 -0.4704 -0.6667
  175DOPC   C2221345  -0.590  -3.265  -1.807  0.0609  0.5483  0.7241
  175DOPC   H2R21346  -0.591  -3.154  -1.799 -0.4438  0.8721 -2.6063
  175DOPC   H2S21347  -0.493  -3.299  -1.851 -0.6824 -0.0752 -0.4788
  175DOPC    C321348  -0.790  -3.622  -2.022  0.5967 -0.6193  0.2488
  175DOPC    HX21349  -0.695  -3.674  -1.999  1.6316  1.2660  0.4000
  175DOPC    HY21350  -0.853  -3.672  -2.099 -1.3789  0.9629  0.7249
  175DOPC   O3121351  -0.858  -3.610  -1.888  0.2559  0.2329 -0.1854
  175DOPC   C3121352  -0.993  -3.582  -1.893  0.1456 -0.4859 -0.3501
  175DOPC   O3221353  -1.062  -3.590  -1.993  0.4624 -0.6867 -0.1070
  175DOPC   C3221354  -1.044  -3.551  -1.756 -0.7879 -0.0359 -0.0696
  175DOPC   H2X21355  -1.154  -3.568  -1.752 -0.8693  0.6374  0.9656
  175DOPC   H2Y21356  -0.990  -3.610  -1.678 -0.9813  0.2087  0.2513
  175DOPC   C2321357  -0.629  -3.317  -1.671 -0.7141  0.0565 -0.2872
  175DOPC   H3R21358  -0.684  -3.414  -1.673  0.2732 -0.5209 -0.9804
  175DOPC   H3S21359  -0.668  -3.228  -1.618 -0.4652 -0.4834  0.8207
  175DOPC   C2421360  -0.499  -3.361  -1.608 -0.1382  0.0265 -0.0327
  175DOPC   H4R21361  -0.436  -3.273  -1.582  0.2404 -0.1052 -0.5023
  175DOPC   H4S21362  -0.455  -3.438  -1.674 -2.1262 -1.7689  0.6168
  175DOPC   C2521363  -0.533  -3.431  -1.478  0.2961 -0.3163  0.3038
  175DOPC   H5R21364  -0.438  -3.473  -1.439  0.5940  0.2853  0.2475
  175DOPC   H5S21365  -0.603  -3.517  -1.476 -1.7156  1.2542 -0.0313
  175DOPC   C2621366  -0.579  -3.330  -1.373 -0.1387 -0.4598 -0.6602
  175DOPC   H6R21367  -0.676  -3.289  -1.409 -0.9892 -1.2542  0.6392
  175DOPC   H6S21368  -0.511  -3.242  -1.374  1.1715 -1.4245  0.2184
  175DOPC   C2721369  -0.578  -3.370  -1.226 -0.5129  0.0604  0.1616
  175DOPC   H7R21370  -0.470  -3.389  -1.208 -0.1261 -0.8856 -2.6759
  175DOPC   H7S21371  -0.635  -3.464  -1.214 -2.3280  1.1541  0.5540
  175DOPC   C2821372  -0.624  -3.261  -1.128  0.1255 -1.2832  0.5180
  175DOPC   H8R21373  -0.720  -3.227  -1.172  1.1699 -1.0333 -1.6616
  175DOPC   H8S21374  -0.556  -3.173  -1.139 -0.4725 -0.7385  1.0620
  175DOPC   C2921375  -0.657  -3.301  -0.988  0.2848 -0.2561 -0.5370
  175DOPC   H9R21376  -0.736  -3.378  -0.988  1.0106 -1.0215 -1.5165
  175DOPC  C21021377  -0.589  -3.277  -0.873  0.1091  0.0566 -0.1903
  175DOPC  H10R21378  -0.637  -3.306  -0.778 -0.7020  0.7134 -0.3889
  175DOPC  C21121379  -0.457  -3.207  -0.857 -0.4697  0.5207 -0.0551
  175DOPC  H11R21380  -0.400  -3.194  -0.951 -0.0491 -1.5901 -0.1448
  175DOPC  H11S21381  -0.389  -3.279  -0.805 -0.4286 -0.9927 -2.0755
  175DOPC  C21221382  -0.447  -3.070  -0.789 -0.1517 -0.0293 -0.2703
  175DOPC  H12R21383  -0.504  -3.000  -0.855 -1.5503 -0.7030  0.2016
  175DOPC  H12S21384  -0.339  -3.046  -0.799 -0.1812 -0.7232 -3.0347
  175DOPC  C21321385  -0.507  -3.066  -0.647  0.9693 -0.1412  0.2414
  175DOPC  H13R21386  -0.616  -3.088  -0.640  0.9102  0.4602  1.6890
  175DOPC  H13S21387  -0.500  -2.963  -0.606  0.4460 -0.1186  0.2862
  175DOPC  C21421388  -0.438  -3.172  -0.553  0.4739 -1.3830 -0.0612
  175DOPC  H14R21389  -0.329  -3.148  -0.550  0.2610 -0.3869  0.0661
  175DOPC  H14S21390  -0.460  -3.271  -0.597 -2.5180 -1.8823  2.2422
  175DOPC  C21521391  -0.501  -3.176  -0.412  0.3507  0.5299 -0.2056
  175DOPC  H15R21392  -0.609  -3.204  -0.410 -0.4773  3.4351  0.2018
  175DOPC  H15S21393  -0.504  -3.074  -0.368 -2.6374  0.6015 -0.3464
  175DOPC  C21621394  -0.443  -3.278  -0.323  0.5151 -0.3037 -0.6595
  175DOPC  H16R21395  -0.457  -3.383  -0.354  0.3832 -0.6248  0.4364
  175DOPC  H16S21396  -0.494  -3.283  -0.224 -0.0054  3.0984 -0.6215
  175DOPC  C21721397  -0.290  -3.246  -0.294 -0.1698  0.1998  0.1507
  175DOPC  H17R21398  -0.284  -3.144  -0.250 -0.5090 -0.7962  2.6806
  175DOPC  H17S21399  -0.238  -3.247  -0.393 -1.7059  0.3282 -0.6883
  175DOPC  C21821400  -0.227  -3.335  -0.188 -0.1303  0.1376 -0.1423
  175DOPC  H18R21401  -0.246  -3.441  -0.216  0.1529 -0.1149  0.6017
  175DOPC  H18S21402  -0.271  -3.318  -0.087 -0.3340  0.7866 -0.3372
  175DOPC  H18T21403  -0.117  -3.328  -0.173 -0.0039 -0.0049 -0.9702
  175DOPC   C3321404  -1.010  -3.413  -1.707  0.1278 -0.1652 -0.5552
  175DOPC   H3X21405  -1.045  -3.339  -1.782  0.8966  0.3118 -0.4544
  175DOPC   H3Y21406  -0.900  -3.404  -1.702  0.0545  0.1203  1.0536
  175DOPC   C3421407  -1.077  -3.368  -1.575 -0.0847  0.1859 -0.4397
  175DOPC   H4X21408  -1.187  -3.379  -1.576 -0.2569  1.0561  2.0171
  175DOPC   H4Y21409  -1.057  -3.259  -1.564  1.9930 -0.2315  0.3404
  175DOPC   C3521410  -1.021  -3.452  -1.454 -0.5611 -0.1372 -0.1433
  175DOPC   H5X21411  -0.914  -3.423  -1.450 -0.2843 -0.6137 -2.6833
  175DOPC   H5Y21412  -1.038  -3.561  -1.465  0.7625 -0.4361  0.4924
  175DOPC   C3621413  -1.074  -3.421  -1.313 -0.6142 -0.2533 -0.2287
  175DOPC   H6X21414  -1.184  -3.410  -1.317 -0.3786  2.3116 -1.8829
  175DOPC   H6Y21415  -1.054  -3.506  -1.245 -0.8016  0.1416  0.3232
  175DOPC   C3721416  -1.015  -3.287  -1.255 -0.2725 -0.0673  0.0356
  175DOPC   H7X21417  -0.905  -3.304  -1.257  0.0151  1.5321 -2.1779
  175DOPC   H7Y21418  -1.036  -3.205  -1.328 -0.2740  1.1852  1.4082
  175DOPC   C3821419  -1.054  -3.254  -1.111  0.3269 -0.4406 -0.0796
  175DOPC   H8X21420  -1.161  -3.224  -1.113  1.1467  3.0369  0.9768
  175DOPC   H8Y21421  -1.004  -3.158  -1.086 -2.0792  0.7836  0.3553
  175DOPC   C3921422  -1.029  -3.353  -1.008 -0.7644  0.0994  0.1450
  175DOPC   H9X21423  -1.026  -3.457  -1.042 -1.0558  0.2950 -0.4910
  175DOPC  C31021424  -1.014  -3.331  -0.879 -0.6223 -0.8623  0.0283
  175DOPC  H10X21425  -0.994  -3.413  -0.808  0.9413 -0.3233  0.2503
  175DOPC  C31121426  -1.008  -3.191  -0.817 -0.2027  0.1204 -0.5707
  175DOPC  H11X21427  -1.041  -3.108  -0.884 -1.6766 -0.9151 -1.1970
  175DOPC  H11Y21428  -0.901  -3.176  -0.792 -0.5333  3.3084 -0.6284
  175DOPC  C31221429  -1.090  -3.164  -0.691  0.2139 -0.5467 -0.3916
  175DOPC  H12X21430  -1.191  -3.212  -0.696 -0.1299  0.1639 -0.3946
  175DOPC  H12Y21431  -1.114  -3.057  -0.675 -1.1249 -0.5574 -1.9867
  175DOPC  C31321432  -1.020  -3.216  -0.566 -0.0908 -0.0167 -0.0117
  175DOPC  H13X21433  -0.981  -3.319  -0.579  1.6919  0.7049 -0.6722
  175DOPC  H13Y21434  -0.920  -3.170  -0.555  0.1254 -0.3612 -0.5188
  175DOPC  C31421435  -1.099  -3.217  -0.439  0.2207 -0.1455  0.2314
  175DOPC  H14X21436  -1.143  -3.117  -0.418 -1.4203 -0.6989 -0.4028
  175DOPC  H14Y21437  -1.186  -3.286  -0.448 -0.6235  0.9743 -0.4280
  175DOPC  C31521438  -1.015  -3.254  -0.315 -0.2984 -1.1721 -0.1710
  175DOPC  H15X21439  -0.934  -3.187  -0.279  0.5372 -2.9333  1.4740
  175DOPC  H15Y21440  -0.973  -3.353  -0.343  0.7486 -0.2986 -1.8567
  175DOPC  C31621441  -1.106  -3.271  -0.190 -0.1050  0.2440  0.5545
  175DOPC  H16X21442  -1.139  -3.169  -0.162  0.2204  0.7896 -0.9603
  175DOPC  H16Y21443  -1.202  -3.316  -0.224 -0.8254  1.7253  0.5350
  175DOPC  C31721444  -1.049  -3.343  -0.072 -0.5109 -0.8256 -0.2248
  175DOPC  H17X21445  -1.129  -3.376  -0.003  0.5042 -2.5018  0.2011
  175DOPC  H17Y21446  -1.006  -3.439  -0.106 -0.5439 -1.3002  1.0196
  175DOPC  C31821447  -0.934  -3.265  -0.007  0.8739  0.5222  1.0940
  175DOPC  H18X21448  -0.965  -3.168   0.037 -1.0292  1.2417 -1.5864
  175DOPC  H18Y21449  -0.897  -3.327   0.078 -1.0035 -1.2509  0.6823
  175DOPC  H18Z21450  -0.847  -3.243  -0.073  0.0876  2.6406  0.6862
  176DOPC     N21451  -1.077  -0.803  -2.889  0.3078 -0.0274  0.0795
  176DOPC   C1221452  -1.114  -0.664  -2.845 -0.5044 -0.2021 -0.0798
  176DOPC  H12A21453  -1.204  -0.636  -2.898 -0.5322  0.5152  0.3192
  176DOPC  H12B21454  -1.046  -0.591  -2.887 -1.6016  0.2209 -1.1901
  176DOPC   C1321455  -1.032  -0.799  -3.032 -0.4704  0.3135 -0.3503
  176DOPC  H13A21456  -0.940  -0.745  -3.049 -1.1636  1.7669  0.3288
  176DOPC  H13B21457  -0.999  -0.899  -3.054  2.1218  0.5662  1.8485
  176DOPC  H13C21458  -1.107  -0.761  -3.099  0.1788  3.4137  0.5019
  176DOPC   C1421459  -1.194  -0.894  -2.881  0.4455 -0.2316  0.5512
  176DOPC  H14A21460  -1.273  -0.857  -2.944 -0.1795 -2.3964 -0.0279
  176DOPC  H14B21461  -1.167  -0.993  -2.917  0.3778 -1.2670  3.1078
  176DOPC  H14C21462  -1.226  -0.917  -2.780  1.3248 -2.3295  0.4226
  176DOPC   C1521463  -0.972  -0.863  -2.800  0.2639  0.4430  0.4250
  176DOPC  H15A21464  -1.005  -0.860  -2.698 -0.3699  2.7269  0.2123
  176DOPC  H15B21465  -0.883  -0.802  -2.799  1.3250 -1.0556  1.1334
  176DOPC  H15C21466  -0.956  -0.967  -2.823 -1.1666  0.5937 -1.5129
  176DOPC   C1121467  -1.127  -0.643  -2.697  0.1091  0.2127 -0.6172
  176DOPC  H11A21468  -1.025  -0.632  -2.656  0.0160  0.7274 -0.5161
  176DOPC  H11B21469  -1.176  -0.546  -2.673  0.3301 -0.1795  1.6228
  176DOPC     P21470  -1.343  -0.746  -2.602  0.0567  0.2289  0.3849
  176DOPC   O1321471  -1.394  -0.879  -2.574 -0.3269  0.0032 -0.1304
  176DOPC   O1421472  -1.413  -0.673  -2.712 -1.2068  0.1776  0.1429
  176DOPC   O1221473  -1.196  -0.754  -2.636 -0.2408 -0.2905  0.0160
  176DOPC   O1121474  -1.355  -0.659  -2.468  0.0078 -0.5743  0.1746
  176DOPC    C121475  -1.463  -0.655  -2.375  0.3002 -0.1834 -0.4448
  176DOPC    HA21476  -1.533  -0.740  -2.391 -0.1469  0.2566 -0.8488
  176DOPC    HB21477  -1.527  -0.568  -2.403 -2.9579 -1.9762  0.8551
  176DOPC    C221478  -1.418  -0.657  -2.226  0.4921 -0.3687 -0.2610
  176DOPC    HS21479  -1.508  -0.704  -2.180  0.2810  0.8495  0.6303
  176DOPC   O2121480  -1.387  -0.527  -2.166 -0.5215 -0.0286  0.1903
  176DOPC   C2121481  -1.429  -0.521  -2.036  0.6689 -0.1075  0.7908
  176DOPC   O2221482  -1.507  -0.602  -1.985 -0.1575  0.0942 -0.9156
  176DOPC   C2221483  -1.324  -0.440  -1.955 -0.4935 -0.4360  0.0626
  176DOPC   H2R21484  -1.349  -0.336  -1.984  2.8076  0.0185 -1.6332
  176DOPC   H2S21485  -1.223  -0.467  -1.994 -1.0217 -0.4721 -1.3314
  176DOPC    C321486  -1.308  -0.756  -2.191  0.3278 -0.0282 -0.6011
  176DOPC    HX21487  -1.214  -0.702  -2.211  0.8383 -0.6206  0.1288
  176DOPC    HY21488  -1.316  -0.844  -2.259  1.3120 -0.8971  0.3789
  176DOPC   O3121489  -1.323  -0.803  -2.053 -0.0995 -0.0043  0.2181
  176DOPC   C3121490  -1.203  -0.820  -1.991  0.6496 -0.4077 -0.1559
  176DOPC   O3221491  -1.092  -0.815  -2.041  0.6540 -0.7850 -0.1288
  176DOPC   C3221492  -1.238  -0.850  -1.846 -0.3771  0.6769 -0.2940
  176DOPC   H2X21493  -1.328  -0.786  -1.831 -0.0334  0.8116  1.3263
  176DOPC   H2Y21494  -1.274  -0.955  -1.843 -0.7868  0.7434 -1.8122
  176DOPC   C2321495  -1.333  -0.468  -1.804  0.6039  0.1447  0.7294
  176DOPC   H3R21496  -1.333  -0.576  -1.777  0.9814  0.1985  0.9454
  176DOPC   H3S21497  -1.418  -0.417  -1.755 -1.5024 -0.9758 -1.5314
  176DOPC   C2421498  -1.219  -0.385  -1.731  0.0983 -0.3126 -0.1816
  176DOPC   H4R21499  -1.255  -0.281  -1.716  1.5611  0.0824  0.7474
  176DOPC   H4S21500  -1.123  -0.390  -1.786 -0.1516 -1.8133 -0.5318
  176DOPC   C2521501  -1.195  -0.453  -1.592 -0.1354  0.2690 -0.0894
  176DOPC   H5R21502  -1.103  -0.414  -1.544  1.7471 -1.2329 -2.2504
  176DOPC   H5S21503  -1.175  -0.559  -1.619  1.2357  0.8783 -1.6897
  176DOPC   C2621504  -1.304  -0.441  -1.489 -0.2754 -0.0716 -0.6997
  176DOPC   H6R21505  -1.396  -0.487  -1.531 -1.8286  2.0868  0.1787
  176DOPC   H6S21506  -1.332  -0.337  -1.463 -2.1990 -0.8195  0.4313
  176DOPC   C2721507  -1.260  -0.494  -1.353 -0.0295  0.4098  0.2440
  176DOPC   H7R21508  -1.179  -0.424  -1.323  0.7411 -0.7858  1.0812
  176DOPC   H7S21509  -1.215  -0.593  -1.379 -0.2284  0.2704  0.4235
  176DOPC   C2821510  -1.382  -0.490  -1.259  0.6147 -0.4126 -0.3824
  176DOPC   H8R21511  -1.463  -0.557  -1.296  0.6467 -0.0002 -1.2303
  176DOPC   H8S21512  -1.409  -0.382  -1.258  1.5235 -0.1842  0.2717
  176DOPC   C2921513  -1.347  -0.525  -1.120 -0.5046  0.7476  0.3480
  176DOPC   H9R21514  -1.378  -0.628  -1.096  0.6968  0.3639  0.2931
  176DOPC  C21021515  -1.296  -0.443  -1.025 -0.3960 -0.4739 -0.4333
  176DOPC  H10R21516  -1.276  -0.480  -0.924  2.3586 -0.1653 -0.7751
  176DOPC  C21121517  -1.262  -0.298  -1.045  0.0599  0.2270  0.0252
  176DOPC  H11R21518  -1.354  -0.240  -1.066 -1.0741 -1.9128 -1.2720
  176DOPC  H11S21519  -1.195  -0.287  -1.134  0.3342 -2.8419 -0.2550
  176DOPC  C21221520  -1.184  -0.235  -0.925  0.1176  0.1800 -0.5476
  176DOPC  H12R21521  -1.153  -0.131  -0.948  0.2105  0.3076  0.1296
  176DOPC  H12S21522  -1.100  -0.302  -0.900  0.9136  2.0383  2.1847
  176DOPC  C21321523  -1.249  -0.222  -0.791  0.4405 -0.4721  0.2536
  176DOPC  H13R21524  -1.315  -0.311  -0.780 -0.1647 -0.0716 -0.0714
  176DOPC  H13S21525  -1.307  -0.127  -0.795  1.4904  0.1929  0.5816
  176DOPC  C21421526  -1.152  -0.200  -0.668  0.7083  0.8413  0.4798
  176DOPC  H14R21527  -1.115  -0.095  -0.669 -0.1565  1.1423 -0.7844
  176DOPC  H14S21528  -1.058  -0.259  -0.675  0.4881  0.5984 -0.4560
  176DOPC  C21521529  -1.206  -0.223  -0.531  0.8169  0.0148 -0.1476
  176DOPC  H15R21530  -1.203  -0.330  -0.501  1.2210 -0.1644 -0.8315
  176DOPC  H15S21531  -1.301  -0.166  -0.522  0.7444 -0.1627  0.2738
  176DOPC  C21621532  -1.126  -0.142  -0.431 -0.7861 -0.8355  0.3741
  176DOPC  H16R21533  -1.103  -0.035  -0.451 -0.3540 -0.8876  0.5677
  176DOPC  H16S21534  -1.023  -0.184  -0.437 -0.7035 -0.4213 -2.6432
  176DOPC  C21721535  -1.181  -0.165  -0.288 -0.2626 -0.0675 -0.3879
  176DOPC  H17R21536  -1.187  -0.275  -0.271  2.1583 -0.0908  0.6178
  176DOPC  H17S21537  -1.286  -0.129  -0.292  0.4302  2.5806  2.0064
  176DOPC  C21821538  -1.093  -0.089  -0.190  0.1930 -0.3118 -0.1316
  176DOPC  H18R21539  -1.122  -0.115  -0.086 -3.0039 -1.9444 -1.2909
  176DOPC  H18S21540  -1.106   0.019  -0.212 -0.4340 -0.8802 -2.9242
  176DOPC  H18T21541  -0.988  -0.113  -0.215  0.1093  0.6574 -1.5076
  176DOPC   C3321542  -1.122  -0.841  -1.738 -0.4874 -0.2055 -0.5737
  176DOPC   H3X21543  -1.067  -0.745  -1.743 -1.2849  0.4573  1.8645
  176DOPC   H3Y21544  -1.059  -0.919  -1.785 -1.6971 -1.4899 -0.1288
  176DOPC   C3421545  -1.169  -0.869  -1.594 -0.9173 -0.4239  0.4426
  176DOPC   H4X21546  -1.250  -0.944  -1.588  0.0565 -1.3884  2.2936
  176DOPC   H4Y21547  -1.225  -0.780  -1.556 -0.5572 -0.6377  1.5111
  176DOPC   C3521548  -1.049  -0.883  -1.495 -0.0832 -0.1946 -0.6752
  176DOPC   H5X21549  -0.982  -0.796  -1.509 -0.7210  0.5885  0.9645
  176DOPC   H5Y21550  -1.007  -0.982  -1.526  2.0340  1.1566 -2.4026
  176DOPC   C3621551  -1.098  -0.873  -1.344  0.4826 -0.7078 -0.0893
  176DOPC   H6X21552  -1.135  -0.770  -1.329 -0.6949 -0.7989 -1.9815
  176DOPC   H6Y21553  -1.185  -0.942  -1.337 -0.6421  0.7208  0.6715
  176DOPC   C3721554  -0.981  -0.907  -1.251  0.0943 -0.8845 -0.3093
  176DOPC   H7X21555  -0.936  -1.004  -1.279  0.3776 -0.5727 -0.9530
  176DOPC   H7Y21556  -0.904  -0.832  -1.280 -0.4168 -0.1337  0.2317
  176DOPC   C3821557  -1.012  -0.888  -1.101 -0.6050 -0.0249 -0.1544
  176DOPC   H8X21558  -1.059  -0.788  -1.090 -2.9995 -1.1384  0.1996
  176DOPC   H8Y21559  -0.916  -0.883  -1.045 -0.6959  3.7205 -0.0562
  176DOPC   C3921560  -1.111  -0.990  -1.050 -0.0610 -0.4161 -0.0264
  176DOPC   H9X21561  -1.155  -1.070  -1.111  0.9472 -1.4212  0.5271
  176DOPC  C31021562  -1.169  -0.976  -0.925 -0.5263 -0.2190 -0.5327
  176DOPC  H10X21563  -1.250  -1.046  -0.903  0.7572 -0.7900  3.1116
  176DOPC  C31121564  -1.137  -0.879  -0.813  0.0291 -0.2005 -0.7167
  176DOPC  H11X21565  -1.043  -0.821  -0.824 -0.1897  0.3489  0.1646
  176DOPC  H11Y21566  -1.138  -0.926  -0.712  0.7839  1.6873  0.2239
  176DOPC  C31221567  -1.255  -0.774  -0.795 -0.0235  0.0267 -0.9796
  176DOPC  H12X21568  -1.355  -0.824  -0.796 -0.2155  0.4053 -0.7740
  176DOPC  H12Y21569  -1.254  -0.714  -0.888 -0.9357  1.8143  0.1204
  176DOPC  C31321570  -1.222  -0.683  -0.673 -0.0821 -0.5938  0.3313
  176DOPC  H13X21571  -1.111  -0.679  -0.669 -0.1272 -0.0233  1.9549
  176DOPC  H13Y21572  -1.255  -0.580  -0.695  0.6289 -0.1204  1.3774
  176DOPC  C31421573  -1.286  -0.735  -0.545  0.2750 -0.3906 -0.1499
  176DOPC  H14X21574  -1.393  -0.721  -0.573  0.7708  2.0014 -1.1004
  176DOPC  H14Y21575  -1.250  -0.838  -0.526  1.7461  0.3966  1.6756
  176DOPC  C31521576  -1.256  -0.656  -0.416  0.4010  0.4933  0.7723
  176DOPC  H15X21577  -1.310  -0.559  -0.423  0.5747  0.4890 -1.4463
  176DOPC  H15Y21578  -1.147  -0.640  -0.402  0.2991  0.8946  1.1176
  176DOPC  C31621579  -1.285  -0.735  -0.288  0.4595 -0.2463 -0.2283
  176DOPC  H16X21580  -1.245  -0.838  -0.297  0.3516 -0.2472 -0.7185
  176DOPC  H16Y21581  -1.248  -0.683  -0.198 -0.9512  0.9473 -0.2931
  176DOPC  C31721582  -1.434  -0.750  -0.264 -0.8057  0.7468 -0.9136
  176DOPC  H17X21583  -1.487  -0.653  -0.255 -1.3329  0.3387  0.6071
  176DOPC  H17Y21584  -1.465  -0.801  -0.358 -0.5333 -1.0326 -0.0865
  176DOPC  C31821585  -1.458  -0.832  -0.136  0.3501  0.3800  0.4485
  176DOPC  H18X21586  -1.451  -0.942  -0.151  2.2688  0.5607 -0.3612
  176DOPC  H18Y21587  -1.408  -0.789  -0.047  0.0614 -0.9894  1.3051
  176DOPC  H18Z21588  -1.561  -0.815  -0.100 -0.4524 -1.7856 -0.6303
  177DOPC     N21589   0.282   2.759  -2.613 -0.1898 -0.5430 -0.7038
  177DOPC   C1221590   0.315   2.776  -2.464 -0.0486  0.0161  0.2663
  177DOPC  H12A21591   0.318   2.883  -2.445  0.2881  0.0205  0.1976
  177DOPC  H12B21592   0.416   2.741  -2.450 -0.4127 -1.3703 -0.4228
  177DOPC   C1321593   0.380   2.856  -2.676 -0.0287  0.0461  0.0440
  177DOPC  H13A21594   0.378   2.849  -2.784  0.6142 -0.5427  0.0594
  177DOPC  H13B21595   0.365   2.953  -2.631 -0.3722 -0.4016  0.9064
  177DOPC  H13C21596   0.481   2.826  -2.652  0.0878  0.2904 -0.1436
  177DOPC   C1421597   0.142   2.809  -2.646 -0.3147  0.1601  0.0349
  177DOPC  H14A21598   0.129   2.911  -2.612 -0.5297 -0.0684  0.6687
  177DOPC  H14B21599   0.131   2.815  -2.753  1.5649  2.3351 -0.0943
  177DOPC  H14C21600   0.064   2.742  -2.611  0.2754  0.6502  2.5129
  177DOPC   C1521601   0.297   2.624  -2.657  0.2884  0.6731  0.0696
  177DOPC  H15A21602   0.387   2.576  -2.622 -0.3446  0.0571  0.8961
  177DOPC  H15B21603   0.279   2.607  -2.762 -0.4373  0.6160  0.1981
  177DOPC  H15C21604   0.221   2.563  -2.611  0.7933 -0.2650 -0.3050
  177DOPC   C1121605   0.218   2.709  -2.363 -0.3323  0.0289 -0.2248
  177DOPC  H11A21606   0.214   2.759  -2.264  0.4327 -1.2420  0.4821
  177DOPC  H11B21607   0.118   2.735  -2.405 -0.1491  1.6431  0.2669
  177DOPC     P21608   0.356   2.501  -2.292 -0.5439  0.5073 -0.4720
  177DOPC   O1321609   0.477   2.571  -2.341 -0.0603  0.5297 -0.0769
  177DOPC   O1421610   0.356   2.353  -2.312  0.1395 -0.0459 -0.4848
  177DOPC   O1221611   0.230   2.565  -2.364  0.3333  0.0914 -1.1927
  177DOPC   O1121612   0.338   2.538  -2.140 -0.0617 -0.3662  0.0455
  177DOPC    C121613   0.219   2.499  -2.073  0.0560 -0.2363 -0.8664
  177DOPC    HA21614   0.207   2.389  -2.072 -0.0766 -0.2733 -2.9972
  177DOPC    HB21615   0.126   2.532  -2.125  0.8925 -1.0338 -2.9716
  177DOPC    C221616   0.214   2.567  -1.929  0.3557  0.0653  0.3595
  177DOPC    HS21617   0.212   2.678  -1.927 -1.0531  0.0732 -0.2254
  177DOPC   O2121618   0.328   2.515  -1.855  0.1827 -0.4251 -0.7299
  177DOPC   C2121619   0.444   2.582  -1.872  0.3166  0.4890  0.1660
  177DOPC   O2221620   0.461   2.680  -1.941 -0.5115  0.4022 -0.6630
  177DOPC   C2221621   0.546   2.516  -1.778  0.4229 -0.1308 -0.7604
  177DOPC   H2R21622   0.639   2.506  -1.838  0.0132 -2.5875 -1.0778
  177DOPC   H2S21623   0.509   2.414  -1.757  0.2384  0.3970  1.8400
  177DOPC    C321624   0.074   2.522  -1.877  0.4908  0.3494 -0.3085
  177DOPC    HX21625   0.083   2.411  -1.879 -3.3349 -0.1169 -0.8368
  177DOPC    HY21626  -0.011   2.554  -1.942 -0.0602  0.5429  0.4996
  177DOPC   O3121627   0.062   2.577  -1.747  0.2663 -0.5392 -0.6348
  177DOPC   C3121628   0.033   2.495  -1.652  0.4398  0.1009  0.2263
  177DOPC   O3221629   0.023   2.375  -1.659 -0.1236 -0.2413  0.2137
  177DOPC   C3221630   0.034   2.567  -1.520  0.1213 -0.1289  0.2229
  177DOPC   H2X21631   0.140   2.599  -1.506  0.5115 -1.8902  1.6243
  177DOPC   H2Y21632  -0.027   2.660  -1.523 -0.9197 -0.7185  2.0764
  177DOPC   C2321633   0.569   2.606  -1.657 -0.6757 -0.0936  0.5984
  177DOPC   H3R21634   0.545   2.710  -1.686  0.3409 -0.4999 -1.9449
  177DOPC   H3S21635   0.675   2.603  -1.623 -0.0054 -1.4370 -1.4623
  177DOPC   C2421636   0.479   2.599  -1.537 -0.3429  0.6590 -0.0850
  177DOPC   H4R21637   0.478   2.491  -1.508  1.3275  0.0480 -2.0054
  177DOPC   H4S21638   0.383   2.640  -1.574 -0.8494 -0.0810  0.3712
  177DOPC   C2521639   0.537   2.695  -1.428 -0.5301  0.0594  0.4218
  177DOPC   H5R21640   0.443   2.722  -1.375 -1.0679  0.2220 -0.6062
  177DOPC   H5S21641   0.584   2.790  -1.461 -0.6258 -0.0758 -0.1009
  177DOPC   C2621642   0.615   2.614  -1.321 -0.2637 -0.6473  0.4905
  177DOPC   H6R21643   0.714   2.579  -1.357 -0.4339 -1.3187  0.6478
  177DOPC   H6S21644   0.553   2.526  -1.291  0.5050 -1.8795 -1.2998
  177DOPC   C2721645   0.644   2.703  -1.198  0.2331 -0.3678  0.5612
  177DOPC   H7R21646   0.594   2.802  -1.205  0.1853 -0.4472 -0.3721
  177DOPC   H7S21647   0.752   2.728  -1.193  0.0182  1.3930 -1.9288
  177DOPC   C2821648   0.592   2.637  -1.071  0.0270 -0.4851 -0.4452
  177DOPC   H8R21649   0.481   2.629  -1.068 -0.2139  2.1745  1.4969
  177DOPC   H8S21650   0.611   2.711  -0.990 -0.7071  0.0244 -0.7187
  177DOPC   C2921651   0.646   2.506  -1.023 -0.1989  0.1795 -0.8466
  177DOPC   H9R21652   0.674   2.436  -1.103  2.2925  0.6118 -0.4568
  177DOPC  C21021653   0.669   2.471  -0.892 -1.4493  0.1243 -0.7061
  177DOPC  H10R21654   0.709   2.371  -0.868 -2.3285 -0.2597 -0.8163
  177DOPC  C21121655   0.634   2.557  -0.776 -0.0334 -0.5266  0.0957
  177DOPC  H11R21656   0.528   2.576  -0.804 -0.1407 -1.2384 -0.0162
  177DOPC  H11S21657   0.696   2.646  -0.753 -1.4914 -0.0254  2.2642
  177DOPC  C21221658   0.620   2.472  -0.640 -0.6081 -1.0382 -0.2911
  177DOPC  H12R21659   0.576   2.372  -0.660  0.7039 -1.6338 -0.2435
  177DOPC  H12S21660   0.560   2.532  -0.568  3.0525 -0.1073  2.2455
  177DOPC  C21321661   0.752   2.459  -0.574 -0.8859 -0.2409 -0.5316
  177DOPC  H13R21662   0.811   2.552  -0.583  0.1438 -0.7941  0.2664
  177DOPC  H13S21663   0.804   2.373  -0.621  1.2076  0.2529  0.7505
  177DOPC  C21421664   0.748   2.444  -0.421  0.2820 -0.0045 -1.0356
  177DOPC  H14R21665   0.682   2.362  -0.386 -0.3024  0.6439 -0.6104
  177DOPC  H14S21666   0.698   2.538  -0.391  0.7612 -0.9256  3.3519
  177DOPC  C21521667   0.882   2.442  -0.346  0.1249 -0.0619 -0.2963
  177DOPC  H15R21668   0.944   2.524  -0.388 -2.0954  1.2615 -1.1314
  177DOPC  H15S21669   0.935   2.348  -0.374  1.4898  0.2989  0.9098
  177DOPC  C21621670   0.868   2.439  -0.194  0.0810 -0.2678  0.1592
  177DOPC  H16R21671   0.965   2.403  -0.152 -0.5340 -2.3814 -0.1093
  177DOPC  H16S21672   0.813   2.345  -0.171 -0.8810  0.1165 -0.5195
  177DOPC  C21721673   0.810   2.562  -0.136  0.3139 -0.0575  0.0406
  177DOPC  H17R21674   0.796   2.553  -0.027  3.0572 -0.0713  0.4373
  177DOPC  H17S21675   0.717   2.596  -0.188  0.0297 -2.1673 -0.9692
  177DOPC  C21821676   0.909   2.684  -0.141 -0.2872  0.2860 -0.8467
  177DOPC  H18R21677   0.850   2.773  -0.112 -0.9979 -0.0827 -1.1164
  177DOPC  H18S21678   0.953   2.690  -0.243  0.6326 -0.3280 -0.4954
  177DOPC  H18T21679   0.989   2.661  -0.067 -1.0732  3.4568  1.1470
  177DOPC   C3321680  -0.001   2.491  -1.393 -0.3602  0.2425 -0.2013
  177DOPC   H3X21681   0.046   2.390  -1.389 -1.5841 -0.3519 -0.5090
  177DOPC   H3Y21682  -0.111   2.473  -1.395 -0.5275  1.2386 -2.5645
  177DOPC   C3421683   0.043   2.574  -1.272  0.7138 -0.2080  0.3965
  177DOPC   H4X21684  -0.012   2.669  -1.261  2.5752  0.9079  0.4339
  177DOPC   H4Y21685   0.151   2.594  -1.290  0.3994  0.4676 -0.8597
  177DOPC   C3521686   0.035   2.484  -1.146 -1.1034 -0.3031  0.4781
  177DOPC   H5X21687   0.089   2.396  -1.187  0.5516  1.1805 -0.6996
  177DOPC   H5Y21688  -0.068   2.461  -1.111 -1.3836  0.7111  0.3633
  177DOPC   C3621689   0.112   2.544  -1.026 -0.0306  0.0250 -0.1803
  177DOPC   H6X21690   0.219   2.561  -1.050 -0.0778 -0.8549 -1.0793
  177DOPC   H6Y21691   0.066   2.642  -1.001  1.7657  1.3165 -1.6904
  177DOPC   C3721692   0.119   2.437  -0.916 -0.0631  0.8767  0.3852
  177DOPC   H7X21693   0.020   2.435  -0.865  0.7185  0.8367  1.9780
  177DOPC   H7Y21694   0.134   2.344  -0.973  0.2637  0.5796  0.9404
  177DOPC   C3821695   0.238   2.462  -0.816  0.0399 -0.7882 -0.3370
  177DOPC   H8X21696   0.238   2.571  -0.799  1.7421 -0.5713 -1.4586
  177DOPC   H8Y21697   0.329   2.434  -0.874 -0.1789 -0.5370 -0.8058
  177DOPC   C3921698   0.228   2.364  -0.700 -0.5007 -0.7144  0.3861
  177DOPC   H9X21699   0.251   2.258  -0.722 -0.1532 -1.1546  2.6128
  177DOPC  C31021700   0.210   2.397  -0.571 -0.3699  0.4114 -0.5220
  177DOPC  H10X21701   0.234   2.334  -0.484 -3.4113  0.1071  0.2166
  177DOPC  C31121702   0.181   2.535  -0.527 -0.1865  0.5229  0.0494
  177DOPC  H11X21703   0.109   2.578  -0.600 -2.1912  0.5620  1.9450
  177DOPC  H11Y21704   0.273   2.598  -0.530 -0.6775  1.2309 -1.4131
  177DOPC  C31221705   0.116   2.544  -0.380  0.1033 -0.3990 -0.0816
  177DOPC  H12X21706   0.026   2.479  -0.378  0.5084 -0.9910  2.0667
  177DOPC  H12Y21707   0.085   2.648  -0.356  2.0617 -0.3978  3.0363
  177DOPC  C31321708   0.214   2.487  -0.270  0.8346 -0.6850  0.4740
  177DOPC  H13X21709   0.217   2.376  -0.281  0.6149 -0.5738 -0.8808
  177DOPC  H13Y21710   0.314   2.526  -0.299 -0.2704  0.3658 -2.2889
  177DOPC  C31421711   0.161   2.506  -0.133 -0.1572  0.1679 -0.4133
  177DOPC  H14X21712   0.170   2.614  -0.109  0.5367 -0.0664  0.4570
  177DOPC  H14Y21713   0.055   2.473  -0.124 -0.2125  0.8044  2.2716
  177DOPC  C31521714   0.244   2.421  -0.026  0.1106 -0.4366  0.5007
  177DOPC  H15X21715   0.176   2.337   0.000  0.4068 -0.4934  1.1091
  177DOPC  H15Y21716   0.247   2.464   0.076 -0.2026 -2.9460  1.6375
  177DOPC  C31621717   0.375   2.354  -0.063  0.0004  0.0936  0.7053
  177DOPC  H16X21718   0.373   2.301  -0.160  1.6144 -1.0245  1.2217
  177DOPC  H16Y21719   0.451   2.435  -0.068 -2.1594  2.1415 -2.6077
  177DOPC  C31721720   0.418   2.255   0.053 -0.7186  0.4026 -0.4668
  177DOPC  H17X21721   0.398   2.301   0.152  1.3305  2.1575 -0.7846
  177DOPC  H17Y21722   0.353   2.165   0.045  0.0680 -0.0169 -3.3392
  177DOPC  C31821723   0.569   2.214   0.045  0.5310 -0.4653 -0.2118
  177DOPC  H18X21724   0.596   2.131   0.113 -2.1174 -1.3345 -0.1128
  177DOPC  H18Y21725   0.595   2.194  -0.061 -0.5376  2.5530 -1.1301
  177DOPC  H18Z21726   0.632   2.299   0.078 -2.0340  0.2317  3.4665
  178DOPC     N21727  -1.525   2.901  -2.432  0.0472 -0.4688  0.2593
  178DOPC   C1221728  -1.553   2.881  -2.570 -0.0064 -0.3514  0.0625
  178DOPC  H12A21729  -1.562   2.775  -2.586  1.3727 -0.2630 -1.6472
  178DOPC  H12B21730  -1.483   2.929  -2.637  1.6686  0.4923  2.3171
  178DOPC   C1321731  -1.431   2.792  -2.388  0.1907 -0.4579 -0.0706
  178DOPC  H13A21732  -1.373   2.755  -2.472  0.0662  1.9594 -1.3147
  178DOPC  H13B21733  -1.365   2.824  -2.309  0.0170  0.4618 -0.2845
  178DOPC  H13C21734  -1.487   2.708  -2.350  2.6493 -2.4818 -0.6507
  178DOPC   C1421735  -1.643   2.884  -2.346 -0.3013 -0.0307  0.0978
  178DOPC  H14A21736  -1.613   2.899  -2.244 -0.6329 -1.2694  0.3927
  178DOPC  H14B21737  -1.720   2.960  -2.357  0.0319  0.7079  2.3913
  178DOPC  H14C21738  -1.692   2.788  -2.348  0.0341 -0.2384  1.3367
  178DOPC   C1521739  -1.471   3.041  -2.408 -0.0547 -0.1598  0.4232
  178DOPC  H15A21740  -1.472   3.062  -2.302  0.1194 -0.3083  0.4543
  178DOPC  H15B21741  -1.531   3.110  -2.465 -1.1469  0.0593  1.7821
  178DOPC  H15C21742  -1.367   3.037  -2.438  0.5646  0.3612  2.3155
  178DOPC   C1121743  -1.691   2.939  -2.620  0.2500  0.0672  0.1008
  178DOPC  H11A21744  -1.703   2.919  -2.729  0.7606 -1.0729  0.2365
  178DOPC  H11B21745  -1.777   2.888  -2.571  0.4218 -2.2571 -1.8371
  178DOPC     P21746  -1.819   3.150  -2.548  0.3605  0.0080  0.1774
  178DOPC   O1321747  -1.921   3.127  -2.658 -0.3060  0.3370 -0.6621
  178DOPC   O1421748  -1.794   3.290  -2.510 -0.2174  0.2449 -0.0276
  178DOPC   O1221749  -1.693   3.081  -2.594 -0.1805  0.1896 -0.0289
  178DOPC   O1121750  -1.863   3.074  -2.416 -0.5126  0.1163 -0.2935
  178DOPC    C121751  -2.007   3.053  -2.392  0.5866  0.5630 -0.3837
  178DOPC    HA21752  -2.014   2.970  -2.318  0.4209  0.8939 -0.0277
  178DOPC    HB21753  -2.061   3.021  -2.484  1.3447 -1.0454 -0.2982
  178DOPC    C221754  -2.076   3.183  -2.344 -0.0471 -0.6341  0.9947
  178DOPC    HS21755  -2.060   3.246  -2.434 -0.4482 -1.3702  0.3954
  178DOPC   O2121756  -2.009   3.237  -2.229  0.2233  0.1845 -0.4746
  178DOPC   C2121757  -2.020   3.372  -2.222  0.6696 -0.8560 -0.5816
  178DOPC   O2221758  -2.054   3.443  -2.309  0.6924 -0.3581  0.0344
  178DOPC   C2221759  -1.987   3.422  -2.077  0.4304  0.6188  0.8019
  178DOPC   H2R21760  -1.889   3.475  -2.077  0.0016  1.4899  2.5806
  178DOPC   H2S21761  -1.983   3.331  -2.013 -1.7267  0.0626  0.2043
  178DOPC    C321762  -2.226   3.167  -2.320  0.6719  0.2176 -0.1492
  178DOPC    HX21763  -2.268   3.071  -2.357 -0.7645  0.2748  1.2381
  178DOPC    HY21764  -2.276   3.242  -2.384  1.1202  1.8582  1.3374
  178DOPC   O3121765  -2.259   3.194  -2.185  0.3271  0.2368  0.7960
  178DOPC   C3121766  -2.263   3.100  -2.102  0.5671  0.5246 -0.6542
  178DOPC   O3221767  -2.260   2.980  -2.131  0.4739  0.3524  0.1758
  178DOPC   C3221768  -2.272   3.161  -1.963 -0.2373  0.9647 -0.3550
  178DOPC   H2X21769  -2.182   3.217  -1.928 -0.3008 -0.2562  2.0140
  178DOPC   H2Y21770  -2.357   3.232  -1.962 -1.2263 -0.1969 -0.2948
  178DOPC   C2321771  -2.098   3.523  -2.030 -0.3044  0.1831  0.3577
  178DOPC   H3R21772  -2.194   3.467  -2.024 -0.3495  0.3274  1.1463
  178DOPC   H3S21773  -2.111   3.606  -2.103 -1.5740 -0.6077 -0.3546
  178DOPC   C2421774  -2.059   3.573  -1.882  0.3408 -0.0130  0.1191
  178DOPC   H4R21775  -1.955   3.611  -1.880  1.3509 -2.1603  5.3846
  178DOPC   H4S21776  -2.048   3.480  -1.822  1.6920 -0.3694 -0.6465
  178DOPC   C2521777  -2.158   3.676  -1.811  0.3040 -0.8499  0.6222
  178DOPC   H5R21778  -2.263   3.641  -1.804 -0.1754  0.3561 -0.1874
  178DOPC   H5S21779  -2.168   3.762  -1.881  0.4672 -1.8717 -0.6938
  178DOPC   C2621780  -2.116   3.734  -1.672 -0.8881  0.1473 -0.1379
  178DOPC   H6R21781  -2.007   3.755  -1.671 -0.6316 -1.0125 -0.9872
  178DOPC   H6S21782  -2.132   3.650  -1.601  1.7884  0.1556  0.5534
  178DOPC   C2721783  -2.198   3.856  -1.632 -0.1894 -0.5328  0.0771
  178DOPC   H7R21784  -2.305   3.844  -1.660 -0.3255 -0.4399  0.5412
  178DOPC   H7S21785  -2.172   3.940  -1.699  0.0305 -0.7701 -0.1385
  178DOPC   C2821786  -2.178   3.885  -1.477 -0.1751 -0.1555  0.0201
  178DOPC   H8R21787  -2.072   3.920  -1.472  0.0366 -0.9533  1.6384
  178DOPC   H8S21788  -2.184   3.789  -1.422  0.1464  0.4160  1.0696
  178DOPC   C2921789  -2.252   3.996  -1.410  0.0386 -0.7467 -0.3995
  178DOPC   H9R21790  -2.247   4.095  -1.457 -0.0027  0.0293  1.1496
  178DOPC  C21021791  -2.329   3.976  -1.299 -0.6575 -0.1024 -0.5044
  178DOPC  H10R21792  -2.375   4.062  -1.249 -1.2632 -1.1316  0.7768
  178DOPC  C21121793  -2.369   3.841  -1.248  0.2523 -0.0435 -0.7942
  178DOPC  H11R21794  -2.368   3.774  -1.337  1.9307  0.5673 -1.2857
  178DOPC  H11S21795  -2.474   3.843  -1.213  0.9073 -0.7054  1.4045
  178DOPC  C21221796  -2.274   3.766  -1.153 -0.0863 -0.2278 -0.0711
  178DOPC  H12R21797  -2.172   3.734  -1.186 -0.2910 -3.5442  1.9941
  178DOPC  H12S21798  -2.319   3.668  -1.123  1.8415 -0.5511  2.0422
  178DOPC  C21321799  -2.232   3.841  -1.024  0.1265 -0.5757 -0.5502
  178DOPC  H13R21800  -2.321   3.857  -0.960  1.2993  1.2039  0.7053
  178DOPC  H13S21801  -2.194   3.941  -1.055 -0.2805  0.6650  2.5899
  178DOPC  C21421802  -2.119   3.780  -0.934  0.1621 -0.0364 -0.3420
  178DOPC  H14R21803  -2.048   3.733  -1.005 -1.1051 -3.5032  0.4577
  178DOPC  H14S21804  -2.166   3.698  -0.875  1.4838  1.9568  3.7801
  178DOPC  C21521805  -2.058   3.879  -0.835 -0.4692  0.7318  0.1076
  178DOPC  H15R21806  -2.130   3.932  -0.769 -0.5278  0.1767  0.4981
  178DOPC  H15S21807  -2.022   3.961  -0.901 -1.3877  0.5977 -0.5709
  178DOPC  C21621808  -1.945   3.801  -0.758  0.9309  0.3527 -0.1572
  178DOPC  H16R21809  -1.899   3.871  -0.685  0.0344  1.9563 -1.0739
  178DOPC  H16S21810  -1.872   3.769  -0.834  1.3114 -2.4357  1.2530
  178DOPC  C21721811  -1.984   3.676  -0.680 -0.7531  0.0042  0.4080
  178DOPC  H17R21812  -1.900   3.638  -0.617 -2.3179 -2.3892  1.1988
  178DOPC  H17S21813  -1.995   3.585  -0.743 -0.1955  0.0345  0.2592
  178DOPC  C21821814  -2.108   3.697  -0.594 -0.5497 -0.2054  0.8017
  178DOPC  H18R21815  -2.199   3.709  -0.656 -0.3756 -0.1011  0.5633
  178DOPC  H18S21816  -2.110   3.787  -0.529  0.4176  0.9233 -0.6725
  178DOPC  H18T21817  -2.119   3.603  -0.534  0.8229  0.2812  1.8863
  178DOPC   C3321818  -2.316   3.058  -1.856 -0.3053  0.0158 -0.6773
  178DOPC   H3X21819  -2.231   2.988  -1.842 -0.9692 -0.4468  1.3636
  178DOPC   H3Y21820  -2.400   3.000  -1.902 -2.5268  1.7549  0.9745
  178DOPC   C3421821  -2.362   3.115  -1.720 -0.0284 -0.1855 -0.1028
  178DOPC   H4X21822  -2.336   3.045  -1.638  0.6445  1.0387  0.7639
  178DOPC   H4Y21823  -2.472   3.133  -1.721  0.1298  0.9561  1.0203
  178DOPC   C3521824  -2.289   3.240  -1.674 -0.2537 -0.1404  0.2801
  178DOPC   H5X21825  -2.326   3.327  -1.733  0.1427  0.9015  1.5111
  178DOPC   H5Y21826  -2.183   3.234  -1.706 -0.4843  1.6817 -1.0324
  178DOPC   C3621827  -2.308   3.265  -1.525  0.2725  0.1392  0.0415
  178DOPC   H6X21828  -2.419   3.266  -1.515  0.2017  1.3031 -0.6655
  178DOPC   H6Y21829  -2.264   3.191  -1.455 -1.7035 -0.3114  0.8668
  178DOPC   C3721830  -2.263   3.406  -1.491 -0.6084 -0.3179 -0.1999
  178DOPC   H7X21831  -2.153   3.405  -1.499 -0.6599  0.0960 -0.9797
  178DOPC   H7Y21832  -2.299   3.472  -1.573 -1.6949 -0.6854 -0.0401
  178DOPC   C3821833  -2.301   3.457  -1.350  0.4205 -0.6448  0.0467
  178DOPC   H8X21834  -2.408   3.485  -1.339  0.5894  0.7176 -1.3653
  178DOPC   H8Y21835  -2.244   3.553  -1.347 -0.4931 -0.1025  0.9639
  178DOPC   C3921836  -2.240   3.386  -1.233 -0.5470  0.8831 -0.1955
  178DOPC   H9X21837  -2.143   3.338  -1.252  0.3435  1.5945  2.1273
  178DOPC  C31021838  -2.303   3.357  -1.117 -1.1199  0.1199  0.3368
  178DOPC  H10X21839  -2.245   3.304  -1.040  0.0488  0.5517 -0.2342
  178DOPC  C31121840  -2.438   3.392  -1.069  0.3345  0.1893  0.2793
  178DOPC  H11X21841  -2.498   3.301  -1.093  1.2149 -0.1695 -0.6557
  178DOPC  H11Y21842  -2.468   3.481  -1.127 -0.0572 -0.6688 -0.8730
  178DOPC  C31221843  -2.453   3.444  -0.921 -0.8816  0.1334 -0.3386
  178DOPC  H12X21844  -2.559   3.441  -0.886 -1.0169  0.6330 -0.6938
  178DOPC  H12Y21845  -2.411   3.546  -0.920  0.5890 -0.4230 -1.6724
  178DOPC  C31321846  -2.379   3.354  -0.822  0.3609  0.7983  0.6983
  178DOPC  H13X21847  -2.388   3.259  -0.879 -0.0857  2.3772 -2.0218
  178DOPC  H13Y21848  -2.273   3.387  -0.827  0.9194 -0.8246  0.9662
  178DOPC  C31421849  -2.435   3.342  -0.677  0.5054  0.2355  0.6288
  178DOPC  H14X21850  -2.546   3.339  -0.682  0.5249 -2.8691  0.4535
  178DOPC  H14Y21851  -2.397   3.258  -0.615  0.7674  1.1837  1.7796
  178DOPC  C31521852  -2.392   3.472  -0.598 -0.0189 -0.0237 -0.3161
  178DOPC  H15X21853  -2.454   3.547  -0.652  0.0847 -0.3551 -0.9036
  178DOPC  H15Y21854  -2.284   3.492  -0.614  0.3496 -0.2684  1.6579
  178DOPC  C31621855  -2.418   3.481  -0.445  0.2878  0.1369 -0.5115
  178DOPC  H16X21856  -2.513   3.424  -0.435 -1.4823  2.5865 -1.8473
  178DOPC  H16Y21857  -2.338   3.432  -0.387  0.7244  0.2237 -1.0347
  178DOPC  C31721858  -2.453   3.619  -0.383  0.0953  0.4065 -0.1089
  178DOPC  H17X21859  -2.430   3.614  -0.275 -1.0120 -0.4017  0.1122
  178DOPC  H17Y21860  -2.397   3.705  -0.426  0.1872  0.0894 -0.6284
  178DOPC  C31821861  -2.599   3.653  -0.386  0.2223  0.7658 -0.1625
  178DOPC  H18X21862  -2.634   3.645  -0.490  3.9479 -1.8545 -1.4124
  178DOPC  H18Y21863  -2.650   3.580  -0.320 -0.4081  2.4609  1.3330
  178DOPC  H18Z21864  -2.622   3.755  -0.346 -1.3923 -0.1552  1.4227
  179DOPC     N21865   0.633   2.142  -2.562  0.1668 -0.2693 -0.5851
  179DOPC   C1221866   0.777   2.175  -2.581 -0.3114  0.1726  0.1903
  179DOPC  H12A21867   0.797   2.277  -2.553  0.0606  0.3763 -0.7525
  179DOPC  H12B21868   0.790   2.162  -2.688 -0.0739 -4.1148  0.5639
  179DOPC   C1321869   0.602   2.125  -2.413 -0.3371  0.1310  0.2208
  179DOPC  H13A21870   0.654   2.199  -2.355  0.1906 -0.0798  0.0218
  179DOPC  H13B21871   0.496   2.111  -2.397 -0.3966 -1.1264 -1.0065
  179DOPC  H13C21872   0.639   2.027  -2.386 -0.2129 -0.4598 -1.8459
  179DOPC   C1421873   0.592   2.016  -2.635  0.1101 -0.0430  0.5919
  179DOPC  H14A21874   0.660   1.933  -2.617  2.2836  1.7824  1.3087
  179DOPC  H14B21875   0.494   1.981  -2.605 -0.1614  0.2881  0.0996
  179DOPC  H14C21876   0.603   2.044  -2.738  1.6530 -0.7352  0.5391
  179DOPC   C1521877   0.557   2.259  -2.608  1.0643  0.1038  0.1467
  179DOPC  H15A21878   0.582   2.346  -2.549 -0.6439 -0.2575  1.4818
  179DOPC  H15B21879   0.451   2.241  -2.604  0.8367  1.5050  0.9891
  179DOPC  H15C21880   0.580   2.299  -2.706 -2.0385  0.9878 -0.3009
  179DOPC   C1121881   0.880   2.084  -2.512 -0.4257 -0.6527 -0.6269
  179DOPC  H11A21882   0.977   2.136  -2.522 -0.6710  0.7135  2.7611
  179DOPC  H11B21883   0.864   2.099  -2.403  2.4486 -0.4560 -0.1591
  179DOPC     P21884   0.917   1.885  -2.688 -0.6056 -0.0541 -0.1484
  179DOPC   O1321885   0.953   1.986  -2.786 -0.3381  0.2812 -0.0109
  179DOPC   O1421886   0.817   1.783  -2.727  0.9882  0.2985  0.0293
  179DOPC   O1221887   0.872   1.948  -2.554  0.5646 -0.2048  0.7547
  179DOPC   O1121888   1.044   1.803  -2.643 -0.1378 -0.5197  0.3731
  179DOPC    C121889   1.158   1.882  -2.612 -0.6179 -0.3478  0.7362
  179DOPC    HA21890   1.146   1.989  -2.582  1.2023 -0.2689  1.2801
  179DOPC    HB21891   1.227   1.870  -2.698 -0.8552 -1.3904  0.6773
  179DOPC    C221892   1.237   1.814  -2.496  0.6640  0.1491 -0.0805
  179DOPC    HS21893   1.290   1.724  -2.533 -0.2212  0.1691 -1.4742
  179DOPC   O2121894   1.144   1.800  -2.385 -0.2708 -0.0367  0.1040
  179DOPC   C2121895   1.162   1.688  -2.315  0.3852  0.5363 -0.2401
  179DOPC   O2221896   1.221   1.590  -2.352  0.0905  0.3957  0.4163
  179DOPC   C2221897   1.083   1.697  -2.186  1.1861 -0.2432  0.1440
  179DOPC   H2R21898   0.991   1.760  -2.186 -0.3737 -2.3082  3.3531
  179DOPC   H2S21899   1.156   1.731  -2.110  0.1726 -2.2523  2.0963
  179DOPC    C321900   1.360   1.903  -2.454  0.8253 -0.0284  0.1981
  179DOPC    HX21901   1.318   2.002  -2.428 -0.2206 -0.6081  0.8176
  179DOPC    HY21902   1.428   1.912  -2.541 -0.9655 -0.8518 -1.3754
  179DOPC   O3121903   1.435   1.859  -2.339  0.2343  0.2919 -0.7211
  179DOPC   C3121904   1.550   1.927  -2.319  0.5664  0.9172  0.3502
  179DOPC   O3221905   1.606   1.996  -2.406 -0.1579 -0.1391 -0.0641
  179DOPC   C3221906   1.608   1.885  -2.186  0.2472  0.1029  0.4038
  179DOPC   H2X21907   1.654   1.785  -2.200 -1.9637 -0.5741 -3.1470
  179DOPC   H2Y21908   1.687   1.962  -2.172  0.3166  0.5575 -2.0408
  179DOPC   C2321909   1.028   1.551  -2.142  0.2281  0.3160 -0.3387
  179DOPC   H3R21910   1.085   1.469  -2.191 -0.3978  0.6110 -1.6192
  179DOPC   H3S21911   0.924   1.535  -2.178  0.2865 -0.6660 -0.0923
  179DOPC   C2421912   1.019   1.532  -1.989  0.2548 -0.1297 -0.1273
  179DOPC   H4R21913   0.948   1.448  -1.971  0.5585 -0.4754 -0.5210
  179DOPC   H4S21914   0.968   1.620  -1.944 -1.8190 -0.5257 -1.5812
  179DOPC   C2521915   1.151   1.492  -1.929  0.3410  0.2548 -0.7210
  179DOPC   H5R21916   1.225   1.566  -1.966 -0.1406 -0.0577 -2.3547
  179DOPC   H5S21917   1.178   1.393  -1.970 -0.3644 -0.3238  0.1680
  179DOPC   C2621918   1.150   1.514  -1.776  0.3148 -0.6571 -0.2376
  179DOPC   H6R21919   1.117   1.617  -1.751 -0.7732 -0.7720 -1.1195
  179DOPC   H6S21920   1.252   1.491  -1.739  0.1509 -0.6303  0.2343
  179DOPC   C2721921   1.051   1.423  -1.692 -0.6436  0.8472 -0.3583
  179DOPC   H7R21922   1.103   1.326  -1.685  0.3266  1.3772 -0.0173
  179DOPC   H7S21923   0.954   1.414  -1.745 -0.3263 -5.2722 -0.5218
  179DOPC   C2821924   1.027   1.465  -1.549  0.2526  0.3261  0.1335
  179DOPC   H8R21925   0.951   1.394  -1.510 -1.9732  0.7094 -3.1831
  179DOPC   H8S21926   0.970   1.558  -1.570  0.3687  0.2095 -0.7278
  179DOPC   C2921927   1.134   1.491  -1.448  0.7868  0.1760 -0.0874
  179DOPC   H9R21928   1.214   1.557  -1.485  0.8314 -0.3530 -0.9614
  179DOPC  C21021929   1.136   1.441  -1.325 -0.1194  0.5054 -0.0637
  179DOPC  H10R21930   1.206   1.491  -1.256 -0.2278 -0.6059  0.8763
  179DOPC  C21121931   1.017   1.371  -1.259  0.2423 -0.3732  0.1339
  179DOPC  H11R21932   1.012   1.263  -1.285  0.1575 -0.5878  1.0221
  179DOPC  H11S21933   0.921   1.418  -1.290 -0.5455 -1.1380  1.3518
  179DOPC  C21221934   1.025   1.371  -1.096 -0.1007  0.8042  0.0458
  179DOPC  H12R21935   0.924   1.328  -1.078  0.4985 -1.7344 -2.0163
  179DOPC  H12S21936   1.043   1.475  -1.062 -0.4002  0.5050  1.1581
  179DOPC  C21321937   1.108   1.270  -1.016  0.1844  0.0456  0.0471
  179DOPC  H13R21938   1.219   1.283  -1.015  0.2850 -0.7824  0.5700
  179DOPC  H13S21939   1.091   1.164  -1.046 -3.8381 -0.1330  2.3022
  179DOPC  C21421940   1.063   1.268  -0.869  0.2042 -0.1762 -0.2903
  179DOPC  H14R21941   0.953   1.257  -0.874  0.0542  1.7068 -2.1314
  179DOPC  H14S21942   1.082   1.367  -0.823 -0.7280 -1.7529  3.9840
  179DOPC  C21521943   1.141   1.181  -0.769 -0.3237  0.0698 -0.0059
  179DOPC  H15R21944   1.228   1.236  -0.729  0.5753 -1.0371 -0.3855
  179DOPC  H15S21945   1.175   1.089  -0.822  0.6245 -0.8246  2.0494
  179DOPC  C21621946   1.065   1.097  -0.659 -0.3574  1.0686  0.2980
  179DOPC  H16R21947   1.130   1.022  -0.610 -1.4289 -0.6027 -0.7217
  179DOPC  H16S21948   0.989   1.033  -0.710  0.1400 -0.5473  1.4945
  179DOPC  C21721949   0.990   1.175  -0.555 -0.1397 -0.1514  0.5740
  179DOPC  H17R21950   0.900   1.210  -0.610 -0.2260 -2.6515 -1.0660
  179DOPC  H17S21951   1.042   1.266  -0.520 -0.4249 -0.4714  1.8844
  179DOPC  C21821952   0.936   1.088  -0.444 -0.4043  0.3768 -0.2295
  179DOPC  H18R21953   0.880   0.998  -0.477  1.7650 -1.4664  0.8382
  179DOPC  H18S21954   0.867   1.151  -0.384 -0.3993 -0.2213  0.4044
  179DOPC  H18T21955   1.022   1.053  -0.383  0.4196  1.4232 -0.7376
  179DOPC   C3321956   1.507   1.880  -2.074 -0.9604 -0.5121 -0.8242
  179DOPC   H3X21957   1.450   1.786  -2.090 -2.2733  0.0685  0.2155
  179DOPC   H3Y21958   1.435   1.964  -2.067 -0.6764 -0.3239 -0.0744
  179DOPC   C3421959   1.581   1.872  -1.941 -0.5811 -0.5102 -0.1860
  179DOPC   H4X21960   1.657   1.953  -1.942  0.9631 -1.8516  1.1635
  179DOPC   H4Y21961   1.638   1.777  -1.926  2.2334  1.4003  2.4213
  179DOPC   C3521962   1.486   1.894  -1.826  0.6497  0.3050  0.2219
  179DOPC   H5X21963   1.431   1.799  -1.807  0.9021  0.2461  0.6779
  179DOPC   H5Y21964   1.407   1.967  -1.855 -0.8865 -1.9760 -1.8214
  179DOPC   C3621965   1.559   1.937  -1.693  0.6660  0.0769  0.5972
  179DOPC   H6X21966   1.631   1.858  -1.663  1.3333 -0.6445 -2.5298
  179DOPC   H6Y21967   1.609   2.032  -1.723  0.9593 -1.0887 -3.1368
  179DOPC   C3721968   1.456   1.950  -1.580  0.3207  0.5910 -0.5585
  179DOPC   H7X21969   1.380   2.024  -1.613  0.4568  0.9129 -0.1413
  179DOPC   H7Y21970   1.409   1.850  -1.567  1.2786  0.1170 -0.6256
  179DOPC   C3821971   1.519   2.006  -1.449 -0.8853  0.1648  0.1710
  179DOPC   H8X21972   1.438   2.050  -1.387 -0.5804  0.4879  0.3404
  179DOPC   H8Y21973   1.587   2.089  -1.475  0.4447 -0.9712 -0.1384
  179DOPC   C3921974   1.596   1.905  -1.359 -0.6020  0.1771 -0.1867
  179DOPC   H9X21975   1.695   1.884  -1.402 -1.6619 -1.2328 -2.0634
  179DOPC  C31021976   1.542   1.852  -1.248  0.3171 -0.3611 -0.5542
  179DOPC  H10X21977   1.589   1.767  -1.195  0.9246 -0.8719 -1.8664
  179DOPC  C31121978   1.402   1.875  -1.196 -0.7591  0.6069 -0.0522
  179DOPC  H11X21979   1.356   1.779  -1.162 -0.2228 -0.7033 -2.7303
  179DOPC  H11Y21980   1.338   1.912  -1.279  0.4426  1.3363 -0.6791
  179DOPC  C31221981   1.423   1.972  -1.076 -1.0266 -0.1588 -0.3586
  179DOPC  H12X21982   1.321   2.007  -1.048 -0.6224  1.7782 -1.1861
  179DOPC  H12Y21983   1.484   2.060  -1.104 -1.0457 -0.1796 -0.4669
  179DOPC  C31321984   1.487   1.903  -0.952 -0.4387 -1.2709 -0.4693
  179DOPC  H13X21985   1.459   1.796  -0.959 -2.5518 -0.6440 -2.7480
  179DOPC  H13Y21986   1.598   1.908  -0.950 -0.4682  0.1752  1.6506
  179DOPC  C31421987   1.434   1.975  -0.825  0.5288  0.0421 -0.6833
  179DOPC  H14X21988   1.454   2.084  -0.831  2.2654 -0.2068 -0.0076
  179DOPC  H14Y21989   1.323   1.969  -0.821  0.5240 -1.3581 -1.9305
  179DOPC  C31521990   1.494   1.916  -0.695  0.1687  0.0945 -0.4066
  179DOPC  H15X21991   1.482   1.992  -0.615 -1.0683  0.3160 -0.7914
  179DOPC  H15Y21992   1.598   1.879  -0.711  1.7259  3.5607  0.7647
  179DOPC  C31621993   1.417   1.790  -0.652 -0.4861 -0.2750  0.8405
  179DOPC  H16X21994   1.391   1.727  -0.740 -2.0119 -0.8853  1.6797
  179DOPC  H16Y21995   1.478   1.724  -0.588 -0.9866 -0.4123  1.1858
  179DOPC  C31721996   1.282   1.819  -0.583  0.3198 -0.4538  0.4048
  179DOPC  H17X21997   1.219   1.889  -0.641  0.5680 -0.7131 -0.1879
  179DOPC  H17Y21998   1.222   1.726  -0.592 -1.2875  0.6449 -0.6160
  179DOPC  C31821999   1.293   1.867  -0.437  0.3721 -0.0252  0.2423
  179DOPC  H18X22000   1.364   1.799  -0.384  0.3275 -2.8627 -2.9953
  179DOPC  H18Y22001   1.321   1.975  -0.430  1.2909 -0.2798  0.6909
  179DOPC  H18Z22002   1.203   1.870  -0.372 -0.7652  1.7153 -1.2984
  180DOPC     N22003   1.830  -0.024  -2.874  0.2806 -0.0296  0.4706
  180DOPC   C1222004   1.697   0.042  -2.925 -0.3463  1.4381  0.2527
  180DOPC  H12A22005   1.722   0.131  -2.981  0.6773  1.2402  0.3858
  180DOPC  H12B22006   1.633   0.068  -2.841  0.8008  0.0607  1.5993
  180DOPC   C1322007   1.787  -0.130  -2.780 -0.2117  0.1189  0.2961
  180DOPC  H13A22008   1.709  -0.188  -2.825  0.2567 -0.1894 -0.1203
  180DOPC  H13B22009   1.871  -0.193  -2.755  1.1254  0.8674 -2.0251
  180DOPC  H13C22010   1.742  -0.084  -2.692  0.5038 -0.0311  0.7498
  180DOPC   C1422011   1.910   0.078  -2.793  0.0466  0.1337 -0.0312
  180DOPC  H14A22012   1.999   0.104  -2.849  0.5205 -2.2347 -0.5016
  180DOPC  H14B22013   1.853   0.167  -2.769  0.2432  0.4078 -0.5578
  180DOPC  H14C22014   1.939   0.043  -2.695  1.1407  1.2575  0.0673
  180DOPC   C1522015   1.914  -0.077  -2.981  0.3379 -0.3523 -0.2217
  180DOPC  H15A22016   2.002  -0.126  -2.941 -1.2029 -0.8757  2.7935
  180DOPC  H15B22017   1.946   0.011  -3.035  0.5953 -0.1866  0.2025
  180DOPC  H15C22018   1.863  -0.152  -3.041 -0.6150 -0.8918  1.2230
  180DOPC   C1122019   1.601  -0.049  -3.018  0.8989  0.4478  0.1141
  180DOPC  H11A22020   1.515   0.004  -3.066  1.0622  0.4846 -0.1392
  180DOPC  H11B22021   1.662  -0.086  -3.103  1.5611  1.0924  0.3027
  180DOPC     P22022   1.439  -0.152  -2.840 -0.1921  0.0022 -0.0567
  180DOPC   O1322023   1.415  -0.289  -2.783  0.1293 -0.1403  0.0088
  180DOPC   O1422024   1.320  -0.098  -2.903  0.0421 -0.3756  0.1052
  180DOPC   O1222025   1.552  -0.165  -2.946  0.1071 -0.0778 -0.2999
  180DOPC   O1122026   1.491  -0.056  -2.725  0.0265 -0.0901 -0.5990
  180DOPC    C122027   1.401   0.033  -2.651 -0.0456  0.0738 -0.0706
  180DOPC    HA22028   1.319  -0.018  -2.597  0.9227  1.6513  3.1323
  180DOPC    HB22029   1.349   0.097  -2.726  1.2784  0.3408 -0.7847
  180DOPC    C222030   1.501   0.102  -2.555 -0.7152  0.1862 -0.3712
  180DOPC    HS22031   1.592   0.137  -2.609 -0.8285 -0.4043 -0.9699
  180DOPC   O2122032   1.526  -0.005  -2.464  0.2400  0.3933 -0.5113
  180DOPC   C2122033   1.649  -0.011  -2.410 -0.6001  0.2886  0.6778
  180DOPC   O2222034   1.744   0.048  -2.457 -0.6171  0.2737  0.2247
  180DOPC   C2222035   1.649  -0.091  -2.279 -0.2860 -0.7190 -0.1641
  180DOPC   H2R22036   1.752  -0.127  -2.258 -0.5915 -1.4904  0.0543
  180DOPC   H2S22037   1.586  -0.182  -2.284 -1.7835  0.1490  1.7929
  180DOPC    C322038   1.436   0.213  -2.474 -0.6293 -0.4591 -0.1991
  180DOPC    HX22039   1.335   0.181  -2.442  0.3622 -2.0753  1.5953
  180DOPC    HY22040   1.422   0.304  -2.535 -1.0072 -1.1453 -1.1517
  180DOPC   O3122041   1.514   0.251  -2.356  0.2676 -0.0789  0.1953
  180DOPC   C3122042   1.464   0.348  -2.290  0.2276 -0.1709 -0.5484
  180DOPC   O3222043   1.358   0.404  -2.321 -0.2907  0.3475 -0.1939
  180DOPC   C3222044   1.543   0.368  -2.165  0.0237  0.3403 -0.4979
  180DOPC   H2X22045   1.607   0.278  -2.153 -1.3054 -0.6608 -0.7243
  180DOPC   H2Y22046   1.594   0.465  -2.183  1.3048  0.7262  4.0197
  180DOPC   C2322047   1.597  -0.006  -2.165  0.2803  0.2656 -0.2329
  180DOPC   H3R22048   1.501   0.040  -2.198 -0.4245 -2.2494 -2.0428
  180DOPC   H3S22049   1.678   0.065  -2.139  3.1506 -3.2165  1.2081
  180DOPC   C2422050   1.570  -0.091  -2.035 -0.0843  0.3814  0.0508
  180DOPC   H4R22051   1.664  -0.138  -2.001 -1.3860 -0.8439  2.1936
  180DOPC   H4S22052   1.497  -0.174  -2.050 -0.7739  1.2456 -1.6065
  180DOPC   C2522053   1.517  -0.011  -1.914  0.4421  0.3836 -0.0174
  180DOPC   H5R22054   1.424   0.043  -1.942  0.4666  0.0250 -0.8306
  180DOPC   H5S22055   1.592   0.063  -1.878  3.4334 -2.0861 -0.7422
  180DOPC   C2622056   1.488  -0.096  -1.788 -0.0353  0.2481 -0.1419
  180DOPC   H6R22057   1.565  -0.164  -1.745 -1.4729  0.4845  3.1096
  180DOPC   H6S22058   1.401  -0.163  -1.803 -0.4893 -0.1232  3.2526
  180DOPC   C2722059   1.438  -0.004  -1.673  0.2788  0.3508 -0.6462
  180DOPC   H7R22060   1.379   0.081  -1.715 -0.4431  0.0937 -0.1752
  180DOPC   H7S22061   1.521   0.044  -1.617 -0.4458  0.6442  0.2055
  180DOPC   C2822062   1.353  -0.075  -1.572  0.5760 -0.2598  0.0456
  180DOPC   H8R22063   1.255  -0.111  -1.608  0.7506 -0.7882  0.0934
  180DOPC   H8S22064   1.324  -0.002  -1.493  0.5211 -0.4668  0.2179
  180DOPC   C2922065   1.413  -0.197  -1.510  0.4992 -0.0472 -0.0197
  180DOPC   H9R22066   1.401  -0.278  -1.582 -0.0182 -1.7083  1.8441
  180DOPC  C21022067   1.441  -0.219  -1.381  0.6067 -0.4019  0.2354
  180DOPC  H10R22068   1.471  -0.322  -1.356 -0.0467 -0.1757  2.1447
  180DOPC  C21122069   1.445  -0.110  -1.273 -0.8356  0.4689  0.1495
  180DOPC  H11R22070   1.350  -0.053  -1.266 -0.1575  1.6074  0.4109
  180DOPC  H11S22071   1.526  -0.036  -1.292 -2.4769  2.4716  0.5908
  180DOPC  C21222072   1.449  -0.182  -1.137 -0.1563 -0.1011  0.2794
  180DOPC  H12R22073   1.527  -0.261  -1.135 -0.7153 -0.7066 -0.7869
  180DOPC  H12S22074   1.352  -0.234  -1.121  0.9629 -2.5220 -0.3376
  180DOPC  C21322075   1.479  -0.078  -1.026  0.6280  0.1595 -0.4072
  180DOPC  H13R22076   1.414   0.011  -1.037  0.7648  0.1278 -1.6229
  180DOPC  H13S22077   1.585  -0.045  -1.028  0.4509  0.7035 -1.3222
  180DOPC  C21422078   1.435  -0.131  -0.887  0.1031  0.4779  0.1389
  180DOPC  H14R22079   1.492  -0.224  -0.865 -1.3122 -0.5565 -0.3868
  180DOPC  H14S22080   1.332  -0.172  -0.887  0.2672  0.0442  0.7210
  180DOPC  C21522081   1.465  -0.031  -0.781  0.1716 -0.3530 -0.4893
  180DOPC  H15R22082   1.470   0.070  -0.825 -0.5157 -0.4690 -0.8491
  180DOPC  H15S22083   1.569  -0.057  -0.750 -0.0304  0.2889  0.7586
  180DOPC  C21622084   1.364  -0.043  -0.667  0.1539 -0.5379  0.1073
  180DOPC  H16R22085   1.363  -0.142  -0.616 -0.1455 -0.4573  0.2548
  180DOPC  H16S22086   1.260  -0.026  -0.701  0.0107 -0.6299  0.5011
  180DOPC  C21722087   1.389   0.063  -0.561 -0.9511 -0.8233 -0.2118
  180DOPC  H17R22088   1.391   0.162  -0.612  0.6009  0.0919  1.4874
  180DOPC  H17S22089   1.487   0.061  -0.509 -0.7044  0.5629 -0.5747
  180DOPC  C21822090   1.276   0.072  -0.457 -0.1751  0.5735 -0.2810
  180DOPC  H18R22091   1.300   0.158  -0.391 -0.8925 -0.3654  1.2575
  180DOPC  H18S22092   1.288  -0.021  -0.398  2.5138  0.2845 -1.1682
  180DOPC  H18T22093   1.177   0.082  -0.509 -0.2542  1.4637  0.0250
  180DOPC   C3322094   1.444   0.383  -2.055  0.1204 -0.5649  0.5233
  180DOPC   H3X22095   1.379   0.294  -2.040  2.9329 -2.4194  2.8365
  180DOPC   H3Y22096   1.388   0.479  -2.065 -0.6465 -0.9492  1.0960
  180DOPC   C3422097   1.530   0.400  -1.930  0.8224  0.0301 -0.4742
  180DOPC   H4X22098   1.609   0.479  -1.931  0.3005  0.5827  0.5406
  180DOPC   H4Y22099   1.572   0.299  -1.913 -0.6729 -0.5677 -0.2186
  180DOPC   C3522100   1.436   0.435  -1.816  0.4545  0.0327 -0.6902
  180DOPC   H5X22101   1.348   0.370  -1.835 -0.0820 -0.9555  3.8643
  180DOPC   H5Y22102   1.398   0.539  -1.811  0.5384  0.0204  2.8454
  180DOPC   C3622103   1.495   0.414  -1.680  0.3707  0.0079 -0.0163
  180DOPC   H6X22104   1.529   0.308  -1.673  0.3305  0.0404  0.7236
  180DOPC   H6Y22105   1.571   0.493  -1.660 -0.4109  0.6719  0.3652
  180DOPC   C3722106   1.395   0.436  -1.572  0.3818 -0.0569 -0.0869
  180DOPC   H7X22107   1.341   0.532  -1.583 -1.0781 -0.7587  0.6377
  180DOPC   H7Y22108   1.307   0.370  -1.588 -0.5544  0.7340  1.5245
  180DOPC   C3822109   1.446   0.449  -1.427 -0.2336  0.4320 -0.2037
  180DOPC   H8X22110   1.386   0.516  -1.362  0.6418  0.7874  0.2515
  180DOPC   H8Y22111   1.543   0.502  -1.439  0.5809 -1.1761 -1.1832
  180DOPC   C3922112   1.460   0.322  -1.347 -0.0505  0.2265  0.0011
  180DOPC   H9X22113   1.434   0.230  -1.402  1.3528 -0.2251  0.0461
  180DOPC  C31022114   1.496   0.319  -1.217  0.0402 -0.1564 -0.1434
  180DOPC  H10X22115   1.506   0.215  -1.184 -2.0468  0.0128  1.1993
  180DOPC  C31122116   1.530   0.437  -1.126 -0.9397 -0.1580 -0.6481
  180DOPC  H11X22117   1.504   0.536  -1.169 -0.5676  0.4782  0.5086
  180DOPC  H11Y22118   1.640   0.445  -1.114 -1.0750  0.8789  0.0284
  180DOPC  C31222119   1.481   0.419  -0.982 -0.6786 -0.2260  0.1762
  180DOPC  H12X22120   1.502   0.317  -0.945  0.0637 -0.9184 -2.0222
  180DOPC  H12Y22121   1.373   0.438  -0.969 -1.4739 -2.6220 -2.1141
  180DOPC  C31322122   1.561   0.513  -0.883  1.3269 -0.5913  0.0562
  180DOPC  H13X22123   1.671   0.495  -0.890  1.5943 -0.1112  2.2483
  180DOPC  H13Y22124   1.537   0.619  -0.907 -2.4409 -1.3763 -0.1961
  180DOPC  C31422125   1.531   0.478  -0.732 -1.0220  0.2110  0.6061
  180DOPC  H14X22126   1.564   0.374  -0.712  1.2036  0.6270 -0.6730
  180DOPC  H14Y22127   1.590   0.549  -0.671 -0.8065 -0.2399  0.9258
  180DOPC  C31522128   1.386   0.504  -0.687  0.6333  0.5576  0.6232
  180DOPC  H15X22129   1.314   0.432  -0.732  1.9737 -0.4033 -0.0461
  180DOPC  H15Y22130   1.351   0.601  -0.726 -3.8063 -1.5102 -1.3056
  180DOPC  C31622131   1.363   0.482  -0.536 -0.2948 -0.0804 -0.1885
  180DOPC  H16X22132   1.373   0.373  -0.520  0.3859  0.0616  0.4220
  180DOPC  H16Y22133   1.429   0.544  -0.471 -1.8488 -0.8977  2.3401
  180DOPC  C31722134   1.220   0.522  -0.505  0.5773 -0.2304  0.1141
  180DOPC  H17X22135   1.208   0.633  -0.502  1.7541  0.0532 -2.8167
  180DOPC  H17Y22136   1.151   0.495  -0.587  0.0785 -1.6129  0.9563
  180DOPC  C31822137   1.150   0.453  -0.386  0.1685 -0.1584  0.1963
  180DOPC  H18X22138   1.167   0.343  -0.388 -0.0333 -0.2630  2.3640
  180DOPC  H18Y22139   1.182   0.486  -0.285 -2.2414  2.2795  0.2653
  180DOPC  H18Z22140   1.040   0.462  -0.388 -0.0980 -2.1583 -3.6714
  181DOPC     N22141  -2.557   1.891  -2.911 -0.0579  0.6488 -0.2443
  181DOPC   C1222142  -2.646   1.812  -2.809  0.1206  0.0077  0.3354
  181DOPC  H12A22143  -2.742   1.797  -2.855  0.4209  0.5108 -0.4827
  181DOPC  H12B22144  -2.668   1.883  -2.732  0.7413 -1.4488  1.9303
  181DOPC   C1322145  -2.498   1.799  -3.008  0.5798  0.0738  0.4518
  181DOPC  H13A22146  -2.426   1.849  -3.070 -1.6334  3.1007  0.1106
  181DOPC  H13B22147  -2.458   1.712  -2.957 -0.9993 -1.0652 -0.1466
  181DOPC  H13C22148  -2.570   1.759  -3.078  0.4404 -0.2141  0.7541
  181DOPC   C1422149  -2.444   1.966  -2.846  0.3940 -0.4590  0.1031
  181DOPC  H14A22150  -2.387   2.023  -2.918  2.4422 -0.1227  1.9041
  181DOPC  H14B22151  -2.476   2.019  -2.757  0.6768  1.1832 -0.7200
  181DOPC  H14C22152  -2.368   1.905  -2.800  0.4063  0.1272  0.8850
  181DOPC   C1522153  -2.628   1.995  -2.987 -0.0604  0.4922 -0.2226
  181DOPC  H15A22154  -2.563   2.032  -3.065 -0.4218  0.2575 -0.6444
  181DOPC  H15B22155  -2.660   2.074  -2.921 -1.4412 -0.2977  0.0798
  181DOPC  H15C22156  -2.711   1.950  -3.040 -0.0760 -0.9879  1.0103
  181DOPC   C1122157  -2.593   1.680  -2.760  0.3096 -0.5731  0.5464
  181DOPC  H11A22158  -2.639   1.652  -2.663  0.0657 -0.4314  0.4729
  181DOPC  H11B22159  -2.610   1.604  -2.839  0.6018  2.0621 -2.2297
  181DOPC     P22160  -2.355   1.579  -2.676  0.2267  0.0893  0.0087
  181DOPC   O1322161  -2.227   1.637  -2.629  0.0797  0.2221 -0.0695
  181DOPC   O1422162  -2.351   1.468  -2.778  0.0053 -0.2100  0.1689
  181DOPC   O1222163  -2.452   1.690  -2.729 -0.1090  0.0093 -0.0174
  181DOPC   O1122164  -2.441   1.526  -2.554 -0.5987 -0.3174 -0.0348
  181DOPC    C122165  -2.436   1.610  -2.431 -0.0590  0.0188  0.5292
  181DOPC    HA22166  -2.540   1.632  -2.400 -0.6206  0.2624 -1.3608
  181DOPC    HB22167  -2.393   1.711  -2.448  1.8518 -0.8942 -0.4377
  181DOPC    C222168  -2.365   1.539  -2.312  0.8187  0.4226 -0.4840
  181DOPC    HS22169  -2.290   1.478  -2.367 -0.3932 -0.9230 -0.6971
  181DOPC   O2122170  -2.466   1.467  -2.233  0.3351 -0.3526  0.3877
  181DOPC   C2122171  -2.405   1.362  -2.176 -0.5413 -0.1131 -0.6317
  181DOPC   O2222172  -2.288   1.333  -2.182 -0.3671  0.1308 -0.3177
  181DOPC   C2222173  -2.510   1.282  -2.098 -0.1217 -0.2674 -0.5872
  181DOPC   H2R22174  -2.574   1.220  -2.164  1.2834 -0.4152 -1.8657
  181DOPC   H2S22175  -2.576   1.360  -2.053 -0.1034  0.1213 -1.2300
  181DOPC    C322176  -2.287   1.641  -2.232 -0.1545  0.0370 -0.4811
  181DOPC    HX22177  -2.214   1.693  -2.297  2.6144  0.2079  2.4829
  181DOPC    HY22178  -2.223   1.584  -2.160 -0.3756 -0.4586 -0.6715
  181DOPC   O3122179  -2.364   1.739  -2.167 -0.7432  0.3922 -0.0165
  181DOPC   C3122180  -2.413   1.698  -2.055 -0.9015 -0.0597  0.3433
  181DOPC   O3222181  -2.371   1.611  -1.980 -1.0689  0.4565  1.0862
  181DOPC   C3222182  -2.552   1.764  -2.043  0.3440 -0.6684 -0.5777
  181DOPC   H2X22183  -2.542   1.873  -2.029 -0.1790 -0.7227  0.2773
  181DOPC   H2Y22184  -2.611   1.743  -2.135 -1.5152 -0.4756  0.5121
  181DOPC   C2322185  -2.455   1.196  -1.980 -0.3529 -0.2154  0.4328
  181DOPC   H3R22186  -2.348   1.170  -1.997  0.1443  0.2839  2.5064
  181DOPC   H3S22187  -2.517   1.104  -1.971 -0.3764 -0.1493  0.9787
  181DOPC   C2422188  -2.462   1.258  -1.839 -0.7754  0.1859  0.1442
  181DOPC   H4R22189  -2.562   1.290  -1.803  0.0612  0.6189  2.2336
  181DOPC   H4S22190  -2.391   1.344  -1.840  1.4434 -1.5432 -1.2624
  181DOPC   C2522191  -2.405   1.163  -1.727  0.6099  0.6243  1.0753
  181DOPC   H5R22192  -2.294   1.157  -1.732  0.5590 -0.0180  0.6930
  181DOPC   H5S22193  -2.443   1.061  -1.749 -0.4174  1.0551  0.7939
  181DOPC   C2622194  -2.455   1.194  -1.586 -1.1560 -0.8091 -0.1138
  181DOPC   H6R22195  -2.565   1.174  -1.588 -0.9722 -1.8053 -0.8588
  181DOPC   H6S22196  -2.444   1.305  -1.586 -0.4129 -0.8811 -0.5177
  181DOPC   C2722197  -2.395   1.121  -1.472  0.2164  0.4190 -0.0352
  181DOPC   H7R22198  -2.289   1.153  -1.462  0.7019 -1.4832  1.5968
  181DOPC   H7S22199  -2.400   1.012  -1.492 -2.6555  0.1282  1.6730
  181DOPC   C2822200  -2.464   1.152  -1.339  0.2276 -0.1005 -0.0654
  181DOPC   H8R22201  -2.399   1.106  -1.261  0.1026  0.9357  0.6754
  181DOPC   H8S22202  -2.561   1.099  -1.335 -0.0253  0.4314  1.2083
  181DOPC   C2922203  -2.466   1.298  -1.302 -0.5745 -0.1543  0.0506
  181DOPC   H9R22204  -2.464   1.369  -1.386  1.6416  2.2222  1.9351
  181DOPC  C21022205  -2.500   1.346  -1.179 -0.3598  0.0591  0.5313
  181DOPC  H10R22206  -2.488   1.455  -1.165  1.6922 -0.1015  0.3316
  181DOPC  C21122207  -2.535   1.273  -1.055 -0.4216 -0.0057  0.6020
  181DOPC  H11R22208  -2.538   1.162  -1.059  1.8321 -0.2935  3.4741
  181DOPC  H11S22209  -2.643   1.286  -1.031 -0.2655 -0.4290  1.5953
  181DOPC  C21222210  -2.433   1.314  -0.940  0.3877 -0.1019 -0.3728
  181DOPC  H12R22211  -2.441   1.424  -0.926 -1.5876  0.1419 -2.7740
  181DOPC  H12S22212  -2.330   1.281  -0.964  3.1488  4.4596  3.2988
  181DOPC  C21322213  -2.469   1.234  -0.809 -0.4654  1.3671  0.5850
  181DOPC  H13R22214  -2.456   1.126  -0.832  0.3902  1.5419  0.2302
  181DOPC  H13S22215  -2.576   1.257  -0.789 -0.5055  0.2716  1.7740
  181DOPC  C21422216  -2.374   1.276  -0.702 -0.0666 -0.1019  0.3556
  181DOPC  H14R22217  -2.387   1.387  -0.700 -1.4526 -0.2330  2.2781
  181DOPC  H14S22218  -2.265   1.256  -0.716 -0.2621 -0.7242 -0.3082
  181DOPC  C21522219  -2.422   1.237  -0.566 -0.0334  0.0211  0.1248
  181DOPC  H15R22220  -2.426   1.126  -0.565 -0.6954  0.0389  1.1723
  181DOPC  H15S22221  -2.530   1.267  -0.560  0.5800  2.1927  4.3032
  181DOPC  C21622222  -2.343   1.288  -0.446  0.3148 -0.1347  0.0510
  181DOPC  H16R22223  -2.331   1.396  -0.468 -1.8660  0.2527  0.5665
  181DOPC  H16S22224  -2.240   1.248  -0.438  0.0341 -0.7918  0.5289
  181DOPC  C21722225  -2.413   1.260  -0.314 -0.5014  0.5955  0.0301
  181DOPC  H17R22226  -2.520   1.288  -0.314 -0.0795  2.3725  0.8021
  181DOPC  H17S22227  -2.363   1.332  -0.246 -0.6272 -0.1480  0.9427
  181DOPC  C21822228  -2.388   1.115  -0.270 -0.8836  0.4171  0.1200
  181DOPC  H18R22229  -2.447   1.053  -0.341 -0.2710  1.4872 -1.3757
  181DOPC  H18S22230  -2.422   1.097  -0.166 -0.8859  1.4672  0.3078
  181DOPC  H18T22231  -2.280   1.089  -0.281 -0.8339  0.4617  0.4674
  181DOPC   C3322232  -2.636   1.709  -1.926 -0.4721  0.1155 -0.6786
  181DOPC   H3X22233  -2.623   1.599  -1.923 -1.0145  0.0676  0.2982
  181DOPC   H3Y22234  -2.741   1.741  -1.940 -0.1592  0.8910 -1.3933
  181DOPC   C3422235  -2.593   1.755  -1.785  0.3196  0.5475 -0.2537
  181DOPC   H4X22236  -2.626   1.860  -1.768 -1.0695  0.1848 -0.6129
  181DOPC   H4Y22237  -2.484   1.740  -1.770 -0.3557 -1.0569  5.6587
  181DOPC   C3522238  -2.661   1.673  -1.675 -0.4506  0.9765 -0.9018
  181DOPC   H5X22239  -2.619   1.571  -1.675  0.2234  1.1740  1.4751
  181DOPC   H5Y22240  -2.767   1.664  -1.706 -1.0317 -0.9345  1.3493
  181DOPC   C3622241  -2.645   1.723  -1.535  1.1447  0.3291 -0.1429
  181DOPC   H6X22242  -2.538   1.737  -1.509  0.0708  1.9329  4.3321
  181DOPC   H6Y22243  -2.701   1.817  -1.519 -1.7561 -0.9834 -1.7995
  181DOPC   C3722244  -2.701   1.616  -1.436 -0.1210 -0.1613  0.5106
  181DOPC   H7X22245  -2.811   1.600  -1.443 -0.2082  0.6110  0.0414
  181DOPC   H7Y22246  -2.655   1.521  -1.471 -1.1649 -0.0055 -1.4432
  181DOPC   C3822247  -2.658   1.643  -1.288 -0.3473 -0.4548  0.7741
  181DOPC   H8X22248  -2.552   1.676  -1.281 -0.7076  0.8594  0.2966
  181DOPC   H8Y22249  -2.661   1.542  -1.242  2.8048 -2.0331 -2.0479
  181DOPC   C3922250  -2.752   1.744  -1.227  0.2714  0.2022 -0.0086
  181DOPC   H9X22251  -2.780   1.820  -1.301  1.0789  0.3708 -0.1444
  181DOPC  C31022252  -2.815   1.735  -1.111  0.1557 -0.6238 -0.3640
  181DOPC  H10X22253  -2.876   1.817  -1.070  1.8946  0.9736 -0.8357
  181DOPC  C31122254  -2.785   1.644  -0.995 -0.4426  0.7892  0.2102
  181DOPC  H11X22255  -2.803   1.543  -1.038 -1.1382  0.4149  1.3375
  181DOPC  H11Y22256  -2.856   1.656  -0.911 -1.9971  0.7165 -1.0576
  181DOPC  C31222257  -2.640   1.638  -0.929 -0.1958 -0.2082 -0.9640
  181DOPC  H12X22258  -2.563   1.643  -1.009  2.8953  1.5611  1.8830
  181DOPC  H12Y22259  -2.636   1.534  -0.889 -1.7797  0.3083  0.6394
  181DOPC  C31322260  -2.630   1.735  -0.813  0.1536  0.1475  0.2147
  181DOPC  H13X22261  -2.657   1.840  -0.841 -1.2296  0.0261  1.0174
  181DOPC  H13Y22262  -2.713   1.716  -0.742  1.4025 -0.5641  1.5357
  181DOPC  C31422263  -2.502   1.740  -0.731  0.2557  0.2505 -0.9793
  181DOPC  H14X22264  -2.462   1.637  -0.720 -1.2154 -0.0925  1.9932
  181DOPC  H14Y22265  -2.431   1.805  -0.786  0.3190  0.7004 -0.3673
  181DOPC  C31522266  -2.534   1.788  -0.590 -0.7054 -0.2750  0.3981
  181DOPC  H15X22267  -2.595   1.710  -0.542 -0.3125  0.1644  1.6673
  181DOPC  H15Y22268  -2.589   1.885  -0.592  0.7194  0.6500  2.4243
  181DOPC  C31622269  -2.400   1.792  -0.511  0.2437  0.6694 -0.1940
  181DOPC  H16X22270  -2.351   1.694  -0.531 -0.6708  0.1528  0.0582
  181DOPC  H16Y22271  -2.337   1.871  -0.556  0.0380  2.1609  1.9586
  181DOPC  C31722272  -2.425   1.824  -0.363 -0.5811 -0.4516  0.3080
  181DOPC  H17X22273  -2.481   1.920  -0.360 -0.8223 -0.6098  2.5443
  181DOPC  H17Y22274  -2.488   1.742  -0.321 -0.8145 -1.8784 -2.5589
  181DOPC  C31822275  -2.299   1.827  -0.277  0.7840  0.4180 -0.0904
  181DOPC  H18X22276  -2.313   1.857  -0.171  0.6648  1.3265 -0.3515
  181DOPC  H18Y22277  -2.241   1.733  -0.279  1.2786  0.7306 -1.4912
  181DOPC  H18Z22278  -2.231   1.900  -0.327  1.4078  1.5117  2.1825
  182DOPC     N22279  -2.184  -1.610  -2.284  0.7994 -0.3700  0.4193
  182DOPC   C1222280  -2.085  -1.701  -2.215  0.3233 -0.0903  0.5066
  182DOPC  H12A22281  -2.120  -1.803  -2.227 -1.5664  0.5153  0.5257
  182DOPC  H12B22282  -2.082  -1.672  -2.111  0.4090  1.4326  0.0912
  182DOPC   C1322283  -2.326  -1.631  -2.232 -0.7900 -0.3587  0.2087
  182DOPC  H13A22284  -2.392  -1.590  -2.307 -0.2062  1.1437  0.4764
  182DOPC  H13B22285  -2.334  -1.737  -2.214  0.5270 -0.9151 -2.0601
  182DOPC  H13C22286  -2.335  -1.572  -2.142  2.2040  1.7447 -0.7031
  182DOPC   C1422287  -2.183  -1.656  -2.431  0.0671  0.1161  0.7817
  182DOPC  H14A22288  -2.258  -1.601  -2.486  0.3800  1.3868  1.5846
  182DOPC  H14B22289  -2.083  -1.629  -2.461  0.4675 -0.1391  1.8294
  182DOPC  H14C22290  -2.186  -1.764  -2.434  0.1426  0.1295 -0.2064
  182DOPC   C1522291  -2.154  -1.460  -2.284 -0.3277 -0.1810  0.4188
  182DOPC  H15A22292  -2.167  -1.404  -2.192  2.1970  2.8245 -0.8820
  182DOPC  H15B22293  -2.207  -1.414  -2.366  3.2472 -0.7348 -2.4357
  182DOPC  H15C22294  -2.048  -1.453  -2.301 -0.1014 -3.9942 -0.7949
  182DOPC   C1122295  -1.944  -1.703  -2.275  0.9293  0.4024  0.2828
  182DOPC  H11A22296  -1.884  -1.776  -2.216  1.2313 -1.8502 -2.5656
  182DOPC  H11B22297  -1.951  -1.750  -2.375  1.1369 -0.6405  0.7476
  182DOPC     P22298  -1.801  -1.504  -2.187  0.3849  0.2339 -0.0551
  182DOPC   O1322299  -1.756  -1.381  -2.253  0.5523 -0.0209  0.5711
  182DOPC   O1422300  -1.701  -1.598  -2.131  0.5126 -0.8059  0.0453
  182DOPC   O1222301  -1.883  -1.577  -2.293  0.2889 -0.6031  0.8285
  182DOPC   O1122302  -1.916  -1.464  -2.085 -0.4765  0.1845 -0.0266
  182DOPC    C122303  -1.910  -1.467  -1.942  0.4090  0.5905  0.2135
  182DOPC    HA22304  -1.922  -1.370  -1.890 -0.4064 -0.2015  1.5502
  182DOPC    HB22305  -1.814  -1.517  -1.916  1.4539  2.1449 -0.4489
  182DOPC    C222306  -2.022  -1.560  -1.888  0.9503  0.1989  0.5930
  182DOPC    HS22307  -2.031  -1.642  -1.963 -3.3961  0.2419  0.8234
  182DOPC   O2122308  -2.149  -1.487  -1.888 -0.3580 -0.4987  0.1841
  182DOPC   C2122309  -2.261  -1.558  -1.894  0.1417 -0.3982 -0.1295
  182DOPC   O2222310  -2.265  -1.676  -1.920  0.2893 -0.2885  0.0112
  182DOPC   C2222311  -2.377  -1.465  -1.875  0.2012 -0.6946  0.0413
  182DOPC   H2R22312  -2.419  -1.455  -1.977  0.7272 -0.3766 -0.1467
  182DOPC   H2S22313  -2.336  -1.366  -1.844 -1.3910  0.1827 -0.5007
  182DOPC    C322314  -1.990  -1.625  -1.755 -0.0366 -0.3662 -0.8571
  182DOPC    HX22315  -1.894  -1.681  -1.762 -1.2233 -2.6537  0.0056
  182DOPC    HY22316  -2.068  -1.699  -1.725 -0.9065  1.1086  0.7117
  182DOPC   O3122317  -1.984  -1.531  -1.643  0.0089 -0.0320  0.2244
  182DOPC   C3122318  -1.938  -1.590  -1.528  0.1709  0.2462  0.2749
  182DOPC   O3222319  -1.937  -1.708  -1.510 -0.2001 -0.1786  0.9516
  182DOPC   C3222320  -1.869  -1.483  -1.440  0.4345  0.7390  0.3536
  182DOPC   H2X22321  -1.764  -1.478  -1.476  0.0369  1.6233 -0.7178
  182DOPC   H2Y22322  -1.917  -1.385  -1.459  1.3851  1.0450 -0.5665
  182DOPC   C2322323  -2.486  -1.526  -1.773 -0.4109  0.4367 -0.5354
  182DOPC   H3R22324  -2.494  -1.634  -1.797  0.0586  0.2421  0.1641
  182DOPC   H3S22325  -2.583  -1.473  -1.788 -0.5814 -0.0484 -1.1819
  182DOPC   C2422326  -2.452  -1.520  -1.621 -0.0436 -0.2587 -0.2841
  182DOPC   H4R22327  -2.368  -1.592  -1.607  0.0959  0.1427  1.1254
  182DOPC   H4S22328  -2.530  -1.568  -1.558 -1.4647  0.7750 -1.2151
  182DOPC   C2522329  -2.418  -1.384  -1.563  0.1427  0.4578  0.3199
  182DOPC   H5R22330  -2.495  -1.306  -1.585  0.1644  1.0437  2.0998
  182DOPC   H5S22331  -2.321  -1.349  -1.604 -0.3218  0.5807 -0.6887
  182DOPC   C2622332  -2.398  -1.386  -1.410  0.2358 -0.3166 -0.0463
  182DOPC   H6R22333  -2.492  -1.412  -1.358  1.0342  0.9918  2.1735
  182DOPC   H6S22334  -2.374  -1.281  -1.383  0.8732 -0.1743 -1.1132
  182DOPC   C2722335  -2.282  -1.477  -1.351 -0.5268 -0.0801 -0.0618
  182DOPC   H7R22336  -2.184  -1.463  -1.401  0.6487 -0.1948  2.1064
  182DOPC   H7S22337  -2.313  -1.583  -1.367 -2.2791  0.2581  0.8416
  182DOPC   C2822338  -2.266  -1.452  -1.195 -0.4875  0.4188  0.2082
  182DOPC   H8R22339  -2.252  -1.344  -1.172 -1.0897  0.3731  0.8158
  182DOPC   H8S22340  -2.185  -1.521  -1.164 -0.9599  0.0271  0.5838
  182DOPC   C2922341  -2.384  -1.505  -1.117 -0.2498 -0.6196 -0.1071
  182DOPC   H9R22342  -2.454  -1.576  -1.165 -1.5176  0.8404 -0.4876
  182DOPC  C21022343  -2.418  -1.471  -0.993 -0.0693  0.0537 -0.4132
  182DOPC  H10R22344  -2.508  -1.516  -0.948  1.2276 -2.6689 -0.2973
  182DOPC  C21122345  -2.349  -1.379  -0.899  0.5300  0.0576 -0.4380
  182DOPC  H11R22346  -2.305  -1.288  -0.947 -0.1912  0.3046 -0.6428
  182DOPC  H11S22347  -2.259  -1.436  -0.868 -0.0150 -0.2287  0.6317
  182DOPC  C21222348  -2.442  -1.343  -0.775 -0.7806  0.1932  0.2785
  182DOPC  H12R22349  -2.493  -1.433  -0.735 -0.0774 -0.0462  0.6466
  182DOPC  H12S22350  -2.525  -1.281  -0.815 -0.1217  2.3023  2.0045
  182DOPC  C21322351  -2.380  -1.261  -0.667 -0.4669 -0.1451  0.6806
  182DOPC  H13R22352  -2.366  -1.156  -0.701  0.2721 -0.0677  1.2192
  182DOPC  H13S22353  -2.281  -1.307  -0.651 -1.3134 -1.9265  1.0418
  182DOPC  C21422354  -2.452  -1.274  -0.535  0.1423 -0.1050 -0.3508
  182DOPC  H14R22355  -2.450  -1.378  -0.494 -2.0875 -0.0596  0.0226
  182DOPC  H14S22356  -2.558  -1.249  -0.559 -0.2986 -0.7809  0.7968
  182DOPC  C21522357  -2.406  -1.181  -0.419  0.5625 -0.8249  0.2946
  182DOPC  H15R22358  -2.392  -1.084  -0.470 -2.1696  0.3500  1.5869
  182DOPC  H15S22359  -2.308  -1.222  -0.385  1.3621  0.4903 -0.3639
  182DOPC  C21622360  -2.505  -1.152  -0.301 -0.1578  0.3189  0.4165
  182DOPC  H16R22361  -2.526  -1.243  -0.241  1.0459 -0.1784  0.1200
  182DOPC  H16S22362  -2.602  -1.118  -0.341  0.2296 -0.4733 -1.2786
  182DOPC  C21722363  -2.445  -1.036  -0.227 -0.3659 -0.1780  0.0852
  182DOPC  H17R22364  -2.429  -0.960  -0.306  0.4329  0.3831  0.7717
  182DOPC  H17S22365  -2.344  -1.056  -0.185  0.9039  1.5899 -1.9315
  182DOPC  C21822366  -2.536  -0.968  -0.119 -0.0998 -0.6801 -0.5349
  182DOPC  H18R22367  -2.475  -0.894  -0.061 -0.7584 -1.2473  0.9188
  182DOPC  H18S22368  -2.566  -1.044  -0.044  0.3777 -0.6203 -0.2801
  182DOPC  H18T22369  -2.620  -0.911  -0.163  0.8641  0.6419 -0.7494
  182DOPC   C3322370  -1.877  -1.498  -1.279  0.6796  0.3657 -0.5405
  182DOPC   H3X22371  -1.978  -1.479  -1.236  0.2058 -1.6008 -0.6567
  182DOPC   H3Y22372  -1.805  -1.426  -1.236  0.2637 -0.7937  2.3535
  182DOPC   C3422373  -1.827  -1.625  -1.215  0.2139 -0.1853 -0.1061
  182DOPC   H4X22374  -1.749  -1.661  -1.285  0.1815  0.2189 -0.3526
  182DOPC   H4Y22375  -1.909  -1.700  -1.210 -1.0469  1.1718  0.4225
  182DOPC   C3522376  -1.760  -1.611  -1.072 -0.1069 -0.4938  0.5795
  182DOPC   H5X22377  -1.668  -1.548  -1.082 -1.4349  1.5827  0.8519
  182DOPC   H5Y22378  -1.733  -1.710  -1.028 -0.2158  0.2743  2.5108
  182DOPC   C3622379  -1.856  -1.544  -0.966  0.0459 -0.0290 -0.3546
  182DOPC   H6X22380  -1.859  -1.436  -0.988  0.2685 -0.0257 -0.3754
  182DOPC   H6Y22381  -1.957  -1.584  -0.986 -0.8208  2.0859 -0.4192
  182DOPC   C3722382  -1.812  -1.564  -0.820  0.1396  0.1210  0.3418
  182DOPC   H7X22383  -1.822  -1.670  -0.787  1.4366 -0.2347 -0.3375
  182DOPC   H7Y22384  -1.701  -1.559  -0.821  0.2878 -0.7404 -3.1728
  182DOPC   C3822385  -1.876  -1.462  -0.723 -0.3087 -0.5900  0.2921
  182DOPC   H8X22386  -1.894  -1.368  -0.779  0.1936  0.2884  1.5477
  182DOPC   H8Y22387  -1.799  -1.429  -0.650 -0.5667  0.9077 -0.0906
  182DOPC   C3922388  -1.999  -1.508  -0.653  0.7369  0.1431 -0.1509
  182DOPC   H9X22389  -2.089  -1.493  -0.714  0.3969 -2.1959 -0.2972
  182DOPC  C31022390  -2.012  -1.542  -0.528 -0.0908 -0.3726  0.1510
  182DOPC  H10X22391  -2.110  -1.584  -0.502 -0.5196  0.2923 -0.3822
  182DOPC  C31122392  -1.900  -1.570  -0.434 -0.4980  0.2127  0.2446
  182DOPC  H11X22393  -1.809  -1.612  -0.481 -0.3599 -0.8830  1.4368
  182DOPC  H11Y22394  -1.935  -1.656  -0.374 -0.8947  0.1962 -0.0065
  182DOPC  C31222395  -1.867  -1.462  -0.334 -0.4112  0.0327 -0.2057
  182DOPC  H12X22396  -1.855  -1.374  -0.402 -1.2495 -0.1608 -0.6236
  182DOPC  H12Y22397  -1.768  -1.483  -0.290  1.3699 -3.4932 -5.0154
  182DOPC  C31322398  -1.985  -1.423  -0.243  0.4272  0.6193  0.5739
  182DOPC  H13X22399  -2.064  -1.381  -0.309  0.7020  0.0503 -0.1344
  182DOPC  H13Y22400  -2.029  -1.517  -0.203 -0.7220  0.1743 -1.5963
  182DOPC  C31422401  -1.954  -1.319  -0.145 -0.2333 -0.0441 -0.6189
  182DOPC  H14X22402  -1.867  -1.346  -0.081  0.0450  0.9647 -0.5600
  182DOPC  H14Y22403  -1.920  -1.226  -0.194  0.7600  1.7052  3.0588
  182DOPC  C31522404  -2.066  -1.282  -0.041  0.1068  0.4655 -0.3000
  182DOPC  H15X22405  -2.154  -1.232  -0.085  0.5144  1.2100 -0.2904
  182DOPC  H15Y22406  -2.025  -1.212   0.036 -0.0749  0.0583  0.1749
  182DOPC  C31622407  -2.130  -1.406   0.026  0.0920  0.5684 -0.4947
  182DOPC  H16X22408  -2.228  -1.387   0.076  0.7603 -1.2879  1.6729
  182DOPC  H16Y22409  -2.162  -1.484  -0.047 -1.2960  0.9356 -0.3052
  182DOPC  C31722410  -2.039  -1.462   0.139  0.1811 -0.5999  0.0116
  182DOPC  H17X22411  -1.948  -1.513   0.099 -0.0575 -1.4026  0.4582
  182DOPC  H17Y22412  -1.997  -1.389   0.211  0.3867 -1.6751  1.0300
  182DOPC  C31822413  -2.100  -1.561   0.239 -0.8502 -0.0952  0.2410
  182DOPC  H18X22414  -2.202  -1.547   0.282 -0.8889  1.5501 -0.3554
  182DOPC  H18Y22415  -2.109  -1.659   0.187  0.6578  0.2483 -0.7172
  182DOPC  H18Z22416  -2.025  -1.594   0.314 -1.7557 -3.0540 -0.0115
  183DOPC     N22417   2.547   1.586  -2.619 -0.0651 -0.3473 -0.4164
  183DOPC   C1222418   2.593   1.444  -2.598  0.4070  0.0525 -0.6776
  183DOPC  H12A22419   2.688   1.443  -2.547  0.9968 -4.6956 -1.4215
  183DOPC  H12B22420   2.609   1.391  -2.691 -0.7846 -0.4577 -0.6104
  183DOPC   C1322421   2.411   1.587  -2.681  0.5666 -0.2580 -0.6407
  183DOPC  H13A22422   2.359   1.680  -2.659 -0.2438 -0.6905 -0.6965
  183DOPC  H13B22423   2.417   1.550  -2.782  0.2899 -2.1080 -0.0187
  183DOPC  H13C22424   2.346   1.516  -2.631  1.3581  0.5930  1.7586
  183DOPC   C1422425   2.651   1.654  -2.711  0.0253 -0.0200 -0.0222
  183DOPC  H14A22426   2.750   1.647  -2.669  0.2944 -2.0326 -0.8767
  183DOPC  H14B22427   2.641   1.612  -2.810  0.1497  0.9107 -0.4368
  183DOPC  H14C22428   2.632   1.758  -2.733 -1.7272 -0.0660  1.0176
  183DOPC   C1522429   2.546   1.664  -2.489  0.1785  0.2224 -0.1976
  183DOPC  H15A22430   2.640   1.656  -2.437  0.2665  0.3855 -0.3296
  183DOPC  H15B22431   2.470   1.614  -2.431  0.5241 -0.8769 -0.6588
  183DOPC  H15C22432   2.522   1.765  -2.517  0.4187  0.0494 -1.0740
  183DOPC   C1122433   2.505   1.348  -2.507 -0.6316  0.5869 -0.2810
  183DOPC  H11A22434   2.563   1.257  -2.480 -0.0223  1.6125  2.0924
  183DOPC  H11B22435   2.477   1.402  -2.415 -2.6867 -0.3364 -0.3018
  183DOPC     P22436   2.398   1.214  -2.702 -0.3530  0.4531 -0.0271
  183DOPC   O1322437   2.542   1.184  -2.732  0.0036 -0.5512  0.6429
  183DOPC   O1422438   2.311   1.255  -2.811  0.4729  0.5788 -0.3885
  183DOPC   O1222439   2.385   1.312  -2.576 -0.6797  0.2961  0.0924
  183DOPC   O1122440   2.341   1.073  -2.668  1.2466  0.0263 -0.0355
  183DOPC    C122441   2.380   1.005  -2.549  0.2302  1.0152  0.1790
  183DOPC    HA22442   2.490   1.009  -2.534  0.6031 -1.0303 -1.5565
  183DOPC    HB22443   2.367   0.895  -2.550  5.3990  0.1500  0.1551
  183DOPC    C222444   2.308   1.048  -2.419 -0.5717  0.1594  0.4328
  183DOPC    HS22445   2.337   1.149  -2.382  1.5005 -0.2263 -0.0255
  183DOPC   O2122446   2.314   0.954  -2.312  0.1696  0.6920  0.4328
  183DOPC   C2122447   2.432   0.960  -2.250  0.9231  0.0306  0.7234
  183DOPC   O2222448   2.523   1.037  -2.281  0.1394 -0.0729  0.1104
  183DOPC   C2222449   2.434   0.857  -2.139 -0.0407  0.5115  0.2891
  183DOPC   H2R22450   2.539   0.865  -2.103  0.1173 -3.0462  0.9464
  183DOPC   H2S22451   2.422   0.757  -2.186 -0.6518  1.9670 -2.9669
  183DOPC    C322452   2.157   1.066  -2.448  0.0810 -0.5751  0.4122
  183DOPC    HX22453   2.126   0.969  -2.492 -1.6949  0.3285 -0.4818
  183DOPC    HY22454   2.152   1.151  -2.520  0.4728 -0.6717  0.2676
  183DOPC   O3122455   2.084   1.113  -2.330 -0.0953 -0.4925  0.0939
  183DOPC   C3122456   1.973   1.052  -2.307  1.4718  0.2333 -0.2556
  183DOPC   O3222457   1.902   0.992  -2.388 -0.3582  0.4272  0.3829
  183DOPC   C3222458   1.934   1.062  -2.162  0.1033  0.2324 -0.0790
  183DOPC   H2X22459   1.845   1.128  -2.169  0.0358 -0.0470 -3.7940
  183DOPC   H2Y22460   1.907   0.960  -2.130 -1.0034  0.1495 -1.1958
  183DOPC   C2322461   2.339   0.871  -2.019 -0.8488  0.1660  0.2614
  183DOPC   H3R22462   2.260   0.794  -2.006  0.8723 -2.3691 -2.8912
  183DOPC   H3S22463   2.293   0.972  -2.022  0.9891  1.0732  1.1370
  183DOPC   C2422464   2.408   0.863  -1.874 -0.2540  0.1955  0.8580
  183DOPC   H4R22465   2.488   0.940  -1.868  0.1958  0.2026 -2.9961
  183DOPC   H4S22466   2.454   0.762  -1.870  1.9283  1.1220  0.7331
  183DOPC   C2522467   2.308   0.892  -1.762  0.5515 -0.8473 -0.1243
  183DOPC   H5R22468   2.239   0.806  -1.774 -1.0187  0.5593 -1.7188
  183DOPC   H5S22469   2.248   0.984  -1.778 -1.5586 -1.5254  3.0115
  183DOPC   C2622470   2.369   0.921  -1.626  0.1871  0.7073  0.1173
  183DOPC   H6R22471   2.412   1.024  -1.631 -0.3164  0.8704 -1.2824
  183DOPC   H6S22472   2.452   0.850  -1.609 -0.2810  0.5951  2.3224
  183DOPC   C2722473   2.264   0.914  -1.516 -0.3757 -0.1786 -0.2243
  183DOPC   H7R22474   2.240   0.808  -1.498 -2.1736  0.0895 -0.9215
  183DOPC   H7S22475   2.167   0.964  -1.534 -0.6860 -1.4402 -2.2651
  183DOPC   C2822476   2.338   0.961  -1.383  0.0732  0.4586 -0.0840
  183DOPC   H8R22477   2.373   1.067  -1.389  0.5026  0.3106 -0.2546
  183DOPC   H8S22478   2.423   0.890  -1.377 -0.6389 -0.4816 -0.8449
  183DOPC   C2922479   2.244   0.950  -1.266 -0.3366 -0.4933  0.7457
  183DOPC   H9R22480   2.168   0.873  -1.283 -2.1135  1.4017 -0.3611
  183DOPC  C21022481   2.227   1.034  -1.163  0.3707  0.2475 -0.1762
  183DOPC  H10R22482   2.167   1.001  -1.077 -1.7699  1.6506 -1.0322
  183DOPC  C21122483   2.304   1.157  -1.132 -0.6289  0.0340 -0.5914
  183DOPC  H11R22484   2.237   1.244  -1.146 -1.3910 -0.1902  1.3806
  183DOPC  H11S22485   2.386   1.166  -1.207 -2.0148 -1.0113 -2.3269
  183DOPC  C21222486   2.368   1.184  -0.992  0.0165  0.0132  0.0509
  183DOPC  H12R22487   2.285   1.200  -0.920  0.7705 -1.6638  1.3600
  183DOPC  H12S22488   2.444   1.265  -0.985 -0.4686  0.3324  3.5230
  183DOPC  C21322489   2.446   1.068  -0.935 -0.4047 -0.1330  0.0163
  183DOPC  H13R22490   2.523   1.043  -1.011  0.9733 -1.3489  1.7334
  183DOPC  H13S22491   2.374   0.986  -0.916 -0.1391 -0.7516 -1.5560
  183DOPC  C21422492   2.529   1.105  -0.809 -0.9558  0.0025 -0.5979
  183DOPC  H14R22493   2.606   1.180  -0.838 -1.9874  0.8294 -1.2996
  183DOPC  H14S22494   2.583   1.013  -0.781  0.6065  0.0487 -3.1552
  183DOPC  C21522495   2.440   1.170  -0.701 -0.0956  0.3707 -0.4235
  183DOPC  H15R22496   2.355   1.103  -0.675  2.6429 -2.1757  2.7872
  183DOPC  H15S22497   2.400   1.263  -0.748  1.3745  0.9385 -0.5977
  183DOPC  C21622498   2.504   1.207  -0.565 -0.0215 -0.3829 -0.4533
  183DOPC  H16R22499   2.613   1.203  -0.586 -0.1413 -2.5469 -0.9076
  183DOPC  H16S22500   2.483   1.129  -0.489 -0.6809  0.1648 -0.0697
  183DOPC  C21722501   2.453   1.345  -0.508 -0.4387 -0.2829  0.0625
  183DOPC  H17R22502   2.343   1.347  -0.499 -0.3990  3.2630  1.0327
  183DOPC  H17S22503   2.489   1.434  -0.563 -1.0545  0.4039  0.7551
  183DOPC  C21822504   2.503   1.360  -0.368 -0.3333 -0.4964  0.4234
  183DOPC  H18R22505   2.430   1.434  -0.328 -1.0937 -0.2048 -1.4253
  183DOPC  H18S22506   2.608   1.396  -0.359 -0.6978  1.0535 -0.9608
  183DOPC  H18T22507   2.485   1.269  -0.307 -3.3367  0.1531  0.6714
  183DOPC   C3322508   2.028   1.146  -2.074 -0.1656  0.3371  0.4864
  183DOPC   H3X22509   1.999   1.252  -2.086 -2.3403 -0.3783 -1.1735
  183DOPC   H3Y22510   2.136   1.134  -2.097  0.5207  0.8612  3.0493
  183DOPC   C3422511   2.014   1.127  -1.917 -0.5915  0.1443 -0.5374
  183DOPC   H4X22512   2.106   1.169  -1.870  0.6326 -1.3740 -1.4898
  183DOPC   H4Y22513   2.006   1.019  -1.891  1.9036  0.0017 -0.1247
  183DOPC   C3522514   1.890   1.198  -1.861 -0.0159  0.5122 -0.2171
  183DOPC   H5X22515   1.803   1.179  -1.928 -1.8881 -1.9962  2.6432
  183DOPC   H5Y22516   1.915   1.305  -1.874 -1.4570  0.8038 -0.8804
  183DOPC   C3622517   1.860   1.176  -1.710  0.3123  0.1341  0.0423
  183DOPC   H6X22518   1.781   1.248  -1.682 -0.5662  0.1015 -2.1366
  183DOPC   H6Y22519   1.820   1.073  -1.707 -0.7388  0.3226 -3.2218
  183DOPC   C3722520   1.980   1.190  -1.613 -0.3683  0.6151  0.1475
  183DOPC   H7X22521   2.069   1.129  -1.640 -1.7810 -1.2607 -0.5242
  183DOPC   H7Y22522   2.014   1.295  -1.626 -0.9434  0.6553 -1.2021
  183DOPC   C3822523   1.934   1.172  -1.457 -0.4507 -0.0713  0.4345
  183DOPC   H8X22524   2.021   1.155  -1.390 -0.1175 -0.7664 -0.1664
  183DOPC   H8Y22525   1.871   1.080  -1.454  0.3121 -0.8645 -3.1308
  183DOPC   C3922526   1.857   1.290  -1.412 -0.2231 -0.4349  0.7701
  183DOPC   H9X22527   1.778   1.325  -1.481  0.0902 -1.1053  0.0604
  183DOPC  C31022528   1.872   1.359  -1.294  0.3356  0.2005 -0.4736
  183DOPC  H10X22529   1.789   1.421  -1.255  1.9593  1.6368  0.8183
  183DOPC  C31122530   1.973   1.328  -1.187 -0.7538 -0.1440  0.3479
  183DOPC  H11X22531   2.056   1.403  -1.185  2.8506 -3.7894  0.7544
  183DOPC  H11Y22532   2.027   1.234  -1.210 -0.6241 -0.4535  1.8658
  183DOPC  C31222533   1.908   1.329  -1.050 -0.4882  0.4106 -0.6719
  183DOPC  H12X22534   1.835   1.246  -1.055 -0.0550 -0.1512  1.4729
  183DOPC  H12Y22535   1.857   1.426  -1.033 -0.9149  0.0066  0.4630
  183DOPC  C31322536   2.010   1.287  -0.933  0.1069 -0.0924  0.7679
  183DOPC  H13X22537   2.061   1.193  -0.963  1.0182  0.5441  0.2646
  183DOPC  H13Y22538   2.082   1.371  -0.922  1.2888 -1.4037  4.2068
  183DOPC  C31422539   1.930   1.271  -0.804  0.4369  0.1121 -0.2406
  183DOPC  H14X22540   1.860   1.356  -0.792  0.1029 -0.2835  0.7256
  183DOPC  H14Y22541   1.871   1.178  -0.814  0.7234  0.0746 -1.7210
  183DOPC  C31522542   2.034   1.249  -0.688  0.9267  0.1266 -0.8682
  183DOPC  H15X22543   2.092   1.340  -0.662  0.3103 -0.2078  1.9476
  183DOPC  H15Y22544   2.104   1.164  -0.704 -0.5781 -0.9299 -2.0185
  183DOPC  C31622545   1.962   1.235  -0.551  0.2450 -0.8581  0.2488
  183DOPC  H16X22546   1.907   1.330  -0.534  0.5730 -0.6999  0.4359
  183DOPC  H16Y22547   1.879   1.161  -0.555 -0.2318 -0.2732 -0.9953
  183DOPC  C31722548   2.055   1.195  -0.441 -0.5321 -0.4846 -0.2068
  183DOPC  H17X22549   2.158   1.181  -0.478  0.5104 -2.2801  2.9844
  183DOPC  H17Y22550   2.056   1.283  -0.374 -1.2161  0.1379 -0.9897
  183DOPC  C31822551   2.011   1.069  -0.369 -0.3783  0.5626  1.0697
  183DOPC  H18X22552   1.979   0.993  -0.443  0.2627  0.4299  0.9170
  183DOPC  H18Y22553   2.095   1.015  -0.319  0.7624  0.8807 -0.4262
  183DOPC  H18Z22554   1.923   1.084  -0.303 -0.0096 -0.3282  1.7985
  184DOPC     N22555   0.698  -2.110  -2.763  0.2490  0.0822 -0.0034
  184DOPC   C1222556   0.735  -2.043  -2.636 -0.2309 -0.0787 -0.1472
  184DOPC  H12A22557   0.739  -1.936  -2.651 -3.5637  0.2047  0.1204
  184DOPC  H12B22558   0.827  -2.087  -2.602  0.4731  2.4561  1.4542
  184DOPC   C1322559   0.679  -2.253  -2.737 -0.7523 -0.2277  0.3567
  184DOPC  H13A22560   0.618  -2.274  -2.650  0.0652 -0.6135  0.8554
  184DOPC  H13B22561   0.636  -2.302  -2.822 -0.0576 -1.5243  0.7251
  184DOPC  H13C22562   0.769  -2.306  -2.711 -0.6176  0.8003  2.2251
  184DOPC   C1422563   0.807  -2.095  -2.857 -0.1010  0.1035 -0.2382
  184DOPC  H14A22564   0.902  -2.127  -2.816 -0.0074 -0.1454 -0.6497
  184DOPC  H14B22565   0.781  -2.146  -2.948  1.9075 -1.7690  0.1545
  184DOPC  H14C22566   0.823  -1.992  -2.887 -0.2802 -0.3789 -2.0989
  184DOPC   C1522567   0.573  -2.059  -2.831  0.0425  0.2214  0.1313
  184DOPC  H15A22568   0.567  -2.099  -2.931  0.5872  3.0357 -1.1182
  184DOPC  H15B22569   0.576  -1.951  -2.835 -1.4945  0.2489 -1.6349
  184DOPC  H15C22570   0.488  -2.089  -2.773  0.6257 -1.0357  0.3631
  184DOPC   C1122571   0.639  -2.051  -2.514  0.4147  0.0305 -0.5145
  184DOPC  H11A22572   0.615  -2.156  -2.486  1.6684 -0.7139 -2.1017
  184DOPC  H11B22573   0.685  -2.021  -2.417  1.5902  1.7947 -1.5428
  184DOPC     P22574   0.504  -1.826  -2.519 -0.2014 -0.0223 -0.2886
  184DOPC   O1322575   0.361  -1.783  -2.496 -0.2804 -0.6064 -0.0999
  184DOPC   O1422576   0.574  -1.771  -2.638  0.0117  0.9553  0.0505
  184DOPC   O1222577   0.515  -1.986  -2.532 -0.0657 -0.7784  1.1475
  184DOPC   O1122578   0.580  -1.793  -2.383 -0.0879 -0.9986  0.3586
  184DOPC    C122579   0.713  -1.744  -2.394  0.1567 -0.5089  0.2361
  184DOPC    HA22580   0.716  -1.637  -2.425 -2.6443  0.2190  2.0659
  184DOPC    HB22581   0.777  -1.803  -2.463 -0.5224  0.5865 -1.3781
  184DOPC    C222582   0.780  -1.753  -2.250 -0.3620 -0.2507  0.4997
  184DOPC    HS22583   0.778  -1.861  -2.223 -2.3378 -0.4471 -0.2664
  184DOPC   O2122584   0.700  -1.667  -2.166 -0.3002 -0.0649 -0.4655
  184DOPC   C2122585   0.650  -1.717  -2.056  0.8876  0.7419  0.6865
  184DOPC   O2222586   0.642  -1.837  -2.031 -0.1922 -0.3109  0.2943
  184DOPC   C2222587   0.601  -1.604  -1.967 -0.7312  0.3430  0.1210
  184DOPC   H2R22588   0.521  -1.552  -2.025 -0.4660 -1.5932 -2.1406
  184DOPC   H2S22589   0.676  -1.525  -1.947 -0.2386  0.2633 -1.3005
  184DOPC    C322590   0.924  -1.698  -2.251 -0.3101 -0.3275 -0.0949
  184DOPC    HX22591   0.920  -1.600  -2.304  0.6983  0.5996  1.4765
  184DOPC    HY22592   0.991  -1.760  -2.315  1.2311  1.3515 -0.1846
  184DOPC   O3122593   0.984  -1.700  -2.116  0.2718 -0.7544  1.1126
  184DOPC   C3122594   1.094  -1.620  -2.114 -0.1465  0.5901 -0.5258
  184DOPC   O3222595   1.128  -1.557  -2.210  0.2099 -0.0301 -0.3148
  184DOPC   C3222596   1.168  -1.618  -1.981 -0.3848  0.3681  0.3273
  184DOPC   H2X22597   1.111  -1.563  -1.903  0.3696 -1.3427  2.1788
  184DOPC   H2Y22598   1.181  -1.719  -1.937  0.9793  0.1955 -0.4427
  184DOPC   C2322599   0.541  -1.654  -1.837  0.1990 -0.3573 -0.3819
  184DOPC   H3R22600   0.609  -1.718  -1.777 -1.5544 -1.5629  0.4161
  184DOPC   H3S22601   0.448  -1.708  -1.865  0.7158 -2.7720  2.1003
  184DOPC   C2422602   0.508  -1.536  -1.737 -0.0424  0.3191  0.2124
  184DOPC   H4R22603   0.419  -1.550  -1.672 -0.3152  2.1847  0.2868
  184DOPC   H4S22604   0.471  -1.460  -1.808  0.4072 -0.6538 -1.1158
  184DOPC   C2522605   0.632  -1.482  -1.664  0.4586  0.2446 -0.3123
  184DOPC   H5R22606   0.613  -1.373  -1.664  0.3013  0.2209  0.8047
  184DOPC   H5S22607   0.725  -1.495  -1.724 -0.1590  0.5909 -1.3794
  184DOPC   C2622608   0.651  -1.554  -1.530  0.6544  0.0858 -0.4698
  184DOPC   H6R22609   0.679  -1.659  -1.552 -0.0235  0.1459 -1.7141
  184DOPC   H6S22610   0.557  -1.544  -1.473  1.5264  2.7320  0.6794
  184DOPC   C2722611   0.759  -1.484  -1.448 -0.1439  0.2665  0.4997
  184DOPC   H7R22612   0.726  -1.381  -1.423  0.2951  0.1617  1.5775
  184DOPC   H7S22613   0.854  -1.482  -1.507  0.1374 -3.1117  0.6187
  184DOPC   C2822614   0.777  -1.571  -1.316 -0.2061  0.0638 -0.2475
  184DOPC   H8R22615   0.849  -1.508  -1.259 -2.1303  1.4262  0.7940
  184DOPC   H8S22616   0.824  -1.671  -1.329 -1.1829 -0.6759  1.5515
  184DOPC   C2922617   0.661  -1.579  -1.228 -0.2107 -0.7935  0.8474
  184DOPC   H9R22618   0.567  -1.613  -1.273  0.3022  0.5703 -1.4333
  184DOPC  C21022619   0.650  -1.530  -1.104  0.2855 -0.5840 -0.6974
  184DOPC  H10R22620   0.568  -1.580  -1.050  0.2492  0.7728  0.5692
  184DOPC  C21122621   0.751  -1.447  -1.036  0.1841 -0.4778 -0.0156
  184DOPC  H11R22622   0.768  -1.352  -1.091 -2.3313  0.1677  0.2165
  184DOPC  H11S22623   0.844  -1.508  -1.028  0.3896 -0.5845 -2.5002
  184DOPC  C21222624   0.717  -1.404  -0.897 -0.3482 -0.0580 -0.8074
  184DOPC  H12R22625   0.624  -1.343  -0.899  0.5992  1.4891  0.0422
  184DOPC  H12S22626   0.797  -1.336  -0.861 -1.7636  1.2718 -0.0707
  184DOPC  C21322627   0.703  -1.517  -0.798  0.0916  0.0919 -0.2336
  184DOPC  H13R22628   0.797  -1.576  -0.797 -1.0078 -1.7324 -0.1869
  184DOPC  H13S22629   0.616  -1.579  -0.826  0.8175 -1.9552  1.7682
  184DOPC  C21422630   0.681  -1.468  -0.652  0.3655 -0.2358  0.0462
  184DOPC  H14R22631   0.578  -1.428  -0.661  0.5966 -0.1032 -3.0542
  184DOPC  H14S22632   0.758  -1.389  -0.641  0.6164 -0.4815  0.0479
  184DOPC  C21522633   0.678  -1.575  -0.544  0.2693  0.5759 -0.7752
  184DOPC  H15R22634   0.777  -1.626  -0.542  0.4337  0.8663  1.4457
  184DOPC  H15S22635   0.600  -1.653  -0.554  0.3094  0.4548 -0.1941
  184DOPC  C21622636   0.633  -1.504  -0.415 -0.6297 -1.0835 -0.7896
  184DOPC  H16R22637   0.523  -1.492  -0.404 -0.4091 -0.0245  0.5465
  184DOPC  H16S22638   0.670  -1.399  -0.405 -1.1008 -0.9123 -0.8268
  184DOPC  C21722639   0.677  -1.587  -0.293  0.1660 -0.0838 -0.1319
  184DOPC  H17R22640   0.787  -1.594  -0.289  0.2460  0.8712 -0.3999
  184DOPC  H17S22641   0.628  -1.687  -0.293  1.3791 -0.7186 -1.5853
  184DOPC  C21822642   0.631  -1.517  -0.166  0.0515 -0.0034 -0.6981
  184DOPC  H18R22643   0.527  -1.479  -0.182 -0.1504 -0.2305  0.0488
  184DOPC  H18S22644   0.694  -1.428  -0.144 -0.4883  0.6335 -1.6397
  184DOPC  H18T22645   0.635  -1.584  -0.078 -0.4928  1.8690  0.8385
  184DOPC   C3322646   1.302  -1.547  -1.994 -0.4073 -0.4484  0.2474
  184DOPC   H3X22647   1.277  -1.453  -2.047 -2.5058 -1.5630 -0.8899
  184DOPC   H3Y22648   1.369  -1.606  -2.059 -0.0225 -0.0623  0.2937
  184DOPC   C3422649   1.375  -1.516  -1.863 -0.0359  0.0170  0.3647
  184DOPC   H4X22650   1.304  -1.467  -1.793 -0.3793 -0.8194  0.6083
  184DOPC   H4Y22651   1.471  -1.465  -1.887  1.6787 -3.4507 -0.7405
  184DOPC   C3522652   1.416  -1.646  -1.789  0.2130 -0.1746  0.0420
  184DOPC   H5X22653   1.478  -1.714  -1.852 -1.3309 -1.5801 -0.0176
  184DOPC   H5Y22654   1.327  -1.705  -1.758 -0.5652  0.1141 -1.5242
  184DOPC   C3622655   1.509  -1.596  -1.677 -0.4558  0.4870  0.9116
  184DOPC   H6X22656   1.598  -1.546  -1.723  0.0120 -1.6229 -0.6459
  184DOPC   H6Y22657   1.456  -1.517  -1.621 -0.7660  0.3037  0.8766
  184DOPC   C3722658   1.543  -1.695  -1.570 -0.3307 -0.2966 -0.1145
  184DOPC   H7X22659   1.460  -1.752  -1.523  0.5836 -0.1943  1.7517
  184DOPC   H7Y22660   1.607  -1.772  -1.619 -0.2942 -0.5246  0.2873
  184DOPC   C3822661   1.619  -1.627  -1.453 -0.3271  0.1130  0.0838
  184DOPC   H8X22662   1.705  -1.567  -1.490 -1.3055  1.5754  0.0910
  184DOPC   H8Y22663   1.660  -1.708  -1.390 -1.1799 -1.1133 -0.8850
  184DOPC   C3922664   1.539  -1.542  -1.361  0.4517  0.0930  0.3762
  184DOPC   H9X22665   1.505  -1.447  -1.406 -1.1063  0.2912  1.8733
  184DOPC  C31022666   1.482  -1.586  -1.252  0.0639 -0.3085  0.5268
  184DOPC  H10X22667   1.420  -1.513  -1.196  2.2935  1.0075  1.4116
  184DOPC  C31122668   1.491  -1.722  -1.188 -0.6969  0.4945 -0.5819
  184DOPC  H11X22669   1.539  -1.796  -1.257 -0.5207  1.6583 -1.7455
  184DOPC  H11Y22670   1.388  -1.763  -1.181 -0.9445  1.3373  0.9818
  184DOPC  C31222671   1.542  -1.720  -1.043 -0.7850  0.6007 -0.1541
  184DOPC  H12X22672   1.641  -1.672  -1.036 -0.6608  0.2264  0.9528
  184DOPC  H12Y22673   1.551  -1.827  -1.013 -2.1790  0.7765  1.0381
  184DOPC  C31322674   1.453  -1.660  -0.941  0.1188  0.4346 -0.2236
  184DOPC  H13X22675   1.453  -1.549  -0.954 -3.0406  0.5559 -0.0964
  184DOPC  H13Y22676   1.349  -1.697  -0.956  0.3361 -0.8368  1.2534
  184DOPC  C31422677   1.501  -1.698  -0.794 -0.2525 -0.3834 -0.0365
  184DOPC  H14X22678   1.515  -1.809  -0.794 -2.7195 -0.7621 -0.5526
  184DOPC  H14Y22679   1.594  -1.641  -0.773 -1.1127  0.6522  1.0569
  184DOPC  C31522680   1.406  -1.671  -0.676 -0.6369  1.0397  0.5898
  184DOPC  H15X22681   1.323  -1.745  -0.686  2.1712 -2.5847  1.9258
  184DOPC  H15Y22682   1.366  -1.568  -0.670  2.1107  2.1941  0.5047
  184DOPC  C31622683   1.474  -1.694  -0.533  0.7549 -0.2581  0.1924
  184DOPC  H16X22684   1.502  -1.801  -0.526  0.9295 -0.2469 -0.2678
  184DOPC  H16Y22685   1.562  -1.626  -0.536  1.3499 -0.9503  1.2730
  184DOPC  C31722686   1.376  -1.657  -0.415 -0.1246 -0.0120  0.1277
  184DOPC  H17X22687   1.333  -1.555  -0.422 -0.5214 -0.2529 -1.2894
  184DOPC  H17Y22688   1.284  -1.719  -0.418 -0.1469  0.0447 -1.0967
  184DOPC  C31822689   1.434  -1.671  -0.269  0.0261 -0.3479 -0.0088
  184DOPC  H18X22690   1.479  -1.772  -0.258  0.8731 -0.1376 -1.3380
  184DOPC  H18Y22691   1.513  -1.594  -0.252  0.1205 -0.1112 -1.4557
  184DOPC  H18Z22692   1.350  -1.668  -0.196  0.1841 -1.3168  0.2304
  185DOPC     N22693   2.464   2.409  -2.511 -0.0609 -0.2593  0.2297
  185DOPC   C1222694   2.386   2.297  -2.441 -0.5878 -0.6742 -0.1693
  185DOPC  H12A22695   2.446   2.243  -2.369 -2.3722 -2.1969  0.2802
  185DOPC  H12B22696   2.354   2.229  -2.519 -1.8060 -0.5413  0.1963
  185DOPC   C1322697   2.491   2.529  -2.432 -0.1386 -0.0071  0.4593
  185DOPC  H13A22698   2.546   2.509  -2.342  1.9137  0.5786 -0.6079
  185DOPC  H13B22699   2.545   2.607  -2.483  1.4113  0.1303  2.1916
  185DOPC  H13C22700   2.398   2.576  -2.405  0.2737  0.4274  1.1512
  185DOPC   C1422701   2.402   2.465  -2.635 -0.6313  0.3550  0.1368
  185DOPC  H14A22702   2.308   2.518  -2.624  0.3878  2.1933  0.4527
  185DOPC  H14B22703   2.470   2.530  -2.688  0.2443 -2.7730 -2.9407
  185DOPC  H14C22704   2.379   2.384  -2.702  0.8908  0.6355 -0.7780
  185DOPC   C1522705   2.603   2.359  -2.546 -0.8322  0.2362  0.1119
  185DOPC  H15A22706   2.659   2.339  -2.456 -1.7559 -0.6305  0.5179
  185DOPC  H15B22707   2.657   2.427  -2.610 -0.0223  0.2508  0.7992
  185DOPC  H15C22708   2.589   2.269  -2.604  1.6742  0.6621 -1.3034
  185DOPC   C1122709   2.254   2.340  -2.371 -0.2448 -0.0573  0.5151
  185DOPC  H11A22710   2.227   2.257  -2.302 -2.1850 -0.4905 -0.6869
  185DOPC  H11B22711   2.278   2.428  -2.307  0.3862 -0.2190  0.5033
  185DOPC     P22712   2.068   2.273  -2.544 -0.2542  0.1113 -0.0208
  185DOPC   O1322713   2.149   2.156  -2.575 -0.2518  0.5821  0.1077
  185DOPC   O1422714   2.006   2.339  -2.662  0.1651  0.0560 -0.4337
  185DOPC   O1222715   2.148   2.378  -2.460  0.1612 -0.5024 -0.2443
  185DOPC   O1122716   1.958   2.227  -2.439 -0.3363 -0.2839 -0.2391
  185DOPC    C122717   1.892   2.331  -2.360  0.0569  0.0188  0.3233
  185DOPC    HA22718   1.782   2.316  -2.365  0.3567 -2.0931 -1.2225
  185DOPC    HB22719   1.914   2.433  -2.398 -2.2771  0.9508  1.3070
  185DOPC    C222720   1.936   2.339  -2.206  0.0845  0.3039  0.0914
  185DOPC    HS22721   2.047   2.334  -2.203  0.0525 -0.3634  0.1390
  185DOPC   O2122722   1.874   2.231  -2.128  0.6614  0.2275 -0.2180
  185DOPC   C2122723   1.954   2.171  -2.047  0.0912 -0.5887 -0.4999
  185DOPC   O2222724   2.071   2.207  -2.030 -0.0004  0.3368 -0.2563
  185DOPC   C2222725   1.876   2.072  -1.959 -0.1564  0.1041 -0.2223
  185DOPC   H2R22726   1.881   1.975  -2.012 -1.2715 -1.7905  2.8688
  185DOPC   H2S22727   1.771   2.110  -1.953 -1.5105 -3.1794 -0.7567
  185DOPC    C322728   1.888   2.470  -2.147  0.7336 -0.5291  0.0987
  185DOPC    HX22729   1.777   2.474  -2.143  0.7544  1.1770 -0.3163
  185DOPC    HY22730   1.926   2.552  -2.212 -0.1635 -1.8580 -2.2373
  185DOPC   O3122731   1.930   2.481  -2.010  0.2661 -0.0298  0.2301
  185DOPC   C3122732   2.047   2.542  -1.981 -0.0103 -0.1111  0.8394
  185DOPC   O3222733   2.112   2.596  -2.073 -0.0429  0.7211 -0.6962
  185DOPC   C3222734   2.060   2.540  -1.831 -0.1632 -0.2047 -0.4419
  185DOPC   H2X22735   2.071   2.433  -1.803 -1.0385 -0.2052 -0.0439
  185DOPC   H2Y22736   2.149   2.602  -1.809  0.5271 -0.9105 -1.1861
  185DOPC   C2322737   1.927   2.070  -1.811 -0.4040  0.0416 -0.2332
  185DOPC   H3R22738   2.038   2.064  -1.807 -0.1850  2.8344  0.2263
  185DOPC   H3S22739   1.878   1.986  -1.758 -0.8034  0.9586  0.9018
  185DOPC   C2422740   1.871   2.190  -1.732  0.3647 -0.5958  0.9283
  185DOPC   H4R22741   1.769   2.211  -1.769 -0.2674  1.6173  3.5758
  185DOPC   H4S22742   1.932   2.280  -1.753 -2.3621  0.6667 -2.2815
  185DOPC   C2522743   1.848   2.170  -1.587  0.9592  0.2368  0.7418
  185DOPC   H5R22744   1.787   2.083  -1.554 -0.9622  1.4006  0.4298
  185DOPC   H5S22745   1.800   2.264  -1.552  0.9290  0.6340 -0.3549
  185DOPC   C2622746   1.977   2.148  -1.502  1.0558 -0.4314  0.1740
  185DOPC   H6R22747   2.051   2.230  -1.510  0.6422 -0.0507  0.2217
  185DOPC   H6S22748   2.024   2.054  -1.537  1.3234 -0.1976 -0.0965
  185DOPC   C2722749   1.956   2.117  -1.355  0.6606 -0.3469 -0.0805
  185DOPC   H7R22750   2.047   2.079  -1.304 -1.5372 -2.5779  2.4974
  185DOPC   H7S22751   1.878   2.037  -1.355 -1.9043  1.8318 -3.7466
  185DOPC   C2822752   1.899   2.240  -1.275  0.1518  0.4840 -0.8442
  185DOPC   H8R22753   1.861   2.209  -1.176 -2.7893 -0.9218 -2.2975
  185DOPC   H8S22754   1.807   2.270  -1.329 -0.0594  0.2207 -0.6303
  185DOPC   C2922755   2.009   2.334  -1.268 -0.1011  0.0766  0.4216
  185DOPC   H9R22756   2.033   2.385  -1.362 -0.9985 -0.6775 -0.2326
  185DOPC  C21022757   2.080   2.368  -1.157  0.2056  0.0535 -0.3003
  185DOPC  H10R22758   2.156   2.447  -1.163  2.0984 -1.7008 -0.6361
  185DOPC  C21122759   2.027   2.339  -1.013 -0.0182  0.8649  0.7530
  185DOPC  H11R22760   1.943   2.269  -0.995 -1.0223  2.0646  0.8846
  185DOPC  H11S22761   2.005   2.438  -0.967  0.9306  1.0092  0.9273
  185DOPC  C21222762   2.146   2.288  -0.934  0.5170 -0.0549  0.6175
  185DOPC  H12R22763   2.137   2.308  -0.825 -1.2810 -0.5054  0.5816
  185DOPC  H12S22764   2.238   2.346  -0.958  2.0718 -1.6814  2.3940
  185DOPC  C21322765   2.195   2.144  -0.955 -0.1138  0.5630 -0.4645
  185DOPC  H13R22766   2.213   2.129  -1.064 -0.4599 -3.8779 -0.0553
  185DOPC  H13S22767   2.116   2.069  -0.936 -2.2852  1.8672 -3.4607
  185DOPC  C21422768   2.320   2.107  -0.867  0.2934  0.7525 -0.4341
  185DOPC  H14R22769   2.408   2.175  -0.877  0.5118  0.6918  0.7967
  185DOPC  H14S22770   2.357   2.014  -0.916 -1.0955  0.2900 -0.6391
  185DOPC  C21522771   2.275   2.073  -0.715  0.2378 -0.2120 -0.1524
  185DOPC  H15R22772   2.169   2.039  -0.719 -0.1780  0.2983  3.4234
  185DOPC  H15S22773   2.275   2.162  -0.649  0.1317 -2.6236  3.4302
  185DOPC  C21622774   2.350   1.948  -0.652  0.4262 -0.0207  0.2712
  185DOPC  H16R22775   2.455   1.981  -0.652 -0.5690  3.6282 -1.4628
  185DOPC  H16S22776   2.342   1.853  -0.709  0.0163  0.3619 -0.3226
  185DOPC  C21722777   2.306   1.919  -0.508  0.2161 -0.4628  0.2091
  185DOPC  H17R22778   2.200   1.887  -0.510 -0.1406  0.6822 -0.7590
  185DOPC  H17S22779   2.316   2.017  -0.456 -0.9169  1.0733 -2.2426
  185DOPC  C21822780   2.379   1.813  -0.428 -0.0531  0.8410  0.0565
  185DOPC  H18R22781   2.349   1.811  -0.321  0.2163  0.2344  0.1247
  185DOPC  H18S22782   2.489   1.827  -0.436 -0.0854  0.5902 -1.0652
  185DOPC  H18T22783   2.361   1.710  -0.465 -1.5687  2.0869 -3.0020
  185DOPC   C3322784   1.938   2.596  -1.751  0.6962 -0.4903 -0.0889
  185DOPC   H3X22785   1.839   2.547  -1.765  0.5162 -0.0851 -0.2489
  185DOPC   H3Y22786   1.913   2.701  -1.778 -2.0769 -1.1044 -0.2024
  185DOPC   C3422787   1.960   2.592  -1.599  0.2701 -0.1348 -0.1069
  185DOPC   H4X22788   2.054   2.644  -1.570 -0.6077  1.4812 -0.0358
  185DOPC   H4Y22789   1.981   2.486  -1.575 -0.7217 -0.1962  0.5272
  185DOPC   C3522790   1.843   2.645  -1.513 -0.0237  0.3085 -0.0501
  185DOPC   H5X22791   1.871   2.614  -1.411 -0.7808  0.0089  0.0744
  185DOPC   H5Y22792   1.757   2.578  -1.534 -0.3086  0.8153 -0.5413
  185DOPC   C3622793   1.822   2.795  -1.514 -0.1517 -0.4108  0.0757
  185DOPC   H6X22794   1.910   2.846  -1.470 -1.3978  1.1305  0.9007
  185DOPC   H6Y22795   1.798   2.843  -1.612  0.4259  0.2479  0.2521
  185DOPC   C3722796   1.703   2.840  -1.432 -0.4502  0.3725 -0.8401
  185DOPC   H7X22797   1.698   2.951  -1.427 -2.6461  0.2596  0.8817
  185DOPC   H7Y22798   1.608   2.795  -1.467 -0.2346 -2.8447  2.1710
  185DOPC   C3822799   1.710   2.784  -1.282 -0.0087  0.2174 -0.0546
  185DOPC   H8X22800   1.816   2.802  -1.254  0.4837 -0.7932 -1.1662
  185DOPC   H8Y22801   1.680   2.677  -1.287 -3.3043  1.0469  0.2791
  185DOPC   C3922802   1.613   2.839  -1.186 -0.0256 -0.3568 -0.2311
  185DOPC   H9X22803   1.508   2.818  -1.213 -0.5429 -1.1737  2.1624
  185DOPC  C31022804   1.642   2.891  -1.063 -0.3219  0.0257  0.7166
  185DOPC  H10X22805   1.562   2.946  -1.011  0.7688  0.6036  1.8123
  185DOPC  C31122806   1.781   2.895  -0.998  0.1519  0.6991 -0.4180
  185DOPC  H11X22807   1.847   2.965  -1.053  0.6406 -0.3830 -1.2466
  185DOPC  H11Y22808   1.824   2.793  -1.009  0.9956  0.9215  0.6930
  185DOPC  C31222809   1.765   2.932  -0.851 -0.1597  0.4634 -0.1905
  185DOPC  H12X22810   1.697   2.875  -0.784 -2.3170  2.2711 -0.7417
  185DOPC  H12Y22811   1.729   3.037  -0.851 -0.9523  0.1979  0.0935
  185DOPC  C31322812   1.892   2.933  -0.767 -0.0291 -0.2162  0.1206
  185DOPC  H13X22813   1.937   2.832  -0.779 -0.2814 -0.5061  1.4236
  185DOPC  H13Y22814   1.973   2.997  -0.809  1.8072 -1.5523  1.4708
  185DOPC  C31422815   1.865   2.942  -0.618 -0.3952 -0.3392 -0.3034
  185DOPC  H14X22816   1.813   3.036  -0.590  1.2290  0.1335  1.3158
  185DOPC  H14Y22817   1.800   2.859  -0.585 -1.5022  0.4319 -0.4997
  185DOPC  C31522818   1.998   2.933  -0.533  0.4825 -0.5081 -0.3782
  185DOPC  H15X22819   2.069   3.009  -0.572  1.3588 -1.8285 -1.4306
  185DOPC  H15Y22820   2.048   2.834  -0.537 -3.1791 -2.6813  1.7018
  185DOPC  C31622821   1.969   2.960  -0.382 -0.2859 -0.4434 -0.1969
  185DOPC  H16X22822   1.924   3.060  -0.364 -0.9025 -1.2279  3.6847
  185DOPC  H16Y22823   1.887   2.888  -0.359  0.3496 -1.5703 -1.3649
  185DOPC  C31722824   2.081   2.912  -0.286  0.4623 -0.2228 -0.4785
  185DOPC  H17X22825   2.046   2.816  -0.243 -2.2286  0.9386  0.1784
  185DOPC  H17Y22826   2.176   2.891  -0.340 -0.7291  0.8637 -3.2123
  185DOPC  C31822827   2.111   3.012  -0.175  0.8937 -0.0485 -0.2513
  185DOPC  H18X22828   2.160   3.108  -0.202  0.2899 -0.2561 -2.2130
  185DOPC  H18Y22829   2.025   3.047  -0.114  2.3636  2.4759  0.5602
  185DOPC  H18Z22830   2.191   2.972  -0.109  2.2172  1.7491 -0.6604
  186DOPC     N22831   2.904  -0.087  -2.578  0.7857  0.1101 -0.3749
  186DOPC   C1222832   2.843  -0.161  -2.461 -0.7083  0.9475 -0.5303
  186DOPC  H12A22833   2.752  -0.200  -2.505 -0.0128 -0.6182 -0.6240
  186DOPC  H12B22834   2.822  -0.098  -2.376 -0.9730 -2.1671  1.9148
  186DOPC   C1322835   2.795  -0.016  -2.656 -0.2959  0.4717  0.5441
  186DOPC  H13A22836   2.842   0.036  -2.739 -2.8786  4.1363  1.1395
  186DOPC  H13B22837   2.721  -0.089  -2.683 -1.5266  0.7731  2.8933
  186DOPC  H13C22838   2.751   0.064  -2.599  0.8663  0.7975  1.0304
  186DOPC   C1422839   2.976  -0.188  -2.660 -0.4532  0.7562  0.3641
  186DOPC  H14A22840   3.052  -0.243  -2.607 -1.2697 -0.5425  0.2249
  186DOPC  H14B22841   2.910  -0.263  -2.700  0.2977  0.2400  0.0658
  186DOPC  H14C22842   3.020  -0.132  -2.742 -0.1002 -0.8567 -0.6009
  186DOPC   C1522843   3.005   0.011  -2.528 -0.5573 -0.8095 -0.6470
  186DOPC  H15A22844   3.074  -0.037  -2.460 -0.0482 -1.2145 -1.4460
  186DOPC  H15B22845   2.949   0.093  -2.485  1.9132  0.0794  1.1350
  186DOPC  H15C22846   3.067   0.055  -2.605 -0.3554  1.7682  0.8605
  186DOPC   C1122847   2.930  -0.274  -2.387 -0.0044 -0.8446 -0.0858
  186DOPC  H11A22848   3.030  -0.225  -2.388 -0.6169  0.5070  1.3915
  186DOPC  H11B22849   2.904  -0.291  -2.280  1.8334  0.4724  0.6261
  186DOPC     P22850   2.789  -0.471  -2.452 -0.1171  0.3001  0.4867
  186DOPC   O1322851   2.802  -0.608  -2.507 -0.1153 -0.4714 -0.5860
  186DOPC   O1422852   2.677  -0.393  -2.508 -0.1884 -0.3224  0.9279
  186DOPC   O1222853   2.924  -0.399  -2.457 -0.0456 -0.5746 -0.1275
  186DOPC   O1122854   2.753  -0.491  -2.296  0.2773  0.2507 -0.0839
  186DOPC    C122855   2.850  -0.555  -2.213  0.3495 -0.6990  0.0859
  186DOPC    HA22856   2.952  -0.511  -2.222  0.4267 -1.2092 -1.9184
  186DOPC    HB22857   2.862  -0.661  -2.243 -0.9980 -0.3474 -1.9223
  186DOPC    C222858   2.815  -0.546  -2.063 -0.2946  0.6240 -0.1657
  186DOPC    HS22859   2.870  -0.628  -2.013  0.0085 -1.3687 -3.4681
  186DOPC   O2122860   2.672  -0.576  -2.038  0.1359 -0.1453  0.0632
  186DOPC   C2122861   2.627  -0.695  -2.065 -0.1152 -0.7414 -0.1445
  186DOPC   O2222862   2.694  -0.800  -2.070 -0.4934  0.0028  0.3620
  186DOPC   C2222863   2.479  -0.679  -2.101 -0.0344 -0.1470  0.1010
  186DOPC   H2R22864   2.441  -0.779  -2.131  2.8519 -1.0134 -1.0571
  186DOPC   H2S22865   2.491  -0.603  -2.181  0.8629  1.5108  1.7188
  186DOPC    C322866   2.840  -0.406  -2.009 -0.0638  0.0726  0.4624
  186DOPC    HX22867   2.773  -0.348  -2.077 -1.4170 -2.0719 -0.1500
  186DOPC    HY22868   2.949  -0.387  -2.004 -0.1385  0.3155  1.2578
  186DOPC   O3122869   2.788  -0.391  -1.881 -0.1617 -0.2069  0.1430
  186DOPC   C3122870   2.666  -0.333  -1.863  0.4387 -0.4486 -0.4662
  186DOPC   O3222871   2.593  -0.280  -1.947 -0.9721  0.0011 -0.5861
  186DOPC   C3222872   2.622  -0.335  -1.714 -0.6630 -0.0555  0.6737
  186DOPC   H2X22873   2.704  -0.280  -1.664 -1.3525  2.2071 -0.5446
  186DOPC   H2Y22874   2.529  -0.276  -1.698 -1.9978 -1.7851 -0.2453
  186DOPC   C2322875   2.390  -0.615  -1.990  0.6129  0.3473 -0.1109
  186DOPC   H3R22876   2.293  -0.590  -2.038  0.2155  1.3926  1.1779
  186DOPC   H3S22877   2.430  -0.518  -1.953  3.5507 -1.3830  1.5785
  186DOPC   C2422878   2.372  -0.709  -1.871  0.5003 -0.7071  0.5757
  186DOPC   H4R22879   2.477  -0.735  -1.846  0.6336 -1.1141 -0.3535
  186DOPC   H4S22880   2.319  -0.804  -1.896  1.1257 -1.2891  1.3721
  186DOPC   C2522881   2.290  -0.636  -1.762 -0.3654  0.5710  0.5868
  186DOPC   H5R22882   2.181  -0.625  -1.781 -0.4450  2.2113  1.8047
  186DOPC   H5S22883   2.320  -0.531  -1.748 -3.2068  1.4023  1.2090
  186DOPC   C2622884   2.303  -0.698  -1.624 -0.2740 -0.0989 -0.2683
  186DOPC   H6R22885   2.411  -0.719  -1.604 -0.6500 -1.0035  1.0358
  186DOPC   H6S22886   2.247  -0.794  -1.625 -0.1261 -0.2585  1.8132
  186DOPC   C2722887   2.231  -0.618  -1.513  0.0088  0.3820  0.0797
  186DOPC   H7R22888   2.131  -0.585  -1.549  0.2703  1.1516  0.0470
  186DOPC   H7S22889   2.284  -0.525  -1.484  0.4946 -0.1750  1.0410
  186DOPC   C2822890   2.219  -0.693  -1.382 -0.6153 -0.4751  0.1068
  186DOPC   H8R22891   2.205  -0.801  -1.403  0.6113 -0.7937  0.8070
  186DOPC   H8S22892   2.126  -0.650  -1.339 -0.1907 -0.0732  0.6426
  186DOPC   C2922893   2.340  -0.688  -1.283 -0.1827  0.0046  0.2157
  186DOPC   H9R22894   2.444  -0.710  -1.309  0.5310  1.8592  1.3192
  186DOPC  C21022895   2.323  -0.638  -1.162 -0.0414 -0.0657 -0.2897
  186DOPC  H10R22896   2.413  -0.628  -1.099  1.0434  0.7541 -1.9133
  186DOPC  C21122897   2.206  -0.588  -1.080  0.8254  0.0151  0.0517
  186DOPC  H11R22898   2.112  -0.585  -1.139  0.3842 -1.5699  0.6151
  186DOPC  H11S22899   2.232  -0.482  -1.060  1.4733 -0.6022  3.0196
  186DOPC  C21222900   2.182  -0.651  -0.942 -0.1674  0.5006  0.1289
  186DOPC  H12R22901   2.185  -0.762  -0.933 -3.3851  0.1433 -1.8450
  186DOPC  H12S22902   2.073  -0.636  -0.928 -0.2043  0.0502  0.3535
  186DOPC  C21322903   2.275  -0.600  -0.831  0.2922  0.0726  0.2961
  186DOPC  H13R22904   2.268  -0.489  -0.829  0.2180  0.0630  1.2485
  186DOPC  H13S22905   2.385  -0.617  -0.833  0.0603 -1.9720  1.7930
  186DOPC  C21422906   2.219  -0.636  -0.693 -0.9279 -0.2839 -0.3777
  186DOPC  H14R22907   2.246  -0.741  -0.668 -1.7439 -0.4410 -0.0952
  186DOPC  H14S22908   2.108  -0.636  -0.687 -0.8883  0.6811  0.7748
  186DOPC  C21522909   2.289  -0.555  -0.576  0.5518  0.1735 -0.1176
  186DOPC  H15R22910   2.277  -0.446  -0.596  2.6252  0.0677 -2.5079
  186DOPC  H15S22911   2.395  -0.585  -0.586 -0.1122 -2.4654  0.0659
  186DOPC  C21622912   2.247  -0.606  -0.434 -0.6669  0.1743  0.2459
  186DOPC  H16R22913   2.280  -0.711  -0.421 -0.5369  0.2438  0.4887
  186DOPC  H16S22914   2.137  -0.614  -0.434 -0.6901 -1.2944 -3.3017
  186DOPC  C21722915   2.295  -0.518  -0.322 -0.3180 -0.4929 -0.2617
  186DOPC  H17R22916   2.265  -0.411  -0.326  0.5708 -0.2811 -2.2426
  186DOPC  H17S22917   2.406  -0.521  -0.327 -0.3533  0.4115 -2.8134
  186DOPC  C21822918   2.259  -0.587  -0.193 -0.4104  0.0762 -0.7754
  186DOPC  H18R22919   2.288  -0.528  -0.104 -1.1091  1.1413 -1.2254
  186DOPC  H18S22920   2.311  -0.684  -0.178 -0.3852  0.3632  1.2282
  186DOPC  H18T22921   2.149  -0.600  -0.180 -0.1097 -0.6977  1.2613
  186DOPC   C3322922   2.608  -0.478  -1.653 -0.1210  0.2736  0.1489
  186DOPC   H3X22923   2.701  -0.539  -1.657 -0.0912  0.3285 -0.0041
  186DOPC   H3Y22924   2.541  -0.549  -1.705  1.4126 -1.7833  0.8415
  186DOPC   C3422925   2.552  -0.479  -1.509  0.0626  0.0027  0.9152
  186DOPC   H4X22926   2.531  -0.583  -1.476 -0.0946 -0.1813  0.2632
  186DOPC   H4Y22927   2.460  -0.418  -1.507 -0.4188 -0.7126  3.2141
  186DOPC   C3522928   2.646  -0.418  -1.407  0.4575  0.1652 -0.0667
  186DOPC   H5X22929   2.671  -0.318  -1.449 -0.2325  0.8404  1.0711
  186DOPC   H5Y22930   2.735  -0.481  -1.385 -0.5842 -1.7757 -1.1650
  186DOPC   C3622931   2.570  -0.393  -1.274 -0.7366 -0.4279  0.5586
  186DOPC   H6X22932   2.487  -0.324  -1.299  0.8201  0.9114 -1.1464
  186DOPC   H6Y22933   2.527  -0.489  -1.237 -1.4205 -0.2967  0.1217
  186DOPC   C3722934   2.674  -0.346  -1.172 -0.1687 -0.6760 -0.0106
  186DOPC   H7X22935   2.740  -0.426  -1.131  0.0179 -2.0113 -2.7165
  186DOPC   H7Y22936   2.736  -0.268  -1.221  2.2231 -0.2411  3.3222
  186DOPC   C3822937   2.607  -0.270  -1.056  0.7541 -0.0171  0.1669
  186DOPC   H8X22938   2.527  -0.334  -1.012  0.8884 -0.1853  0.1697
  186DOPC   H8Y22939   2.549  -0.185  -1.097  3.5662  1.8094 -0.3179
  186DOPC   C3922940   2.707  -0.220  -0.953 -0.4911  0.7284  0.4580
  186DOPC   H9X22941   2.797  -0.165  -0.985 -0.8636  0.4285 -1.2254
  186DOPC  C31022942   2.702  -0.246  -0.822  0.0211 -0.0530  1.0850
  186DOPC  H10X22943   2.784  -0.217  -0.754  0.7150  1.9171 -0.5146
  186DOPC  C31122944   2.586  -0.319  -0.754 -0.1190  0.3165  0.1766
  186DOPC  H11X22945   2.524  -0.388  -0.816  0.2752 -1.4499  1.6681
  186DOPC  H11Y22946   2.519  -0.232  -0.740  0.9742  1.2159 -0.0523
  186DOPC  C31222947   2.622  -0.380  -0.618  0.0924 -0.0357 -0.2312
  186DOPC  H12X22948   2.704  -0.455  -0.617  1.1644  1.0097  2.6910
  186DOPC  H12Y22949   2.538  -0.433  -0.569  1.9328 -0.9411  2.1780
  186DOPC  C31322950   2.669  -0.275  -0.508  0.7269  0.5639  0.2034
  186DOPC  H13X22951   2.762  -0.222  -0.538  0.0040  0.8630 -1.6359
  186DOPC  H13Y22952   2.584  -0.204  -0.502 -0.8625 -1.1903 -0.4721
  186DOPC  C31422953   2.675  -0.339  -0.368 -0.5048 -0.7060  0.2938
  186DOPC  H14X22954   2.573  -0.377  -0.348 -0.8960  0.7951  1.2909
  186DOPC  H14Y22955   2.748  -0.423  -0.365 -1.6958 -1.7673  0.2110
  186DOPC  C31522956   2.711  -0.246  -0.252  0.0501  0.5897  0.3315
  186DOPC  H15X22957   2.656  -0.149  -0.255 -1.4730 -0.1895  1.4831
  186DOPC  H15Y22958   2.820  -0.225  -0.257 -0.1659  1.5453 -1.7215
  186DOPC  C31622959   2.679  -0.306  -0.116 -0.1525  0.5248  0.5433
  186DOPC  H16X22960   2.725  -0.404  -0.092 -1.5307 -0.0902  0.7849
  186DOPC  H16Y22961   2.716  -0.238  -0.037  1.3145  1.2116 -0.6896
  186DOPC  C31722962   2.529  -0.324  -0.098  0.3842 -0.2521  0.0347
  186DOPC  H17X22963   2.482  -0.232  -0.139  0.2289  1.3185  3.4469
  186DOPC  H17Y22964   2.489  -0.409  -0.158  2.0389 -1.3929  0.4627
  186DOPC  C31822965   2.476  -0.323   0.049 -0.3490  0.5284  0.9270
  186DOPC  H18X22966   2.368  -0.299   0.044 -0.9414 -2.0714  0.0252
  186DOPC  H18Y22967   2.510  -0.405   0.116  3.5706  0.4733 -0.8632
  186DOPC  H18Z22968   2.518  -0.232   0.097  0.8976  1.4624 -1.7562
  187DOPC     N22969   2.497  -1.346  -2.523  0.1217  0.0159  0.1196
  187DOPC   C1222970   2.411  -1.316  -2.400  0.1893  0.1410  0.0222
  187DOPC  H12A22971   2.459  -1.246  -2.332  0.1489 -0.0600  0.2610
  187DOPC  H12B22972   2.396  -1.406  -2.342 -0.2625  0.3537  0.2432
  187DOPC   C1322973   2.638  -1.378  -2.491  0.0359 -0.5444  0.0883
  187DOPC  H13A22974   2.671  -1.307  -2.417 -3.5780  0.7135  0.6556
  187DOPC  H13B22975   2.648  -1.478  -2.449 -0.2446 -1.1434 -1.2132
  187DOPC  H13C22976   2.699  -1.380  -2.580  1.9561 -1.5657  1.3339
  187DOPC   C1422977   2.501  -1.218  -2.604 -0.6813  0.7432  0.2235
  187DOPC  H14A22978   2.555  -1.142  -2.550  0.5563 -0.2255  0.4013
  187DOPC  H14B22979   2.551  -1.228  -2.699 -2.3188  0.1809 -0.6356
  187DOPC  H14C22980   2.410  -1.176  -2.646  1.8482  3.9460 -2.6104
  187DOPC   C1522981   2.443  -1.460  -2.602  0.0870 -1.0815 -0.2932
  187DOPC  H15A22982   2.339  -1.453  -2.631  0.2610 -2.3278 -1.2747
  187DOPC  H15B22983   2.452  -1.553  -2.548  0.7688  0.1105  1.7632
  187DOPC  H15C22984   2.505  -1.472  -2.689  0.8911  1.1217 -0.0898
  187DOPC   C1122985   2.267  -1.266  -2.422  0.0796 -0.4269 -0.3214
  187DOPC  H11A22986   2.219  -1.261  -2.322 -3.0943 -4.9474 -1.2751
  187DOPC  H11B22987   2.274  -1.165  -2.466 -1.4323 -0.9080 -1.7748
  187DOPC     P22988   2.098  -1.465  -2.439  0.2508  0.3238  0.0535
  187DOPC   O1322989   2.116  -1.596  -2.513  0.3632 -0.1685  0.1522
  187DOPC   O1422990   1.956  -1.417  -2.432  0.0027 -0.5894  0.2754
  187DOPC   O1222991   2.190  -1.352  -2.508 -0.3552 -0.0825 -0.0692
  187DOPC   O1122992   2.154  -1.482  -2.289  0.3748  0.0775  0.2354
  187DOPC    C122993   2.142  -1.623  -2.242 -0.1601  0.6467  0.1207
  187DOPC    HA22994   2.224  -1.681  -2.289  0.9850  0.9056  1.7140
  187DOPC    HB22995   2.046  -1.669  -2.274  0.3953  1.6098 -3.3308
  187DOPC    C222996   2.163  -1.634  -2.082 -0.9714 -0.2602  1.1931
  187DOPC    HS22997   2.139  -1.738  -2.053 -2.9756 -0.7100 -1.7128
  187DOPC   O2122998   2.080  -1.535  -2.016 -0.1956  0.0048 -0.3152
  187DOPC   C2122999   1.956  -1.574  -1.985  0.0774  0.5397 -0.1698
  187DOPC   O2223000   1.907  -1.682  -2.017 -0.3679  0.5924 -0.5181
  187DOPC   C2223001   1.886  -1.487  -1.883  0.2839 -0.3198  0.2404
  187DOPC   H2R23002   1.787  -1.527  -1.855 -0.7455  2.6120  1.1251
  187DOPC   H2S23003   1.869  -1.389  -1.932  0.3086  0.0704  0.9941
  187DOPC    C323004   2.318  -1.615  -2.052  0.5799 -0.6965 -0.1738
  187DOPC    HX23005   2.358  -1.516  -2.083  0.8004 -0.7050  0.0734
  187DOPC    HY23006   2.376  -1.693  -2.106  0.0355 -2.2279  1.3656
  187DOPC   O3123007   2.345  -1.633  -1.910 -0.1387 -0.0058  0.2359
  187DOPC   C3123008   2.363  -1.753  -1.869  0.1006 -0.1216 -0.8374
  187DOPC   O3223009   2.335  -1.858  -1.934  0.0671 -0.8588  0.1260
  187DOPC   C3223010   2.403  -1.761  -1.722 -0.6433 -0.2162 -0.0796
  187DOPC   H2X23011   2.411  -1.868  -1.693 -2.9025 -0.8974 -1.7049
  187DOPC   H2Y23012   2.495  -1.700  -1.712 -0.2961 -1.0781  3.9080
  187DOPC   C2323013   1.950  -1.484  -1.748 -0.0654  0.0539 -0.1159
  187DOPC   H3R23014   2.057  -1.459  -1.758 -0.2341  0.5210 -0.7936
  187DOPC   H3S23015   1.948  -1.588  -1.707 -2.6259  0.8458  2.0457
  187DOPC   C2423016   1.885  -1.391  -1.643 -0.7086 -0.1443 -0.3081
  187DOPC   H4R23017   1.778  -1.419  -1.634 -0.3119 -1.3311  1.1414
  187DOPC   H4S23018   1.905  -1.286  -1.673 -1.4341  0.1053  0.0519
  187DOPC   C2523019   1.945  -1.419  -1.508  0.4361 -0.2054  0.5601
  187DOPC   H5R23020   2.055  -1.405  -1.514  0.5323 -1.4049 -1.4825
  187DOPC   H5S23021   1.948  -1.525  -1.478  1.0772 -0.4584 -0.3377
  187DOPC   C2623022   1.886  -1.333  -1.397 -0.1318 -0.2987  0.7636
  187DOPC   H6R23023   1.781  -1.368  -1.384  0.4689 -2.7042 -0.3293
  187DOPC   H6S23024   1.879  -1.229  -1.436 -0.8329 -0.7199 -0.2857
  187DOPC   C2723025   1.969  -1.331  -1.275  0.0344 -0.7877  0.0449
  187DOPC   H7R23026   1.961  -1.237  -1.217  2.7629 -0.9515  0.8134
  187DOPC   H7S23027   2.076  -1.330  -1.305  0.0578 -1.8025  0.0668
  187DOPC   C2823028   1.963  -1.443  -1.171  0.5460  0.2371  0.0427
  187DOPC   H8R23029   2.045  -1.417  -1.101  0.8150 -1.2438  0.3126
  187DOPC   H8S23030   1.984  -1.537  -1.228 -1.0772 -0.6156  0.7795
  187DOPC   C2923031   1.830  -1.463  -1.111 -0.6432 -0.1650  0.9628
  187DOPC   H9R23032   1.748  -1.483  -1.182  0.7201  1.2895 -1.1360
  187DOPC  C21023033   1.808  -1.473  -0.980  0.4939 -0.6443  0.1538
  187DOPC  H10R23034   1.709  -1.501  -0.941  0.6481  0.1570  1.1808
  187DOPC  C21123035   1.911  -1.459  -0.866 -0.3749 -0.6211  0.4902
  187DOPC  H11R23036   1.967  -1.364  -0.879 -1.7878  0.5476  2.4071
  187DOPC  H11S23037   1.978  -1.547  -0.869 -0.6486 -0.8150 -0.4639
  187DOPC  C21223038   1.847  -1.460  -0.726  0.2956  0.2992 -0.1300
  187DOPC  H12R23039   1.782  -1.548  -0.708 -0.2498  0.5647 -0.7393
  187DOPC  H12S23040   1.783  -1.369  -0.719 -1.1768 -0.8277  2.0135
  187DOPC  C21323041   1.959  -1.465  -0.621 -0.2394 -0.2877 -0.4748
  187DOPC  H13R23042   2.027  -1.378  -0.631  1.3447 -1.3521  0.7013
  187DOPC  H13S23043   2.034  -1.545  -0.633  0.4437  0.3118 -0.2583
  187DOPC  C21423044   1.899  -1.473  -0.481 -0.2736  0.0743  0.5015
  187DOPC  H14R23045   1.980  -1.521  -0.422  0.9829  1.4124 -0.0636
  187DOPC  H14S23046   1.813  -1.544  -0.479  0.8683 -1.5127 -1.9495
  187DOPC  C21523047   1.862  -1.339  -0.412  0.1107  0.0762  0.1174
  187DOPC  H15R23048   1.754  -1.321  -0.431  0.4425  0.4430 -1.5737
  187DOPC  H15S23049   1.920  -1.267  -0.473 -0.3931 -1.9378 -2.9337
  187DOPC  C21623050   1.898  -1.331  -0.268 -0.5883 -0.5915  0.2246
  187DOPC  H16R23051   1.865  -1.229  -0.240  1.5159  1.3434 -3.5638
  187DOPC  H16S23052   2.008  -1.342  -0.258 -0.1077 -0.0853 -3.3504
  187DOPC  C21723053   1.813  -1.431  -0.177 -0.1554  0.2565 -0.1990
  187DOPC  H17R23054   1.848  -1.531  -0.213  0.6002  0.3292  0.3010
  187DOPC  H17S23055   1.706  -1.420  -0.204 -0.7339 -2.2216  0.7607
  187DOPC  C21823056   1.826  -1.418  -0.027  0.8885  0.6019 -0.0171
  187DOPC  H18R23057   1.794  -1.516   0.014 -0.7422  0.6102 -1.1559
  187DOPC  H18S23058   1.771  -1.328   0.007 -0.1286  0.3443 -0.8987
  187DOPC  H18T23059   1.935  -1.427  -0.011  0.8436 -3.5509 -0.7781
  187DOPC   C3323060   2.302  -1.705  -1.620  0.5265 -0.5042  0.5872
  187DOPC   H3X23061   2.214  -1.770  -1.604  0.6672 -0.4547  1.5720
  187DOPC   H3Y23062   2.270  -1.611  -1.670  1.7654 -1.5510 -2.4858
  187DOPC   C3423063   2.367  -1.674  -1.488 -0.0184 -0.2783  0.7062
  187DOPC   H4X23064   2.464  -1.620  -1.495  1.2885 -2.3544  1.8540
  187DOPC   H4Y23065   2.378  -1.767  -1.429 -2.8717 -1.4746 -0.4567
  187DOPC   C3523066   2.271  -1.580  -1.400 -1.0180  0.6962  0.0077
  187DOPC   H5X23067   2.169  -1.623  -1.389  0.2465 -2.9737 -1.0886
  187DOPC   H5Y23068   2.256  -1.484  -1.454 -1.5737 -0.5685 -2.1821
  187DOPC   C3623069   2.327  -1.541  -1.266  0.4856 -0.0820 -0.3301
  187DOPC   H6X23070   2.433  -1.511  -1.274 -0.5021  3.4501 -2.2770
  187DOPC   H6Y23071   2.267  -1.458  -1.223  1.4858 -0.2118  1.4126
  187DOPC   C3723072   2.317  -1.664  -1.167 -0.1382 -1.1868 -0.2324
  187DOPC   H7X23073   2.208  -1.682  -1.157 -0.1967 -0.8334 -0.2185
  187DOPC   H7Y23074   2.354  -1.746  -1.232 -0.5482  0.4134 -2.6406
  187DOPC   C3823075   2.389  -1.647  -1.033  0.1398 -0.1199  0.5635
  187DOPC   H8X23076   2.493  -1.621  -1.061  0.2651 -1.9757 -0.9189
  187DOPC   H8Y23077   2.391  -1.752  -0.997  0.8218 -0.3717 -0.1771
  187DOPC   C3923078   2.339  -1.538  -0.939 -0.4116  0.5064 -0.3607
  187DOPC   H9X23079   2.345  -1.440  -0.988  0.4117 -0.8532 -3.1911
  187DOPC  C31023080   2.307  -1.542  -0.810  0.5077  0.3285 -0.7332
  187DOPC  H10X23081   2.264  -1.453  -0.763  1.0320  0.5496 -0.6604
  187DOPC  C31123082   2.313  -1.666  -0.724 -0.1315 -0.6020 -0.3890
  187DOPC  H11X23083   2.371  -1.750  -0.768  0.8531 -0.2341  0.1705
  187DOPC  H11Y23084   2.211  -1.705  -0.705 -0.4065  0.6037  0.7283
  187DOPC  C31223085   2.370  -1.650  -0.581 -0.2144 -0.5433  0.2574
  187DOPC  H12X23086   2.474  -1.610  -0.586 -0.6363  0.3623 -3.0164
  187DOPC  H12Y23087   2.376  -1.751  -0.535 -0.3728 -0.5900  0.1752
  187DOPC  C31323088   2.294  -1.552  -0.494 -0.2785  0.2177  0.4943
  187DOPC  H13X23089   2.291  -1.451  -0.540 -0.5550 -0.1990 -0.4110
  187DOPC  H13Y23090   2.190  -1.583  -0.474 -0.6439  2.0568  1.7564
  187DOPC  C31423091   2.364  -1.536  -0.359  0.1115  0.7299  0.4355
  187DOPC  H14X23092   2.378  -1.643  -0.332 -0.8176 -0.4385 -3.1301
  187DOPC  H14Y23093   2.463  -1.486  -0.367 -0.9182  2.7240 -0.3050
  187DOPC  C31523094   2.274  -1.474  -0.249 -0.5432 -0.2891  0.4332
  187DOPC  H15X23095   2.179  -1.530  -0.241 -0.7205  0.0548  0.7654
  187DOPC  H15Y23096   2.247  -1.372  -0.286  0.3653 -0.7145 -1.5502
  187DOPC  C31623097   2.335  -1.473  -0.109  0.0567  1.2296  0.0597
  187DOPC  H16X23098   2.337  -1.573  -0.061 -2.8810  0.7819 -0.5736
  187DOPC  H16Y23099   2.442  -1.446  -0.122  1.0424 -2.0025  0.6459
  187DOPC  C31723100   2.264  -1.384  -0.005  0.0605 -0.9708  0.2077
  187DOPC  H17X23101   2.282  -1.277  -0.031  0.1817 -1.1724 -0.5708
  187DOPC  H17Y23102   2.157  -1.410  -0.018 -0.0183 -0.6735  0.2523
  187DOPC  C31823103   2.306  -1.402   0.139  0.0211  0.6496  0.0040
  187DOPC  H18X23104   2.405  -1.359   0.162  0.0621  0.2722  0.5471
  187DOPC  H18Y23105   2.251  -1.336   0.210  1.3627  1.4997  0.2848
  187DOPC  H18Z23106   2.295  -1.509   0.168  2.7717 -0.0472 -1.1776
  188DOPC     N23107  -1.650  -3.120  -2.848  0.6124 -0.1732 -0.1471
  188DOPC   C1223108  -1.625  -2.973  -2.830  0.9295 -0.2663  0.3849
  188DOPC  H12A23109  -1.615  -2.932  -2.929 -1.1446 -1.0365 -0.2038
  188DOPC  H12B23110  -1.531  -2.956  -2.779  0.1683  0.2805  1.6653
  188DOPC   C1323111  -1.671  -3.191  -2.720 -0.1015 -0.5526  0.0201
  188DOPC  H13A23112  -1.710  -3.291  -2.728  1.1594 -0.9293 -2.0906
  188DOPC  H13B23113  -1.580  -3.210  -2.664  0.5794  0.3310 -0.7580
  188DOPC  H13C23114  -1.737  -3.129  -2.661 -0.5913 -0.5617 -0.5095
  188DOPC   C1423115  -1.532  -3.175  -2.923  0.2137 -0.4303 -0.3742
  188DOPC  H14A23116  -1.544  -3.282  -2.932  0.7473 -0.7834  2.1290
  188DOPC  H14B23117  -1.519  -3.125  -3.017  2.3469 -0.4798 -0.1592
  188DOPC  H14C23118  -1.441  -3.162  -2.866 -0.7887  1.9354  0.8268
  188DOPC   C1523119  -1.782  -3.136  -2.920  0.2004  0.4323  0.2397
  188DOPC  H15A23120  -1.856  -3.072  -2.874  0.5317  0.0753  1.3187
  188DOPC  H15B23121  -1.827  -3.235  -2.921 -2.7968  1.6750 -1.1960
  188DOPC  H15C23122  -1.789  -3.105  -3.023  0.4519 -0.5686 -0.1004
  188DOPC   C1123123  -1.736  -2.886  -2.757  0.2607 -0.0271 -0.7987
  188DOPC  H11A23124  -1.705  -2.779  -2.757  1.4639 -0.3527  0.0576
  188DOPC  H11B23125  -1.835  -2.886  -2.808 -0.9198 -1.4931  1.3181
  188DOPC     P23126  -1.672  -2.881  -2.505 -0.1098  0.4544  0.1347
  188DOPC   O1323127  -1.549  -2.808  -2.553 -0.0932 -0.0779 -0.4814
  188DOPC   O1423128  -1.646  -2.997  -2.419 -0.0759 -0.9308  0.1086
  188DOPC   O1223129  -1.766  -2.925  -2.623 -0.3120  0.4061  0.0292
  188DOPC   O1123130  -1.782  -2.777  -2.441 -0.2271  0.4136  0.2759
  188DOPC    C123131  -1.896  -2.820  -2.371 -0.0708 -0.6503  0.0547
  188DOPC    HA23132  -1.940  -2.917  -2.403 -0.3892 -1.1811  1.9370
  188DOPC    HB23133  -1.972  -2.740  -2.375  1.6548  1.1652  1.5533
  188DOPC    C223134  -1.875  -2.818  -2.213  0.3368  0.1596 -1.1562
  188DOPC    HS23135  -1.962  -2.771  -2.162  1.9592  3.4233 -1.1306
  188DOPC   O2123136  -1.764  -2.729  -2.174  0.2255  0.2789 -0.1818
  188DOPC   C2123137  -1.794  -2.601  -2.181 -0.0031 -0.3746  0.1382
  188DOPC   O2223138  -1.893  -2.549  -2.226  0.2182 -0.3766 -0.0016
  188DOPC   C2223139  -1.687  -2.516  -2.099 -0.8380 -0.1044  0.3705
  188DOPC   H2R23140  -1.651  -2.439  -2.170  0.1486  0.7101  1.7152
  188DOPC   H2S23141  -1.604  -2.587  -2.080 -0.7756 -0.0480  0.3106
  188DOPC    C323142  -1.832  -2.955  -2.148 -0.2654 -0.1918  0.8118
  188DOPC    HX23143  -1.744  -3.001  -2.197 -0.2150  1.1899 -0.4481
  188DOPC    HY23144  -1.919  -3.024  -2.159  0.7124 -1.5687  1.3916
  188DOPC   O3123145  -1.821  -2.944  -2.008  0.2762 -0.6028 -0.0507
  188DOPC   C3123146  -1.704  -2.963  -1.950 -0.9141 -0.4114  0.3722
  188DOPC   O3223147  -1.602  -2.999  -2.001  0.2017  0.8989 -0.2315
  188DOPC   C3223148  -1.722  -2.938  -1.805  0.8919 -0.5688 -0.0743
  188DOPC   H2X23149  -1.731  -2.828  -1.790 -0.9576 -0.4728 -1.5108
  188DOPC   H2Y23150  -1.825  -2.976  -1.785 -1.9667  4.4896 -3.0874
  188DOPC   C2323151  -1.753  -2.443  -1.977  0.1147 -0.2743  0.2349
  188DOPC   H3R23152  -1.840  -2.388  -2.017 -0.1286  0.1234  1.2593
  188DOPC   H3S23153  -1.688  -2.369  -1.926 -0.8427 -0.5057  1.8759
  188DOPC   C2423154  -1.776  -2.524  -1.852 -0.5939 -0.4176  0.2899
  188DOPC   H4R23155  -1.677  -2.546  -1.805 -0.5265  0.5396  0.6082
  188DOPC   H4S23156  -1.819  -2.625  -1.873 -0.7534 -0.2111 -0.3929
  188DOPC   C2523157  -1.865  -2.449  -1.755 -0.4347  0.5733  0.5240
  188DOPC   H5R23158  -1.960  -2.425  -1.808  0.7230  1.5092 -1.2289
  188DOPC   H5S23159  -1.812  -2.352  -1.741  1.1902 -0.0277 -1.0274
  188DOPC   C2623160  -1.895  -2.527  -1.624 -1.0931 -0.6130  0.8416
  188DOPC   H6R23161  -1.944  -2.625  -1.644 -0.7242 -0.3619 -1.5248
  188DOPC   H6S23162  -1.969  -2.465  -1.568  0.1726 -0.3401  2.2759
  188DOPC   C2723163  -1.763  -2.547  -1.542 -0.2667  0.4659  0.0536
  188DOPC   H7R23164  -1.728  -2.448  -1.505 -1.9804  0.4529  1.9108
  188DOPC   H7S23165  -1.700  -2.595  -1.620  0.6543  1.4828  0.1516
  188DOPC   C2823166  -1.773  -2.624  -1.407 -0.1001  0.4598 -0.6623
  188DOPC   H8R23167  -1.812  -2.724  -1.435  2.3555 -0.6916 -0.2556
  188DOPC   H8S23168  -1.847  -2.569  -1.345 -0.3645 -1.3687  0.6951
  188DOPC   C2923169  -1.633  -2.642  -1.348  0.2736 -0.0652  0.0895
  188DOPC   H9R23170  -1.570  -2.698  -1.419 -0.1357  0.7731 -0.9562
  188DOPC  C21023171  -1.594  -2.598  -1.231  0.2494 -0.2767 -0.4243
  188DOPC  H10R23172  -1.496  -2.619  -1.186 -0.0525  1.6563  1.2547
  188DOPC  C21123173  -1.684  -2.534  -1.124 -0.7562  0.1649  0.2268
  188DOPC  H11R23174  -1.789  -2.521  -1.159 -0.9166 -2.5821 -0.5070
  188DOPC  H11S23175  -1.648  -2.429  -1.115 -0.6147  0.2652 -1.2054
  188DOPC  C21223176  -1.702  -2.603  -0.986 -0.2141 -0.7140  0.7725
  188DOPC  H12R23177  -1.624  -2.679  -0.962  1.9415  1.9499  2.9160
  188DOPC  H12S23178  -1.799  -2.655  -1.002 -0.7441  0.6672 -0.7467
  188DOPC  C21323179  -1.730  -2.498  -0.880  0.4393  0.0250 -0.0497
  188DOPC  H13R23180  -1.824  -2.447  -0.908 -0.1238 -1.0166 -0.1129
  188DOPC  H13S23181  -1.644  -2.428  -0.879  1.2302 -0.9208  0.0940
  188DOPC  C21423182  -1.748  -2.582  -0.749 -0.2950  0.1199 -0.7460
  188DOPC  H14R23183  -1.657  -2.639  -0.723 -0.7643  1.0074  3.5905
  188DOPC  H14S23184  -1.828  -2.656  -0.772 -0.4171 -0.9554  2.5825
  188DOPC  C21523185  -1.778  -2.492  -0.632 -0.1497 -0.2048 -0.3303
  188DOPC  H15R23186  -1.850  -2.416  -0.669 -1.7635 -0.6783  1.6430
  188DOPC  H15S23187  -1.685  -2.435  -0.616 -1.9448  3.5760 -2.2003
  188DOPC  C21623188  -1.839  -2.553  -0.510 -0.0042  0.6858  0.1397
  188DOPC  H16R23189  -1.933  -2.608  -0.535 -0.0020  0.6909  0.1184
  188DOPC  H16S23190  -1.864  -2.476  -0.435  0.8178  0.2914  0.8418
  188DOPC  C21723191  -1.753  -2.662  -0.436  0.3882 -0.3555  0.3325
  188DOPC  H17R23192  -1.665  -2.610  -0.392  0.6630 -1.2969  0.9200
  188DOPC  H17S23193  -1.701  -2.738  -0.499  3.0176  1.7354 -0.1737
  188DOPC  C21823194  -1.833  -2.745  -0.332 -0.3981  0.5959 -0.5833
  188DOPC  H18R23195  -1.882  -2.832  -0.380  1.2712  0.4162 -2.0760
  188DOPC  H18S23196  -1.904  -2.675  -0.284  0.2361  0.9843 -0.1929
  188DOPC  H18T23197  -1.769  -2.787  -0.251 -0.1600 -2.3606 -2.1503
  188DOPC   C3323198  -1.619  -2.999  -1.708 -0.0166 -0.0186 -0.3530
  188DOPC   H3X23199  -1.512  -2.991  -1.736 -0.3067 -1.1438 -1.8948
  188DOPC   H3Y23200  -1.638  -3.107  -1.691  0.2762 -0.1580 -0.8959
  188DOPC   C3423201  -1.634  -2.949  -1.564 -0.1310 -0.1655 -1.5032
  188DOPC   H4X23202  -1.736  -2.918  -1.535  0.6468  3.1849 -1.9063
  188DOPC   H4Y23203  -1.579  -2.852  -1.559 -0.2402 -0.1734  1.0287
  188DOPC   C3523204  -1.575  -3.041  -1.465  0.0985  0.5331  0.5336
  188DOPC   H5X23205  -1.470  -3.067  -1.489 -0.3609 -0.8154 -0.1173
  188DOPC   H5Y23206  -1.641  -3.131  -1.473  1.1895 -0.1422 -1.4205
  188DOPC   C3623207  -1.566  -3.002  -1.323  0.6129 -0.1502 -0.1133
  188DOPC   H6X23208  -1.489  -2.924  -1.307 -1.0665  1.7067 -0.6877
  188DOPC   H6Y23209  -1.661  -2.951  -1.298  2.0485  2.5727  0.1425
  188DOPC   C3723210  -1.543  -3.122  -1.230  0.0879 -0.3832  0.0071
  188DOPC   H7X23211  -1.644  -3.168  -1.227  1.0635 -2.6122  1.2172
  188DOPC   H7Y23212  -1.477  -3.199  -1.276  1.0029  1.4516 -1.9267
  188DOPC   C3823213  -1.506  -3.080  -1.085  0.5517  0.4152  0.4955
  188DOPC   H8X23214  -1.584  -3.007  -1.058 -0.3681 -0.5471  0.4867
  188DOPC   H8Y23215  -1.411  -3.021  -1.090 -0.3178  1.8969  0.9636
  188DOPC   C3923216  -1.479  -3.199  -0.995 -0.1297  0.4770 -0.5942
  188DOPC   H9X23217  -1.411  -3.268  -1.047 -1.2292  1.9634 -4.3907
  188DOPC  C31023218  -1.522  -3.203  -0.863 -1.2541 -0.4338  0.1538
  188DOPC  H10X23219  -1.507  -3.285  -0.790 -1.1683  1.6188  2.5794
  188DOPC  C31123220  -1.611  -3.097  -0.800 -0.5694  0.4768 -0.4207
  188DOPC  H11X23221  -1.713  -3.141  -0.791 -0.6358  0.8420  0.7346
  188DOPC  H11Y23222  -1.600  -3.007  -0.864  3.2466 -0.2641 -1.0718
  188DOPC  C31223223  -1.549  -3.052  -0.670 -0.7791 -0.1674  0.6041
  188DOPC  H12X23224  -1.602  -2.963  -0.631 -1.9859 -0.4969 -0.2157
  188DOPC  H12Y23225  -1.447  -3.015  -0.696 -0.5850 -0.4532  0.9507
  188DOPC  C31323226  -1.539  -3.159  -0.566  0.4326  0.0278  0.3639
  188DOPC  H13X23227  -1.636  -3.213  -0.557  0.6277 -0.9074 -2.2176
  188DOPC  H13Y23228  -1.461  -3.230  -0.601 -1.5404 -1.4479 -1.2910
  188DOPC  C31423229  -1.510  -3.116  -0.424  0.0834  0.0615 -0.2160
  188DOPC  H14X23230  -1.421  -3.170  -0.386  0.0367  1.8839  2.8556
  188DOPC  H14Y23231  -1.477  -3.011  -0.434 -2.2233  0.8347 -0.3555
  188DOPC  C31523232  -1.628  -3.118  -0.321 -0.9203  0.4697 -0.3477
  188DOPC  H15X23233  -1.667  -3.221  -0.322 -0.4598  0.2908 -0.7770
  188DOPC  H15Y23234  -1.702  -3.056  -0.377  0.0032 -0.3692 -2.6505
  188DOPC  C31623235  -1.576  -3.061  -0.187  0.1621  0.5179  0.7423
  188DOPC  H16X23236  -1.504  -2.977  -0.195  1.6631 -0.5954  2.0190
  188DOPC  H16Y23237  -1.660  -3.027  -0.122  0.2337  0.7787  0.7011
  188DOPC  C31723238  -1.497  -3.163  -0.099  0.3684 -0.8689  0.1068
  188DOPC  H17X23239  -1.550  -3.261  -0.093  2.6004 -2.0740  1.3092
  188DOPC  H17Y23240  -1.407  -3.173  -0.163  1.2957  0.1285  1.1930
  188DOPC  C31823241  -1.471  -3.093   0.042  0.0147 -0.0428 -0.4052
  188DOPC  H18X23242  -1.367  -3.118   0.071  0.6657  1.4139 -1.3667
  188DOPC  H18Y23243  -1.492  -2.984   0.034 -4.6911 -0.8450 -2.0342
  188DOPC  H18Z23244  -1.535  -3.140   0.120  1.7782 -1.1617  0.4243
  189DOPC     N23245   0.291  -2.039  -2.182  0.0406  0.7418  0.7098
  189DOPC   C1223246   0.194  -2.011  -2.292 -0.0177 -0.1845 -0.4362
  189DOPC  H12A23247   0.190  -2.102  -2.350 -0.4574 -0.2658 -0.2829
  189DOPC  H12B23248   0.243  -1.936  -2.353  0.6455 -0.7174 -0.5734
  189DOPC   C1323249   0.292  -1.932  -2.073 -0.3219  0.4734  0.1007
  189DOPC  H13A23250   0.365  -1.953  -1.996 -0.2212  2.5008  0.6063
  189DOPC  H13B23251   0.314  -1.835  -2.115 -1.1551  1.5008  1.9284
  189DOPC  H13C23252   0.195  -1.929  -2.027  0.1960 -0.6981  1.3521
  189DOPC   C1423253   0.427  -2.054  -2.237  0.2752  0.3476 -0.9437
  189DOPC  H14A23254   0.438  -2.123  -2.320  2.6903  0.7256 -1.0081
  189DOPC  H14B23255   0.467  -1.956  -2.258  1.1942  0.5894  1.6463
  189DOPC  H14C23256   0.486  -2.100  -2.160  0.0207 -0.2913 -1.1220
  189DOPC   C1523257   0.253  -2.174  -2.118  0.2283 -0.4400  0.5437
  189DOPC  H15A23258   0.295  -2.184  -2.018  1.9675  1.9874  0.1573
  189DOPC  H15B23259   0.287  -2.259  -2.175 -1.2282 -1.2771  0.8845
  189DOPC  H15C23260   0.146  -2.176  -2.107  0.2365  0.7583  0.9586
  189DOPC   C1123261   0.048  -1.972  -2.247 -0.0921  0.2445  0.9725
  189DOPC  H11A23262   0.041  -1.880  -2.186 -0.7812  1.5640 -1.0024
  189DOPC  H11B23263  -0.003  -1.962  -2.345 -0.3165  0.7563  1.1439
  189DOPC     P23264  -0.176  -2.057  -2.133 -0.3334  0.5405  0.1332
  189DOPC   O1323265  -0.227  -2.188  -2.098  0.0833  0.1976 -0.1991
  189DOPC   O1423266  -0.251  -1.979  -2.233  0.3281 -0.0149 -0.0571
  189DOPC   O1223267  -0.030  -2.077  -2.183 -0.6197  0.1290  0.7166
  189DOPC   O1123268  -0.159  -1.972  -2.008 -0.7377  0.3676 -0.2960
  189DOPC    C123269  -0.142  -2.022  -1.876  0.1065  0.3167 -0.5278
  189DOPC    HA23270  -0.085  -1.939  -1.829  0.3641  0.0056 -0.2893
  189DOPC    HB23271  -0.083  -2.115  -1.859  0.0555  0.7303  2.3750
  189DOPC    C223272  -0.280  -2.051  -1.808  0.4572 -0.2987  0.2689
  189DOPC    HS23273  -0.329  -2.132  -1.866 -0.6868  2.7681 -3.4439
  189DOPC   O2123274  -0.360  -1.929  -1.821  0.0897 -0.0017 -0.6280
  189DOPC   C2123275  -0.493  -1.957  -1.833  0.0018  0.2453  0.2336
  189DOPC   O2223276  -0.539  -2.068  -1.850 -0.6640  0.4367 -0.0675
  189DOPC   C2223277  -0.568  -1.812  -1.832 -0.2625 -0.1847 -0.0141
  189DOPC   H2R23278  -0.654  -1.815  -1.761 -0.8331 -0.2258 -0.7063
  189DOPC   H2S23279  -0.614  -1.804  -1.933 -1.2533  1.0976  0.5068
  189DOPC    C323280  -0.260  -2.090  -1.666  0.0643  0.0163 -0.6366
  189DOPC    HX23281  -0.194  -2.009  -1.630  0.4146 -0.2219 -0.7396
  189DOPC    HY23282  -0.196  -2.178  -1.645 -0.8709 -0.3030  1.1648
  189DOPC   O3123283  -0.384  -2.096  -1.591 -0.5289  0.0763  0.1374
  189DOPC   C3123284  -0.376  -2.065  -1.462  0.2783 -0.3259  0.1780
  189DOPC   O3223285  -0.276  -2.041  -1.400  0.2611  0.2602 -0.3317
  189DOPC   C3223286  -0.521  -2.053  -1.399 -0.6585 -0.4002 -0.6664
  189DOPC   H2X23287  -0.571  -1.976  -1.463 -2.1267 -0.3997  0.4190
  189DOPC   H2Y23288  -0.571  -2.152  -1.407  1.3744 -1.6460  0.9714
  189DOPC   C2323289  -0.481  -1.692  -1.795 -0.9042 -0.0786  0.1035
  189DOPC   H3R23290  -0.382  -1.685  -1.846  0.8521 -2.3544  2.8602
  189DOPC   H3S23291  -0.436  -1.708  -1.694  1.6324 -2.0075 -1.2364
  189DOPC   C2423292  -0.552  -1.554  -1.796  0.4578 -0.0967 -0.3265
  189DOPC   H4R23293  -0.564  -1.525  -1.903 -0.3610  2.1966  0.3222
  189DOPC   H4S23294  -0.481  -1.490  -1.738  0.5845 -1.4071  1.0056
  189DOPC   C2523295  -0.695  -1.546  -1.732 -0.4728  0.2138  1.6830
  189DOPC   H5R23296  -0.764  -1.610  -1.791  0.6226  0.3526  0.2140
  189DOPC   H5S23297  -0.742  -1.445  -1.739 -1.8771 -0.5484 -2.0585
  189DOPC   C2623298  -0.696  -1.601  -1.590  0.1080 -0.0424 -0.5117
  189DOPC   H6R23299  -0.616  -1.678  -1.579 -0.2022 -0.6256 -2.1130
  189DOPC   H6S23300  -0.794  -1.648  -1.571 -0.6780  0.5684 -2.7345
  189DOPC   C2723301  -0.670  -1.494  -1.488 -0.1497 -0.4417 -0.6664
  189DOPC   H7R23302  -0.738  -1.409  -1.509 -0.5397 -0.3467  0.8198
  189DOPC   H7S23303  -0.569  -1.454  -1.511  0.9853 -2.1082  1.0655
  189DOPC   C2823304  -0.689  -1.540  -1.345  0.3024 -0.0556 -0.3808
  189DOPC   H8R23305  -0.793  -1.579  -1.336  0.0456  0.7982  0.4862
  189DOPC   H8S23306  -0.689  -1.444  -1.289  1.8459 -0.8279  1.0258
  189DOPC   C2923307  -0.594  -1.639  -1.285 -0.4906  0.5120 -0.2156
  189DOPC   H9R23308  -0.581  -1.731  -1.345  2.3490  0.3131  0.5874
  189DOPC  C21023309  -0.527  -1.642  -1.167  0.2947  0.0632  0.1197
  189DOPC  H10R23310  -0.460  -1.725  -1.139 -0.5260 -0.4136  0.7139
  189DOPC  C21123311  -0.543  -1.535  -1.062  0.3660  0.3092  0.0642
  189DOPC  H11R23312  -0.651  -1.510  -1.052  0.0914 -1.2921  1.6107
  189DOPC  H11S23313  -0.496  -1.440  -1.096  0.6294  0.7471  1.5707
  189DOPC  C21223314  -0.504  -1.571  -0.920  0.1221  0.5071 -0.6434
  189DOPC  H12R23315  -0.405  -1.620  -0.925 -0.6409 -1.4386  1.3606
  189DOPC  H12S23316  -0.566  -1.661  -0.901  0.5607 -0.0465 -1.7246
  189DOPC  C21323317  -0.524  -1.471  -0.810  0.3875  0.2813  0.2361
  189DOPC  H13R23318  -0.633  -1.451  -0.797  0.1276 -0.7899 -0.1795
  189DOPC  H13S23319  -0.476  -1.375  -0.836 -2.0297  1.4186 -0.2831
  189DOPC  C21423320  -0.474  -1.507  -0.671 -0.3396 -0.4646 -0.6248
  189DOPC  H14R23321  -0.365  -1.520  -0.684  0.3583  4.3682 -1.7095
  189DOPC  H14S23322  -0.523  -1.603  -0.645  0.0072 -0.2451  0.9243
  189DOPC  C21523323  -0.515  -1.392  -0.570  0.4444  0.3376 -0.3553
  189DOPC  H15R23324  -0.490  -1.425  -0.467  0.1334  0.6491 -0.1772
  189DOPC  H15S23325  -0.626  -1.392  -0.566  0.4454 -1.8475  2.4121
  189DOPC  C21623326  -0.465  -1.255  -0.594 -0.2888 -0.1194 -0.0458
  189DOPC  H16R23327  -0.496  -1.181  -0.518  2.2650 -0.1854  1.1767
  189DOPC  H16S23328  -0.510  -1.217  -0.688 -1.2900 -0.1355  0.4231
  189DOPC  C21723329  -0.307  -1.249  -0.610 -0.0242 -0.0349  0.1676
  189DOPC  H17R23330  -0.273  -1.296  -0.705  1.3482 -0.9573  1.0890
  189DOPC  H17S23331  -0.266  -1.309  -0.526 -0.3465 -0.0483  0.3162
  189DOPC  C21823332  -0.239  -1.109  -0.615 -0.4980  0.2976 -0.6856
  189DOPC  H18R23333  -0.130  -1.131  -0.607 -1.0371 -1.9872  1.1838
  189DOPC  H18S23334  -0.261  -1.059  -0.518 -0.1325 -2.6022  1.0093
  189DOPC  H18T23335  -0.271  -1.052  -0.705 -1.4942  0.2828 -0.3519
  189DOPC   C3323336  -0.510  -2.007  -1.249  0.0992 -0.0592  0.6717
  189DOPC   H3X23337  -0.599  -1.950  -1.215 -1.5849 -1.2246 -1.5190
  189DOPC   H3Y23338  -0.426  -1.936  -1.235 -1.9231  2.2447  1.9665
  189DOPC   C3423339  -0.484  -2.122  -1.151 -0.0528  0.1965  0.1704
  189DOPC   H4X23340  -0.394  -2.167  -1.199 -0.8177 -1.1212 -0.0954
  189DOPC   H4Y23341  -0.572  -2.190  -1.155  0.1582 -0.1363  1.0276
  189DOPC   C3523342  -0.462  -2.083  -1.010 -0.8119  0.9408  0.2593
  189DOPC   H5X23343  -0.513  -1.987  -0.982 -1.1084  0.4011  1.6499
  189DOPC   H5Y23344  -0.358  -2.048  -0.996 -1.3148  2.8247 -0.2758
  189DOPC   C3623345  -0.501  -2.197  -0.924 -0.1149 -0.2285 -0.2045
  189DOPC   H6X23346  -0.610  -2.212  -0.938 -0.0283 -0.0695 -1.0979
  189DOPC   H6Y23347  -0.453  -2.290  -0.962  1.2873  1.2886 -2.3451
  189DOPC   C3723348  -0.470  -2.169  -0.781  0.5612 -0.2101 -0.1507
  189DOPC   H7X23349  -0.362  -2.154  -0.759  0.2511 -0.5007  1.7263
  189DOPC   H7Y23350  -0.526  -2.077  -0.754 -0.6866 -1.5493  2.1374
  189DOPC   C3823351  -0.509  -2.277  -0.680  0.1710  0.6153  0.4060
  189DOPC   H8X23352  -0.448  -2.367  -0.700  2.7638  1.6273  3.0682
  189DOPC   H8Y23353  -0.616  -2.295  -0.704  0.3044 -0.2605  0.4383
  189DOPC   C3923354  -0.499  -2.236  -0.536 -0.2551 -0.1050  0.1136
  189DOPC   H9X23355  -0.409  -2.176  -0.512 -0.2244 -0.7763  1.8567
  189DOPC  C31023356  -0.593  -2.265  -0.443 -0.2114 -0.0245 -0.1954
  189DOPC  H10X23357  -0.563  -2.239  -0.340 -0.4931  1.9211 -0.5715
  189DOPC  C31123358  -0.715  -2.353  -0.454 -0.0075 -0.2835  0.1276
  189DOPC  H11X23359  -0.691  -2.438  -0.521 -2.9564 -1.9099  0.9476
  189DOPC  H11Y23360  -0.794  -2.296  -0.508  0.8891 -0.6670 -1.6628
  189DOPC  C31223361  -0.779  -2.419  -0.331 -0.0628  0.0194 -0.4087
  189DOPC  H12X23362  -0.699  -2.491  -0.300  0.8661  2.1430  2.5246
  189DOPC  H12Y23363  -0.873  -2.465  -0.369 -0.4901  1.2360 -0.8561
  189DOPC  C31323364  -0.815  -2.327  -0.217 -0.1577  0.3686 -0.3112
  189DOPC  H13X23365  -0.726  -2.303  -0.155 -1.2974 -0.5533  1.8394
  189DOPC  H13Y23366  -0.842  -2.227  -0.256  0.1933  0.5412 -0.1096
  189DOPC  C31423367  -0.929  -2.387  -0.133  0.4030  0.2400  0.3530
  189DOPC  H14X23368  -1.018  -2.410  -0.196 -0.4330 -3.0469  2.4965
  189DOPC  H14Y23369  -0.892  -2.477  -0.080  0.8218  1.0336  1.4477
  189DOPC  C31523370  -0.978  -2.293  -0.027 -0.0438  0.3742  0.8007
  189DOPC  H15X23371  -0.986  -2.194  -0.077 -0.9313 -0.4811 -0.8016
  189DOPC  H15Y23372  -0.900  -2.286   0.052  1.1276  0.7554 -0.3571
  189DOPC  C31623373  -1.108  -2.334   0.045 -0.4253  0.5260  0.1186
  189DOPC  H16X23374  -1.179  -2.384  -0.024 -0.3552 -1.3830  1.3700
  189DOPC  H16Y23375  -1.082  -2.404   0.127 -2.0118  0.8792  0.9486
  189DOPC  C31723376  -1.172  -2.210   0.101  0.0527 -0.7108 -0.1327
  189DOPC  H17X23377  -1.092  -2.155   0.154  0.0822 -1.5651  0.7221
  189DOPC  H17Y23378  -1.205  -2.152   0.012  0.1536 -1.8211 -0.9169
  189DOPC  C31823379  -1.299  -2.226   0.184 -0.6306 -0.0023 -0.1653
  189DOPC  H18X23380  -1.380  -2.286   0.138 -2.9231  2.3056  0.5996
  189DOPC  H18Y23381  -1.273  -2.262   0.286  0.2933  0.2184 -0.3136
  189DOPC  H18Z23382  -1.345  -2.127   0.203  1.2781  0.8346  0.3778
  190DOPC     N23383  -2.725  -3.303  -2.876 -0.3457 -0.1991 -0.3130
  190DOPC   C1223384  -2.593  -3.261  -2.828 -0.2879 -0.0628 -0.2229
  190DOPC  H12A23385  -2.565  -3.163  -2.864  1.3932  0.6587  2.7376
  190DOPC  H12B23386  -2.522  -3.324  -2.879  1.1587  2.1263 -1.1007
  190DOPC   C1323387  -2.757  -3.447  -2.841 -0.0589  0.1085  0.2640
  190DOPC  H13A23388  -2.774  -3.460  -2.735 -2.9078  3.2916  0.3841
  190DOPC  H13B23389  -2.854  -3.472  -2.881  0.8043 -1.7117 -0.8671
  190DOPC  H13C23390  -2.690  -3.526  -2.872  0.5837  0.4614  0.7111
  190DOPC   C1423391  -2.724  -3.304  -3.027  0.0127 -0.6066  0.6183
  190DOPC  H14A23392  -2.820  -3.329  -3.070  0.4837 -1.3651 -0.0297
  190DOPC  H14B23393  -2.691  -3.208  -3.064  0.4086 -1.7657 -2.3166
  190DOPC  H14C23394  -2.653  -3.378  -3.059  1.5822  1.4039 -0.7456
  190DOPC   C1523395  -2.843  -3.221  -2.821 -0.5798 -0.7415  0.2121
  190DOPC  H15A23396  -2.826  -3.115  -2.837 -0.7300 -0.5035  1.5225
  190DOPC  H15B23397  -2.850  -3.235  -2.714 -0.5837  0.0341  0.3200
  190DOPC  H15C23398  -2.936  -3.236  -2.874  0.5063 -1.7189 -1.4997
  190DOPC   C1123399  -2.553  -3.245  -2.675  0.4299 -0.5092 -0.3489
  190DOPC  H11A23400  -2.447  -3.212  -2.670  0.5818 -1.1669  1.2317
  190DOPC  H11B23401  -2.611  -3.161  -2.632 -1.0539 -0.7557 -1.7519
  190DOPC     P23402  -2.665  -3.373  -2.473 -0.0009  0.0892 -0.3991
  190DOPC   O1323403  -2.642  -3.498  -2.398  0.1650  0.1767  0.7975
  190DOPC   O1423404  -2.802  -3.369  -2.512  0.4350  0.2085  0.8641
  190DOPC   O1223405  -2.572  -3.365  -2.601  0.8436 -0.1185  0.5033
  190DOPC   O1123406  -2.624  -3.247  -2.386 -0.3369  0.6119 -0.0222
  190DOPC    C123407  -2.490  -3.250  -2.326 -0.0928  0.4568  0.7699
  190DOPC    HA23408  -2.412  -3.194  -2.382  1.1006  0.0990  2.0191
  190DOPC    HB23409  -2.450  -3.349  -2.297 -0.6320  0.2420  0.7997
  190DOPC    C223410  -2.495  -3.191  -2.183 -0.0159  0.6433  0.2938
  190DOPC    HS23411  -2.392  -3.195  -2.141  1.1111 -0.2322 -2.3217
  190DOPC   O2123412  -2.585  -3.282  -2.111 -0.0198 -0.7349  0.0442
  190DOPC   C2123413  -2.564  -3.288  -1.981 -0.4316 -0.2013 -0.0129
  190DOPC   O2223414  -2.472  -3.231  -1.926 -0.2995 -0.0278 -0.5257
  190DOPC   C2223415  -2.675  -3.379  -1.926 -0.1098 -0.4671 -0.2948
  190DOPC   H2R23416  -2.634  -3.476  -1.891 -1.1765 -1.0779 -0.7251
  190DOPC   H2S23417  -2.751  -3.412  -1.999  1.8314 -1.7684 -1.8428
  190DOPC    C323418  -2.546  -3.042  -2.193  0.1014  0.6487 -0.2029
  190DOPC    HX23419  -2.650  -3.056  -2.232 -0.6200 -1.5900  2.3082
  190DOPC    HY23420  -2.477  -3.002  -2.271  0.8067 -0.2108 -0.0278
  190DOPC   O3123421  -2.528  -2.969  -2.071 -0.1928 -0.3755 -0.0235
  190DOPC   C3123422  -2.633  -2.964  -1.996  0.5614  0.1123 -0.8127
  190DOPC   O3223423  -2.742  -2.998  -2.026  0.1745  0.2642 -0.3416
  190DOPC   C3223424  -2.611  -2.869  -1.875  0.0213  0.6059  0.0478
  190DOPC   H2X23425  -2.506  -2.893  -1.846  0.6177  1.1055 -1.5823
  190DOPC   H2Y23426  -2.619  -2.769  -1.922  1.9317  0.9411  0.3543
  190DOPC   C2323427  -2.749  -3.302  -1.819  0.3175  0.3157 -1.2456
  190DOPC   H3R23428  -2.853  -3.340  -1.806 -0.1835  1.6790 -1.0998
  190DOPC   H3S23429  -2.773  -3.196  -1.843 -1.3907  0.6624  1.5334
  190DOPC   C2423430  -2.682  -3.316  -1.681  0.3449 -0.0753 -0.4371
  190DOPC   H4R23431  -2.579  -3.275  -1.680  0.5639 -0.6190  1.0064
  190DOPC   H4S23432  -2.675  -3.426  -1.663  0.8517  0.2015  1.2142
  190DOPC   C2523433  -2.757  -3.243  -1.569  0.3782 -0.1815 -0.3763
  190DOPC   H5R23434  -2.865  -3.267  -1.573  0.1562  0.8936 -3.0762
  190DOPC   H5S23435  -2.740  -3.139  -1.604  1.4083 -0.1305  0.2267
  190DOPC   C2623436  -2.697  -3.254  -1.433 -0.2758  0.2310 -0.7735
  190DOPC   H6R23437  -2.591  -3.221  -1.430 -0.5099  0.9505  0.4903
  190DOPC   H6S23438  -2.705  -3.360  -1.400  0.3209  0.1977 -0.7365
  190DOPC   C2723439  -2.778  -3.166  -1.336  0.3467  0.8450 -0.0987
  190DOPC   H7R23440  -2.876  -3.218  -1.333  0.8970 -0.1818  0.5875
  190DOPC   H7S23441  -2.783  -3.069  -1.389  3.0996  0.5131 -1.1515
  190DOPC   C2823442  -2.706  -3.150  -1.199  0.0143  0.1343  0.2066
  190DOPC   H8R23443  -2.608  -3.098  -1.210  0.1131  0.0686  0.7343
  190DOPC   H8S23444  -2.694  -3.254  -1.160  0.2979 -0.4659 -1.4338
  190DOPC   C2923445  -2.790  -3.086  -1.094 -0.4331 -0.0231 -0.7728
  190DOPC   H9R23446  -2.825  -2.984  -1.119 -0.7470 -0.1288 -0.7749
  190DOPC  C21023447  -2.838  -3.141  -0.979 -0.1749  0.8782 -0.2337
  190DOPC  H10R23448  -2.897  -3.077  -0.912  0.5579  0.7824  0.5209
  190DOPC  C21123449  -2.822  -3.280  -0.914  0.2585 -0.2804 -0.2609
  190DOPC  H11R23450  -2.733  -3.338  -0.948 -0.2269 -1.0628 -0.2052
  190DOPC  H11S23451  -2.915  -3.336  -0.939 -1.0422  1.5585  0.2339
  190DOPC  C21223452  -2.826  -3.248  -0.760 -0.0058 -0.1532  0.1870
  190DOPC  H12R23453  -2.900  -3.176  -0.718 -1.2203 -0.7266 -0.9112
  190DOPC  H12S23454  -2.733  -3.198  -0.724 -1.4047  0.1932  3.8207
  190DOPC  C21323455  -2.814  -3.397  -0.705 -0.2503  0.5822  0.0891
  190DOPC  H13R23456  -2.759  -3.382  -0.609 -1.0581  0.9432  0.5078
  190DOPC  H13S23457  -2.763  -3.464  -0.777  2.6401  2.0183  0.6440
  190DOPC  C21423458  -2.953  -3.457  -0.676  0.1721 -0.6391  0.4084
  190DOPC  H14R23459  -3.026  -3.455  -0.760 -0.8257 -0.4935  1.2543
  190DOPC  H14S23460  -2.995  -3.389  -0.599 -1.5579 -2.0472  0.7848
  190DOPC  C21523461  -2.941  -3.596  -0.611  0.0875  0.3688 -0.1116
  190DOPC  H15R23462  -2.858  -3.589  -0.537  0.3953 -1.2265 -0.2788
  190DOPC  H15S23463  -2.913  -3.661  -0.696  0.2518  0.8337 -0.4191
  190DOPC  C21623464  -3.067  -3.653  -0.548  0.1652  0.4017 -0.0972
  190DOPC  H16R23465  -3.144  -3.673  -0.625  1.8281 -1.6316 -1.3432
  190DOPC  H16S23466  -3.112  -3.592  -0.467 -0.2638 -1.5730  1.2455
  190DOPC  C21723467  -3.034  -3.778  -0.474 -0.3928 -0.0587  0.8254
  190DOPC  H17R23468  -2.989  -3.753  -0.375 -1.3203 -2.5962  1.9774
  190DOPC  H17S23469  -2.957  -3.836  -0.529 -0.1758  1.3372 -0.4131
  190DOPC  C21823470  -3.152  -3.869  -0.456 -0.5424  0.7335 -0.5909
  190DOPC  H18R23471  -3.175  -3.912  -0.556  3.4197 -0.4266 -1.1743
  190DOPC  H18S23472  -3.238  -3.815  -0.410 -0.2451  1.5781 -0.9968
  190DOPC  H18T23473  -3.127  -3.962  -0.401 -1.0816  1.0017  0.1333
  190DOPC   C3323474  -2.724  -2.890  -1.776 -0.0272  0.2781  0.3361
  190DOPC   H3X23475  -2.706  -2.998  -1.756  0.5231 -0.2279 -2.4160
  190DOPC   H3Y23476  -2.829  -2.883  -1.813 -0.2299 -0.8873  0.6418
  190DOPC   C3423477  -2.718  -2.811  -1.643 -0.5302  0.0990  0.2642
  190DOPC   H4X23478  -2.720  -2.703  -1.667 -0.9317 -0.1711 -1.0059
  190DOPC   H4Y23479  -2.629  -2.837  -1.582 -0.1378  1.5374  0.3420
  190DOPC   C3523480  -2.845  -2.834  -1.564 -0.0956 -0.1555 -0.0961
  190DOPC   H5X23481  -2.844  -2.939  -1.527  1.9026 -0.6268 -1.3046
  190DOPC   H5Y23482  -2.928  -2.817  -1.636 -1.2475  4.4383  1.9776
  190DOPC   C3623483  -2.852  -2.740  -1.447  0.5601 -0.3476 -0.0643
  190DOPC   H6X23484  -2.756  -2.714  -1.398 -0.2059  0.7378  0.9059
  190DOPC   H6Y23485  -2.900  -2.648  -1.486 -1.3925 -1.1983  0.2266
  190DOPC   C3723486  -2.944  -2.786  -1.331  0.5039 -0.0982  0.2283
  190DOPC   H7X23487  -3.052  -2.785  -1.357  0.0619 -0.5663  1.9337
  190DOPC   H7Y23488  -2.904  -2.886  -1.303  2.3081 -0.8598 -4.2002
  190DOPC   C3823489  -2.934  -2.697  -1.211  0.2046  0.1612 -0.8883
  190DOPC   H8X23490  -2.981  -2.599  -1.234 -1.1030  0.0359  1.0865
  190DOPC   H8Y23491  -2.828  -2.669  -1.195  0.4687 -0.5165 -1.3954
  190DOPC   C3923492  -2.994  -2.737  -1.087 -0.2474 -0.1533 -0.0162
  190DOPC   H9X23493  -3.102  -2.753  -1.083 -0.0427 -1.4500  2.2768
  190DOPC  C31023494  -2.926  -2.761  -0.971  0.6536 -0.0891 -0.5341
  190DOPC  H10X23495  -2.992  -2.785  -0.887 -2.2678 -0.1501 -2.6656
  190DOPC  C31123496  -2.776  -2.760  -0.940 -0.2298 -1.1148  0.4749
  190DOPC  H11X23497  -2.735  -2.692  -1.018 -0.2832  0.6927  1.9554
  190DOPC  H11Y23498  -2.728  -2.859  -0.952  2.9329  0.2513  0.9568
  190DOPC  C31223499  -2.741  -2.714  -0.797 -0.3437 -0.0281  0.5843
  190DOPC  H12X23500  -2.784  -2.784  -0.723 -0.2773 -2.0977 -1.2130
  190DOPC  H12Y23501  -2.789  -2.618  -0.770 -0.3333  0.3375 -0.6141
  190DOPC  C31323502  -2.593  -2.721  -0.758 -0.3410  0.5987 -0.0367
  190DOPC  H13X23503  -2.554  -2.825  -0.767 -0.0969  0.2585  3.3688
  190DOPC  H13Y23504  -2.525  -2.672  -0.831  1.8366 -1.4386  0.4774
  190DOPC  C31423505  -2.573  -2.680  -0.613  0.0852 -0.5820 -0.7413
  190DOPC  H14X23506  -2.617  -2.579  -0.598  2.2016  0.2136  0.5603
  190DOPC  H14Y23507  -2.636  -2.741  -0.545 -0.7383  0.5793 -0.4248
  190DOPC  C31523508  -2.424  -2.700  -0.560  0.1871  0.1503 -0.2036
  190DOPC  H15X23509  -2.360  -2.645  -0.632  1.4070 -1.1316 -0.1328
  190DOPC  H15Y23510  -2.406  -2.808  -0.578  0.4097  0.2273 -0.4441
  190DOPC  C31623511  -2.391  -2.661  -0.419  0.5829  0.6256  0.2115
  190DOPC  H16X23512  -2.410  -2.552  -0.416  1.1127  0.9375 -3.2565
  190DOPC  H16Y23513  -2.458  -2.716  -0.349  0.9404 -0.0469  0.0379
  190DOPC  C31723514  -2.241  -2.679  -0.384  0.2969  0.4765 -0.2275
  190DOPC  H17X23515  -2.219  -2.771  -0.443 -1.4273  0.4110 -0.8191
  190DOPC  H17Y23516  -2.183  -2.594  -0.424 -0.1302  0.1975 -1.4969
  190DOPC  C31823517  -2.217  -2.684  -0.231  0.0109 -0.2499  0.3371
  190DOPC  H18X23518  -2.281  -2.764  -0.188  0.2470  0.4097  2.0050
  190DOPC  H18Y23519  -2.114  -2.712  -0.204  0.5810  1.1977 -0.2258
  190DOPC  H18Z23520  -2.243  -2.589  -0.179  0.8083 -0.0318  0.3412
  191DOPC     N23521   1.585  -2.901  -2.305 -0.0538  0.1042 -0.5826
  191DOPC   C1223522   1.479  -2.842  -2.398  0.5417  0.6452  0.1629
  191DOPC  H12A23523   1.430  -2.928  -2.441  0.8936  0.4883  0.0731
  191DOPC  H12B23524   1.529  -2.802  -2.485 -1.9558 -0.1652 -1.7674
  191DOPC   C1323525   1.664  -2.994  -2.392 -0.3760  0.7350 -0.5519
  191DOPC  H13A23526   1.613  -3.087  -2.407  2.7269 -0.8182 -2.5353
  191DOPC  H13B23527   1.686  -2.949  -2.487  0.0476  1.0536 -0.3095
  191DOPC  H13C23528   1.756  -3.028  -2.346 -0.9522 -0.2074 -0.0723
  191DOPC   C1423529   1.527  -2.989  -2.191  0.1654 -0.0059  0.4506
  191DOPC  H14A23530   1.458  -2.929  -2.134  1.6353  0.0220  2.3044
  191DOPC  H14B23531   1.475  -3.078  -2.223 -0.0403  0.0202  0.7039
  191DOPC  H14C23532   1.599  -3.016  -2.115 -0.5913 -2.2612  0.4578
  191DOPC   C1523533   1.672  -2.798  -2.247  0.2656 -0.1473 -0.5455
  191DOPC  H15A23534   1.703  -2.724  -2.320  0.1829 -1.0547 -1.5152
  191DOPC  H15B23535   1.758  -2.847  -2.203 -1.1696 -0.9641  1.4669
  191DOPC  H15C23536   1.624  -2.732  -2.176 -2.2033  0.5722 -2.7328
  191DOPC   C1123537   1.367  -2.745  -2.339 -0.9866  0.0554  0.2182
  191DOPC  H11A23538   1.301  -2.809  -2.276  0.7189 -0.5245  1.4956
  191DOPC  H11B23539   1.416  -2.671  -2.272 -1.4397 -0.7025  1.4353
  191DOPC     P23540   1.332  -2.538  -2.496 -0.2316  0.5907 -0.1159
  191DOPC   O1323541   1.220  -2.497  -2.581  1.0984  0.3023 -0.3522
  191DOPC   O1423542   1.465  -2.525  -2.560 -0.5475  0.0741 -0.2775
  191DOPC   O1223543   1.296  -2.678  -2.445 -0.2024 -0.1937 -0.2203
  191DOPC   O1123544   1.330  -2.457  -2.359 -0.1566  0.2538  0.1910
  191DOPC    C123545   1.199  -2.419  -2.305  0.1698 -0.7977 -1.0244
  191DOPC    HA23546   1.119  -2.442  -2.378 -1.8875  1.8704  0.2039
  191DOPC    HB23547   1.193  -2.309  -2.290 -1.8058 -1.2941  4.1569
  191DOPC    C223548   1.163  -2.473  -2.164  0.0447 -0.6395 -0.0530
  191DOPC    HS23549   1.154  -2.584  -2.162 -1.3661 -0.5501 -0.6370
  191DOPC   O2123550   1.028  -2.415  -2.123  0.4410  0.1675 -0.3455
  191DOPC   C2123551   0.963  -2.492  -2.043  0.3431  0.0345  0.2397
  191DOPC   O2223552   0.996  -2.596  -1.994  0.0787  0.7476  0.0598
  191DOPC   C2223553   0.824  -2.420  -2.018 -0.4795 -0.0135 -0.4738
  191DOPC   H2R23554   0.768  -2.413  -2.115  1.0237 -0.6257 -1.4216
  191DOPC   H2S23555   0.846  -2.313  -1.999  0.2944  0.1002 -1.8479
  191DOPC    C323556   1.272  -2.437  -2.048  0.1509  0.1960  0.3582
  191DOPC    HX23557   1.281  -2.329  -2.068 -0.1117  0.2467  0.5154
  191DOPC    HY23558   1.371  -2.482  -2.072  0.7109  2.4504 -2.0768
  191DOPC   O3123559   1.234  -2.456  -1.915 -0.3791  0.1176 -0.3444
  191DOPC   C3123560   1.330  -2.419  -1.833 -0.4293  0.2414  0.0839
  191DOPC   O3223561   1.440  -2.380  -1.865 -0.3915  0.5572 -0.0619
  191DOPC   C3223562   1.287  -2.446  -1.683 -0.3166 -0.1678  0.4350
  191DOPC   H2X23563   1.187  -2.398  -1.684 -1.2141 -1.9193  1.1432
  191DOPC   H2Y23564   1.269  -2.556  -1.678 -1.2544 -0.1739 -1.6739
  191DOPC   C2323565   0.739  -2.482  -1.910 -0.0714 -0.5240  0.0299
  191DOPC   H3R23566   0.769  -2.587  -1.889 -0.4866  0.1991  5.9465
  191DOPC   H3S23567   0.634  -2.480  -1.948 -0.3684 -0.3186  0.8282
  191DOPC   C2423568   0.742  -2.405  -1.769  0.7961  0.2072  0.1781
  191DOPC   H4R23569   0.640  -2.407  -1.725  0.0943  2.4292 -1.1158
  191DOPC   H4S23570   0.757  -2.296  -1.789 -0.5424  0.6029  1.1754
  191DOPC   C2523571   0.852  -2.460  -1.679 -0.8275  0.2659  0.1120
  191DOPC   H5R23572   0.952  -2.453  -1.726 -1.0051  1.2605 -0.1308
  191DOPC   H5S23573   0.830  -2.565  -1.649 -0.6468  0.1473 -0.1681
  191DOPC   C2623574   0.844  -2.381  -1.551  0.6073 -0.2723 -0.0998
  191DOPC   H6R23575   0.741  -2.389  -1.510 -0.1917  0.0468 -1.9791
  191DOPC   H6S23576   0.854  -2.272  -1.570 -0.5151  0.6764  3.7436
  191DOPC   C2723577   0.955  -2.414  -1.452 -0.5879 -0.4240 -0.6741
  191DOPC   H7R23578   1.058  -2.389  -1.485  0.0586 -1.0218  0.8102
  191DOPC   H7S23579   0.949  -2.523  -1.430  0.2036 -0.2563  0.5006
  191DOPC   C2823580   0.941  -2.346  -1.313  0.1146  0.4376 -0.3422
  191DOPC   H8R23581   0.832  -2.338  -1.298 -0.3452 -1.8979 -1.8847
  191DOPC   H8S23582   0.988  -2.245  -1.313  1.3374 -0.0386  2.3157
  191DOPC   C2923583   1.008  -2.421  -1.202 -0.0987  0.8745  0.9992
  191DOPC   H9R23584   1.099  -2.472  -1.236 -1.8536 -0.3777 -2.1361
  191DOPC  C21023585   0.975  -2.424  -1.072 -0.0907  0.0269  0.0206
  191DOPC  H10R23586   1.052  -2.473  -1.010  1.2499  0.7524 -1.0115
  191DOPC  C21123587   0.856  -2.365  -1.001  0.3702 -0.2040 -0.5118
  191DOPC  H11R23588   0.780  -2.442  -0.974  2.2178 -2.7347 -2.0340
  191DOPC  H11S23589   0.803  -2.286  -1.058 -0.3623 -0.9610 -0.9136
  191DOPC  C21223590   0.888  -2.308  -0.869  0.5217 -0.5494 -0.2944
  191DOPC  H12R23591   0.791  -2.271  -0.830 -0.1149 -1.9017 -0.5164
  191DOPC  H12S23592   0.944  -2.212  -0.874 -1.9732  1.0005  0.0002
  191DOPC  C21323593   0.931  -2.405  -0.764  0.0469 -0.4089  0.2567
  191DOPC  H13R23594   1.029  -2.455  -0.785  2.4538  3.8862  0.0372
  191DOPC  H13S23595   0.855  -2.483  -0.744 -1.1321  0.5081 -0.4728
  191DOPC  C21423596   0.962  -2.337  -0.623 -0.5407 -0.7413 -0.8445
  191DOPC  H14R23597   0.885  -2.266  -0.585  0.3602  0.0801 -0.5068
  191DOPC  H14S23598   1.049  -2.268  -0.630 -0.8993 -0.2947 -0.9589
  191DOPC  C21523599   0.996  -2.441  -0.520  0.1327  0.4870  0.1470
  191DOPC  H15R23600   1.098  -2.483  -0.536 -0.0042  0.1657  0.1136
  191DOPC  H15S23601   0.927  -2.526  -0.536 -0.7440  1.3850 -0.9903
  191DOPC  C21623602   0.977  -2.398  -0.377 -0.0148  0.3576 -1.0146
  191DOPC  H16R23603   0.912  -2.476  -0.332 -1.8968  2.3972  0.0130
  191DOPC  H16S23604   0.932  -2.296  -0.377  2.1133  1.3661 -1.6870
  191DOPC  C21723605   1.105  -2.404  -0.297 -0.4768  0.4795 -0.6280
  191DOPC  H17R23606   1.188  -2.372  -0.363  1.4953 -0.5540  1.2609
  191DOPC  H17S23607   1.124  -2.511  -0.277 -0.4457  0.7301  0.7824
  191DOPC  C21823608   1.115  -2.336  -0.165  0.7822 -0.2058 -0.0045
  191DOPC  H18R23609   1.214  -2.355  -0.118  1.3127 -0.7635 -1.2988
  191DOPC  H18S23610   1.032  -2.365  -0.097 -0.2728  0.5945 -0.9023
  191DOPC  H18T23611   1.103  -2.227  -0.180 -2.0426 -0.1160  2.0050
  191DOPC   C3323612   1.388  -2.404  -1.582  0.0683  0.1468  0.0248
  191DOPC   H3X23613   1.490  -2.442  -1.606  0.5674  2.7007 -2.5202
  191DOPC   H3Y23614   1.360  -2.447  -1.484 -1.4385 -0.5421 -0.6853
  191DOPC   C3423615   1.399  -2.254  -1.559  0.2523 -0.1412  0.4543
  191DOPC   H4X23616   1.297  -2.211  -1.556 -0.4735 -1.3468 -2.8773
  191DOPC   H4Y23617   1.463  -2.206  -1.636 -0.6333 -0.8774 -0.7696
  191DOPC   C3523618   1.458  -2.221  -1.421 -0.7349  0.6485 -0.3639
  191DOPC   H5X23619   1.490  -2.115  -1.410  1.0784  0.2388 -1.2289
  191DOPC   H5Y23620   1.558  -2.267  -1.405 -0.6607  0.8489 -0.2451
  191DOPC   C3623621   1.369  -2.263  -1.298 -0.0934  0.2390  0.1150
  191DOPC   H6X23622   1.264  -2.249  -1.330  0.1994 -1.1544 -1.5732
  191DOPC   H6Y23623   1.378  -2.371  -1.273  1.7524  0.3511  0.1129
  191DOPC   C3723624   1.397  -2.177  -1.172  0.4302  0.6238 -0.2363
  191DOPC   H7X23625   1.500  -2.195  -1.134  0.7009  1.0524 -0.7685
  191DOPC   H7Y23626   1.392  -2.072  -1.207 -0.9306  0.1530 -1.5296
  191DOPC   C3823627   1.301  -2.199  -1.054  0.1151  0.5560  0.2495
  191DOPC   H8X23628   1.321  -2.297  -1.005 -1.1476  0.1333 -0.0631
  191DOPC   H8Y23629   1.199  -2.218  -1.093 -0.3821 -0.1668  1.7837
  191DOPC   C3923630   1.303  -2.088  -0.955 -0.8428 -0.4411  0.7334
  191DOPC   H9X23631   1.217  -2.020  -0.953 -0.7122 -0.1715 -0.9282
  191DOPC  C31023632   1.396  -2.067  -0.858  0.3610 -0.4549  0.1759
  191DOPC  H10X23633   1.385  -1.966  -0.815  1.5997  0.3143 -1.1887
  191DOPC  C31123634   1.518  -2.138  -0.815  0.0432  0.0436 -0.4744
  191DOPC  H11X23635   1.602  -2.066  -0.823 -0.2000  0.2849 -0.9044
  191DOPC  H11Y23636   1.537  -2.221  -0.885 -0.9602 -1.6147  1.1283
  191DOPC  C31223637   1.507  -2.187  -0.671 -0.1948  0.6071  0.0877
  191DOPC  H12X23638   1.603  -2.236  -0.643 -0.9902  0.2521  2.3827
  191DOPC  H12Y23639   1.423  -2.259  -0.664 -0.7216  1.4123  3.7790
  191DOPC  C31323640   1.482  -2.081  -0.556  0.0987 -0.0872  0.0143
  191DOPC  H13X23641   1.569  -2.013  -0.564  0.8102 -0.9960 -0.1511
  191DOPC  H13Y23642   1.399  -2.014  -0.587 -0.8706 -1.0186  0.5274
  191DOPC  C31423643   1.478  -2.148  -0.421  0.0039  0.1513 -0.1410
  191DOPC  H14X23644   1.374  -2.185  -0.412 -0.2551  0.7472 -0.6051
  191DOPC  H14Y23645   1.546  -2.235  -0.411 -1.5832 -0.9828  1.2627
  191DOPC  C31523646   1.502  -2.049  -0.303 -0.1830 -0.1752  0.4373
  191DOPC  H15X23647   1.500  -1.948  -0.349  0.3950 -0.6602 -0.6633
  191DOPC  H15Y23648   1.603  -2.069  -0.262  0.6741  2.7067 -0.0311
  191DOPC  C31623649   1.393  -2.075  -0.196 -0.3302  0.0732  0.2268
  191DOPC  H16X23650   1.360  -2.179  -0.176  0.5360  0.1201  2.0821
  191DOPC  H16Y23651   1.447  -2.049  -0.103 -0.3238 -0.7418  0.4591
  191DOPC  C31723652   1.268  -1.994  -0.208  0.5994 -0.1319 -0.1707
  191DOPC  H17X23653   1.283  -1.909  -0.278  1.1010  0.8962  1.1726
  191DOPC  H17Y23654   1.190  -2.061  -0.253  0.7920  1.0829 -2.4799
  191DOPC  C31823655   1.211  -1.937  -0.077 -0.7727  0.0867  0.3132
  191DOPC  H18X23656   1.227  -2.015   0.001 -1.2664 -0.5990 -0.2661
  191DOPC  H18Y23657   1.274  -1.848  -0.053 -0.2089 -0.6997  1.9406
  191DOPC  H18Z23658   1.103  -1.913  -0.080 -0.7898  0.0679  0.7174
  192DOPC     N23659   2.977   0.787  -2.868  0.0743 -0.3076  0.9204
  192DOPC   C1223660   2.934   0.656  -2.796 -0.0357  0.1451 -0.1520
  192DOPC  H12A23661   3.022   0.602  -2.765 -1.4089 -1.3739  1.2707
  192DOPC  H12B23662   2.898   0.589  -2.873  1.5726  0.3429 -1.1238
  192DOPC   C1323663   3.028   0.879  -2.765  1.1510  0.2488  0.0987
  192DOPC  H13A23664   2.952   0.910  -2.695 -1.1444 -1.5446 -1.4237
  192DOPC  H13B23665   3.116   0.841  -2.715  0.8302  0.6353  0.9750
  192DOPC  H13C23666   3.056   0.966  -2.822 -0.2824  1.8516  1.7395
  192DOPC   C1423667   2.873   0.846  -2.958 -0.2141  0.5298  0.0476
  192DOPC  H14A23668   2.904   0.942  -2.997  0.4569  0.2581 -0.0911
  192DOPC  H14B23669   2.851   0.778  -3.040  0.3879 -2.5747  2.2757
  192DOPC  H14C23670   2.782   0.869  -2.904 -0.9427 -0.5377 -0.6688
  192DOPC   C1523671   3.089   0.738  -2.959 -0.0308 -0.5668 -0.5691
  192DOPC  H15A23672   3.053   0.679  -3.042 -0.6958 -0.3119 -0.4640
  192DOPC  H15B23673   3.165   0.681  -2.906  0.4984 -0.5196 -1.2575
  192DOPC  H15C23674   3.138   0.818  -3.012 -1.2689 -0.5035 -1.6680
  192DOPC   C1123675   2.831   0.674  -2.683  0.5095  0.3072 -0.3698
  192DOPC  H11A23676   2.815   0.568  -2.654  0.1336  0.0159 -1.5566
  192DOPC  H11B23677   2.892   0.723  -2.604  1.3829  0.7967 -1.3168
  192DOPC     P23678   2.593   0.703  -2.788  0.0225 -0.1089  0.0101
  192DOPC   O1323679   2.620   0.590  -2.878 -0.3346  0.0263  0.3429
  192DOPC   O1423680   2.528   0.824  -2.852  0.3413 -0.3370  0.1733
  192DOPC   O1223681   2.719   0.749  -2.717 -0.0866 -0.3739 -0.0173
  192DOPC   O1123682   2.499   0.655  -2.665 -0.2877 -0.6334 -0.0183
  192DOPC    C123683   2.530   0.555  -2.567 -0.2674 -0.7949  0.4313
  192DOPC    HA23684   2.634   0.518  -2.577 -0.0400 -0.2645  0.8036
  192DOPC    HB23685   2.461   0.469  -2.581 -0.5825 -0.2879 -1.4317
  192DOPC    C223686   2.521   0.599  -2.420 -0.1882 -0.0652 -0.0017
  192DOPC    HS23687   2.535   0.507  -2.359  3.2193  0.2056 -0.2081
  192DOPC   O2123688   2.391   0.655  -2.390  0.4389  0.2611 -0.6698
  192DOPC   C2123689   2.284   0.584  -2.408 -0.3559 -0.2485 -0.0535
  192DOPC   O2223690   2.280   0.466  -2.442  0.2083 -0.4354 -0.0128
  192DOPC   C2223691   2.161   0.664  -2.375 -0.2200 -0.7241 -0.1127
  192DOPC   H2R23692   2.092   0.681  -2.460  0.5685 -1.0680 -0.8367
  192DOPC   H2S23693   2.197   0.759  -2.330  3.0143 -1.3108 -1.1790
  192DOPC    C323694   2.631   0.694  -2.375 -0.0803  0.4520 -0.0132
  192DOPC    HX23695   2.604   0.789  -2.426 -3.3130 -0.7290 -0.7340
  192DOPC    HY23696   2.728   0.657  -2.415  1.4247  2.6438  1.3706
  192DOPC   O3123697   2.657   0.718  -2.234 -0.3377 -0.0755  0.3228
  192DOPC   C3123698   2.693   0.611  -2.148 -0.0853 -0.0975  0.1861
  192DOPC   O3223699   2.716   0.499  -2.193  0.1657 -0.2673 -0.3247
  192DOPC   C3223700   2.702   0.664  -2.010  0.2057  0.0219 -1.1389
  192DOPC   H2X23701   2.742   0.768  -2.009  0.0009  0.1113 -1.7218
  192DOPC   H2Y23702   2.603   0.664  -1.960  0.4663 -1.9437 -0.5454
  192DOPC   C2323703   2.085   0.596  -2.255 -0.9665 -0.4648 -0.1353
  192DOPC   H3R23704   2.145   0.595  -2.161 -2.6380 -2.9887  0.9990
  192DOPC   H3S23705   2.054   0.492  -2.277 -0.1558 -1.0926  1.4902
  192DOPC   C2423706   1.963   0.685  -2.231 -0.6304  0.3336 -0.6125
  192DOPC   H4R23707   1.894   0.692  -2.317 -2.6907  2.4559  1.0807
  192DOPC   H4S23708   2.001   0.783  -2.195  0.1475 -0.5880  1.2381
  192DOPC   C2523709   1.886   0.629  -2.111  0.5447 -0.5507 -0.5628
  192DOPC   H5R23710   1.870   0.520  -2.124 -2.7064 -0.2287 -0.1435
  192DOPC   H5S23711   1.779   0.655  -2.127  0.9797  0.2780 -2.3929
  192DOPC   C2623712   1.929   0.680  -1.970  0.4215 -0.0644 -0.1768
  192DOPC   H6R23713   1.962   0.785  -1.981 -0.5602  0.5577  2.3008
  192DOPC   H6S23714   2.019   0.620  -1.943  0.6783  0.3248 -0.1661
  192DOPC   C2723715   1.823   0.659  -1.862  0.0858 -0.0007 -0.9702
  192DOPC   H7R23716   1.788   0.553  -1.863 -0.8322  0.2277  1.2191
  192DOPC   H7S23717   1.744   0.728  -1.898 -1.3946 -1.0906  0.0756
  192DOPC   C2823718   1.882   0.705  -1.729 -0.7853 -0.5530 -0.6837
  192DOPC   H8R23719   1.802   0.717  -1.653 -0.9793 -0.8801 -0.8314
  192DOPC   H8S23720   1.933   0.803  -1.742 -2.2481  0.4919  1.0042
  192DOPC   C2923721   1.987   0.604  -1.676  0.0832 -0.6844 -0.0660
  192DOPC   H9R23722   2.024   0.535  -1.753  0.2384  0.9595 -1.5446
  192DOPC  C21023723   2.001   0.566  -1.546  0.3513  0.8733 -1.0330
  192DOPC  H10R23724   2.068   0.482  -1.526  1.3816  2.1726  1.4278
  192DOPC  C21123725   1.930   0.634  -1.426 -0.0998 -0.2252  0.1063
  192DOPC  H11R23726   1.819   0.627  -1.425 -0.1907  0.6299 -1.3605
  192DOPC  H11S23727   1.959   0.741  -1.434 -0.4737 -0.1665 -0.6168
  192DOPC  C21223728   1.992   0.571  -1.297 -0.9467  0.0773  0.2343
  192DOPC  H12R23729   2.095   0.610  -1.293 -0.2974 -1.6125  0.8173
  192DOPC  H12S23730   2.008   0.462  -1.308 -2.3789  0.0916 -3.6221
  192DOPC  C21323731   1.915   0.615  -1.176 -0.2208  0.4088  0.5116
  192DOPC  H13R23732   1.846   0.532  -1.151 -0.0562  0.5951  1.6364
  192DOPC  H13S23733   1.850   0.702  -1.203 -1.4617 -0.5600  0.2726
  192DOPC  C21423734   2.005   0.649  -1.057  0.4819 -0.0988  0.7467
  192DOPC  H14R23735   2.082   0.720  -1.093 -0.0198  0.0683 -0.0299
  192DOPC  H14S23736   2.059   0.554  -1.035  0.2463 -0.9439 -1.8918
  192DOPC  C21523737   1.923   0.687  -0.931 -0.7350 -0.4319 -0.2706
  192DOPC  H15R23738   1.854   0.602  -0.914 -1.4629  0.0538 -0.7265
  192DOPC  H15S23739   1.864   0.779  -0.949 -0.1685 -0.1007 -0.4806
  192DOPC  C21623740   2.003   0.724  -0.805 -0.4022 -0.5572  0.0005
  192DOPC  H16R23741   2.019   0.626  -0.753 -1.9150 -1.4615 -1.1669
  192DOPC  H16S23742   1.943   0.789  -0.737 -0.3315 -1.2078  0.6961
  192DOPC  C21723743   2.143   0.781  -0.841 -0.7414  0.6731 -0.3745
  192DOPC  H17R23744   2.130   0.858  -0.920  3.0691  1.3660 -0.4938
  192DOPC  H17S23745   2.195   0.694  -0.888  0.3479 -0.6547  2.9810
  192DOPC  C21823746   2.211   0.840  -0.720 -0.1293 -0.2268 -0.7656
  192DOPC  H18R23747   2.223   0.772  -0.633 -2.6199  1.2988  0.9212
  192DOPC  H18S23748   2.143   0.918  -0.679  0.9147  0.1780  0.2632
  192DOPC  H18T23749   2.298   0.906  -0.740 -1.8120  2.3068 -0.3185
  192DOPC   C3323750   2.793   0.580  -1.916  0.1064  0.8691 -0.2458
  192DOPC   H3X23751   2.880   0.542  -1.973  0.6083  0.8724  0.5073
  192DOPC   H3Y23752   2.733   0.491  -1.888 -1.9548  1.6144 -2.0348
  192DOPC   C3423753   2.838   0.654  -1.789  0.6124 -0.0327  0.1469
  192DOPC   H4X23754   2.870   0.757  -1.815  1.7560 -0.3070  0.4045
  192DOPC   H4Y23755   2.928   0.600  -1.752  0.6160 -1.4938 -1.8199
  192DOPC   C3523756   2.735   0.642  -1.676  0.4463 -0.0985 -0.7310
  192DOPC   H5X23757   2.696   0.539  -1.663 -4.0609  1.7010  2.5549
  192DOPC   H5Y23758   2.648   0.703  -1.709 -1.1623 -1.6417  0.4919
  192DOPC   C3623759   2.790   0.689  -1.532 -1.2188 -0.0833 -0.1215
  192DOPC   H6X23760   2.874   0.621  -1.503  0.1095  1.4944 -0.0964
  192DOPC   H6Y23761   2.823   0.795  -1.531 -2.4142  0.3009  1.0123
  192DOPC   C3723762   2.682   0.683  -1.423 -0.2184 -0.0569 -0.3263
  192DOPC   H7X23763   2.591   0.728  -1.468 -0.1085  0.1440 -0.3441
  192DOPC   H7Y23764   2.658   0.574  -1.422 -1.2243  0.0966 -2.4783
  192DOPC   C3823765   2.720   0.745  -1.293 -1.1910  0.2856  0.9390
  192DOPC   H8X23766   2.730   0.855  -1.304  0.1208 -0.0264 -1.9239
  192DOPC   H8Y23767   2.825   0.720  -1.265 -0.9689 -1.8294 -1.4460
  192DOPC   C3923768   2.626   0.701  -1.181  0.1104  0.3198  0.1744
  192DOPC   H9X23769   2.522   0.694  -1.214  0.0886  0.0399  0.3020
  192DOPC  C31023770   2.643   0.690  -1.050 -0.2346  0.0282 -0.0174
  192DOPC  H10X23771   2.561   0.640  -0.997  1.1845 -1.0654  1.2733
  192DOPC  C31123772   2.774   0.697  -0.970 -0.0310  0.1525 -0.0477
  192DOPC  H11X23773   2.846   0.770  -1.014  0.8422 -0.1048  0.9037
  192DOPC  H11Y23774   2.839   0.607  -0.973 -0.8311 -0.4698 -3.9291
  192DOPC  C31223775   2.745   0.728  -0.820 -0.2040  0.3617 -0.2750
  192DOPC  H12X23776   2.670   0.653  -0.786 -0.2649  0.0925 -0.9956
  192DOPC  H12Y23777   2.696   0.827  -0.806  0.1928  0.3156  1.8785
  192DOPC  C31323778   2.874   0.725  -0.735  0.3506 -0.6642  0.2440
  192DOPC  H13X23779   2.954   0.660  -0.775  0.9731  1.6853 -2.7038
  192DOPC  H13Y23780   2.920   0.826  -0.739 -0.9565  0.0874  2.3529
  192DOPC  C31423781   2.854   0.688  -0.583 -0.5062  0.1040  0.1028
  192DOPC  H14X23782   2.834   0.579  -0.592  1.2709 -0.0954 -2.7416
  192DOPC  H14Y23783   2.951   0.694  -0.530  0.3208  0.1406 -1.3602
  192DOPC  C31523784   2.732   0.756  -0.516  0.7300 -0.2353  0.0670
  192DOPC  H15X23785   2.642   0.709  -0.561  0.4809 -0.3360  0.6600
  192DOPC  H15Y23786   2.729   0.863  -0.545  1.0298 -0.1621  0.3032
  192DOPC  C31623787   2.711   0.713  -0.368 -0.0853  0.1206 -0.0562
  192DOPC  H16X23788   2.675   0.608  -0.367  0.5552 -0.1185  1.7969
  192DOPC  H16Y23789   2.792   0.726  -0.293 -0.2857 -1.2850  0.4266
  192DOPC  C31723790   2.587   0.789  -0.305  0.2555 -0.0588 -0.0479
  192DOPC  H17X23791   2.569   0.740  -0.207  2.9944 -1.4503 -0.1294
  192DOPC  H17Y23792   2.622   0.892  -0.283  0.3616  0.3535 -1.9674
  192DOPC  C31823793   2.452   0.789  -0.380  0.0970  0.8558 -0.2898
  192DOPC  H18X23794   2.411   0.688  -0.403 -0.9566  1.6225 -2.0051
  192DOPC  H18Y23795   2.373   0.839  -0.321 -0.1945 -1.1894  1.1970
  192DOPC  H18Z23796   2.457   0.841  -0.478  3.6870  0.7933 -0.2707
  193DOPC     N23797   2.977  -1.892  -2.692  0.2688 -0.1846 -0.6265
  193DOPC   C1223798   2.878  -1.937  -2.579  0.3135  0.4947  0.0076
  193DOPC  H12A23799   2.877  -2.045  -2.575  1.1132  0.4375 -0.8935
  193DOPC  H12B23800   2.776  -1.910  -2.600 -0.5887 -1.6005  1.4165
  193DOPC   C1323801   2.970  -1.984  -2.805 -0.4823 -0.4138 -0.0977
  193DOPC  H13A23802   2.876  -1.969  -2.856 -0.1421  2.1643 -0.0989
  193DOPC  H13B23803   3.048  -1.966  -2.878 -1.0622  4.5370  0.1249
  193DOPC  H13C23804   2.972  -2.087  -2.773  0.2749 -0.7167 -1.0667
  193DOPC   C1423805   3.119  -1.887  -2.646 -0.1267 -0.8980 -0.0009
  193DOPC  H14A23806   3.170  -1.974  -2.608  0.2441 -0.2376  1.0921
  193DOPC  H14B23807   3.180  -1.843  -2.723 -0.9540 -0.9971 -0.7225
  193DOPC  H14C23808   3.120  -1.836  -2.550  0.1149 -1.0265  0.0672
  193DOPC   C1523809   2.945  -1.751  -2.744  0.0241  0.4537 -0.4786
  193DOPC  H15A23810   2.927  -1.689  -2.658 -1.6325 -3.0100  1.9011
  193DOPC  H15B23811   2.860  -1.755  -2.811  0.0863  0.6372 -0.5683
  193DOPC  H15C23812   3.027  -1.726  -2.810  0.3518 -0.0488 -0.2637
  193DOPC   C1123813   2.915  -1.893  -2.433 -0.2632 -0.3491 -0.4344
  193DOPC  H11A23814   2.843  -1.934  -2.359  0.3258 -1.0222 -0.2154
  193DOPC  H11B23815   3.014  -1.934  -2.405 -0.2585  0.9122  1.6276
  193DOPC     P23816   2.821  -1.672  -2.350  0.2478 -0.0471  0.2036
  193DOPC   O1323817   2.697  -1.691  -2.426 -0.0904  0.1445  0.0818
  193DOPC   O1423818   2.869  -1.534  -2.324 -0.2514  0.3152 -0.2927
  193DOPC   O1223819   2.928  -1.749  -2.426 -0.1201  0.0566 -0.1470
  193DOPC   O1123820   2.814  -1.757  -2.215 -0.0384 -0.1263 -0.3538
  193DOPC    C123821   2.923  -1.735  -2.118  0.8941  0.0195  0.3412
  193DOPC    HA23822   3.011  -1.680  -2.158  1.3141  1.2697  2.7770
  193DOPC    HB23823   2.947  -1.831  -2.068  0.4023 -0.6598 -0.7091
  193DOPC    C223824   2.872  -1.635  -2.006 -0.2979  0.1595  0.7097
  193DOPC    HS23825   2.882  -1.529  -2.038  0.1201 -0.1008 -0.0557
  193DOPC   O2123826   2.937  -1.659  -1.883  0.2979  0.0941  0.4609
  193DOPC   C2123827   3.062  -1.624  -1.885 -0.8790  0.2601 -0.5769
  193DOPC   O2223828   3.117  -1.553  -1.962 -0.0540  0.3018  0.0193
  193DOPC   C2223829   3.135  -1.685  -1.760 -0.2388  1.0805 -0.2422
  193DOPC   H2R23830   3.236  -1.638  -1.766  0.2801  0.2817  1.6657
  193DOPC   H2S23831   3.146  -1.795  -1.755  1.0970  1.1572 -0.8658
  193DOPC    C323832   2.717  -1.646  -1.994 -0.3842  0.3766 -0.0038
  193DOPC    HX23833   2.693  -1.751  -1.967 -0.0608  0.0085 -1.1125
  193DOPC    HY23834   2.667  -1.611  -2.087  0.3255 -0.4322 -0.7076
  193DOPC   O3123835   2.669  -1.573  -1.880 -0.1824  0.1136 -0.1347
  193DOPC   C3123836   2.643  -1.447  -1.886 -0.2884 -0.0851 -0.5396
  193DOPC   O3223837   2.668  -1.371  -1.981  0.6084 -0.4243  0.0749
  193DOPC   C3223838   2.593  -1.391  -1.753  0.3687 -0.2549  0.1955
  193DOPC   H2X23839   2.599  -1.280  -1.757  1.0826 -0.2071  1.7694
  193DOPC   H2Y23840   2.483  -1.409  -1.750  0.0398  1.6147  2.3442
  193DOPC   C2323841   3.070  -1.632  -1.631  0.2959  0.3407 -0.0562
  193DOPC   H3R23842   2.970  -1.680  -1.634  0.9430 -1.0378 -2.2922
  193DOPC   H3S23843   3.054  -1.523  -1.643  0.6311  0.3047 -0.9132
  193DOPC   C2423844   3.153  -1.661  -1.502  0.9708  0.2164 -0.1668
  193DOPC   H4R23845   3.246  -1.602  -1.515  0.4817  0.7979 -1.1467
  193DOPC   H4S23846   3.178  -1.768  -1.510  1.0775  0.0952  1.4515
  193DOPC   C2523847   3.063  -1.634  -1.384  0.5940 -0.2501 -0.2087
  193DOPC   H5R23848   2.971  -1.695  -1.394 -0.9396  2.2273 -2.4452
  193DOPC   H5S23849   3.039  -1.526  -1.389 -0.4559 -0.4476  0.2171
  193DOPC   C2623850   3.137  -1.661  -1.250 -0.3938  0.2003 -0.5751
  193DOPC   H6R23851   3.066  -1.624  -1.173 -1.7831  0.6334 -2.0073
  193DOPC   H6S23852   3.228  -1.598  -1.240 -1.1606  1.0819  1.5948
  193DOPC   C2723853   3.169  -1.806  -1.216 -0.2376 -0.6046  0.4693
  193DOPC   H7R23854   3.242  -1.836  -1.294 -1.1850  0.5938 -0.9148
  193DOPC   H7S23855   3.076  -1.867  -1.215 -0.3946 -0.3710  1.6899
  193DOPC   C2823856   3.223  -1.817  -1.074 -0.9698  0.4324 -0.8067
  193DOPC   H8R23857   3.149  -1.783  -1.000 -0.2858 -1.5433  0.8780
  193DOPC   H8S23858   3.302  -1.739  -1.064 -0.6122  0.0428 -0.5201
  193DOPC   C2923859   3.292  -1.948  -1.040 -0.2525  0.4305  0.1738
  193DOPC   H9R23860   3.365  -1.974  -1.117 -1.8113 -0.4831 -1.0613
  193DOPC  C21023861   3.264  -2.025  -0.934  0.0436  0.0511 -0.0562
  193DOPC  H10R23862   3.340  -2.102  -0.916  1.4716  1.9178  2.5632
  193DOPC  C21123863   3.182  -1.988  -0.816  0.1176  0.1872  0.2672
  193DOPC  H11R23864   3.090  -2.050  -0.827 -0.8903  1.6043  0.3923
  193DOPC  H11S23865   3.140  -1.885  -0.809  0.2193  0.4272 -1.8870
  193DOPC  C21223866   3.245  -2.028  -0.679  0.1201 -0.0888 -0.3049
  193DOPC  H12R23867   3.338  -1.969  -0.665  0.5161 -0.4871 -1.1926
  193DOPC  H12S23868   3.282  -2.133  -0.676  2.2226  0.5948 -0.9755
  193DOPC  C21323869   3.154  -2.003  -0.556 -0.2927 -0.8067 -0.5169
  193DOPC  H13R23870   3.069  -2.074  -0.565 -0.3382 -0.6603 -1.2925
  193DOPC  H13S23871   3.132  -1.894  -0.561  1.4969 -0.4725 -2.2056
  193DOPC  C21423872   3.226  -2.032  -0.420 -0.2930 -0.4257 -0.1918
  193DOPC  H14R23873   3.272  -1.942  -0.375 -0.1026 -1.2457  1.3205
  193DOPC  H14S23874   3.303  -2.112  -0.428  0.4335  0.0202  1.8375
  193DOPC  C21523875   3.126  -2.065  -0.316  0.5461  0.6675 -0.1695
  193DOPC  H15R23876   3.078  -2.162  -0.338 -0.3374  1.0439  0.0601
  193DOPC  H15S23877   3.048  -1.987  -0.304  0.4779  1.1636 -3.0653
  193DOPC  C21623878   3.190  -2.078  -0.178 -0.2450 -0.8016 -0.0505
  193DOPC  H16R23879   3.260  -1.992  -0.169 -1.0986 -0.1428  0.4096
  193DOPC  H16S23880   3.247  -2.174  -0.184  1.2034 -0.0187  0.7464
  193DOPC  C21723881   3.079  -2.083  -0.069 -0.4855  0.3557 -0.1354
  193DOPC  H17R23882   3.040  -2.185  -0.086  1.7642 -0.2972 -1.8421
  193DOPC  H17S23883   3.005  -2.001  -0.087  1.0753  1.4736 -1.8729
  193DOPC  C21823884   3.138  -2.079   0.073 -0.6222 -0.1934 -0.4865
  193DOPC  H18R23885   3.224  -2.149   0.071 -1.1731 -0.8933  0.1185
  193DOPC  H18S23886   3.071  -2.115   0.154  0.0837 -0.2388  0.0930
  193DOPC  H18T23887   3.170  -1.975   0.097  0.6408 -0.9408  1.2508
  193DOPC   C3323888   2.653  -1.448  -1.626  0.0930 -0.2797  0.0391
  193DOPC   H3X23889   2.762  -1.446  -1.645  0.0478 -0.8530 -0.2659
  193DOPC   H3Y23890   2.643  -1.555  -1.598 -3.5082 -0.1766 -0.3680
  193DOPC   C3423891   2.626  -1.364  -1.499  0.2886  0.1489 -0.3818
  193DOPC   H4X23892   2.516  -1.366  -1.487  0.1210 -1.0051 -1.7935
  193DOPC   H4Y23893   2.665  -1.265  -1.530 -1.1824  1.0608  0.5817
  193DOPC   C3523894   2.699  -1.421  -1.377 -0.8982  0.2113 -0.3358
  193DOPC   H5X23895   2.809  -1.422  -1.397 -0.6449 -0.2614  0.9637
  193DOPC   H5Y23896   2.660  -1.524  -1.364 -0.2616  0.0547  0.4121
  193DOPC   C3623897   2.686  -1.340  -1.248  0.3558  0.0516  0.0914
  193DOPC   H6X23898   2.703  -1.234  -1.275 -2.4667  0.5269 -0.1477
  193DOPC   H6Y23899   2.580  -1.348  -1.215  0.6643  0.7226  1.2658
  193DOPC   C3723900   2.790  -1.385  -1.144  0.0875 -0.7791  0.7451
  193DOPC   H7X23901   2.784  -1.496  -1.135  1.0564 -1.0762 -1.5310
  193DOPC   H7Y23902   2.893  -1.363  -1.181 -0.1705 -0.1254  0.4038
  193DOPC   C3823903   2.768  -1.312  -1.008  0.5791 -0.0488  0.5119
  193DOPC   H8X23904   2.754  -1.208  -1.043  0.1816  0.0680  1.0224
  193DOPC   H8Y23905   2.858  -1.322  -0.944 -0.1226 -0.0616  1.5144
  193DOPC   C3923906   2.642  -1.361  -0.933 -0.2487  0.0922 -0.3419
  193DOPC   H9X23907   2.601  -1.450  -0.983 -0.6437  1.1775 -2.0308
  193DOPC  C31023908   2.614  -1.331  -0.806  0.3417 -0.0001  0.0413
  193DOPC  H10X23909   2.527  -1.378  -0.757  0.2208 -0.1588 -0.3267
  193DOPC  C31123910   2.696  -1.225  -0.732 -0.4745 -0.2585 -0.1323
  193DOPC  H11X23911   2.634  -1.139  -0.700 -2.9697 -0.9552 -2.6303
  193DOPC  H11Y23912   2.769  -1.176  -0.801  0.6672 -0.2241  1.0589
  193DOPC  C31223913   2.762  -1.271  -0.600  0.2058  0.0407  0.4094
  193DOPC  H12X23914   2.815  -1.182  -0.559  1.5789  0.0684 -1.2977
  193DOPC  H12Y23915   2.836  -1.349  -0.626 -1.2303 -0.9057 -1.0239
  193DOPC  C31323916   2.672  -1.321  -0.487 -0.0235  0.3937 -0.3951
  193DOPC  H13X23917   2.584  -1.256  -0.465  0.3570  0.2253  1.8679
  193DOPC  H13Y23918   2.646  -1.421  -0.529  1.4682  0.2401 -1.0018
  193DOPC  C31423919   2.730  -1.333  -0.345 -0.4072 -0.0586 -0.5800
  193DOPC  H14X23920   2.683  -1.418  -0.291  0.9886 -1.4035 -1.3811
  193DOPC  H14Y23921   2.837  -1.359  -0.354 -0.5533 -1.8113  1.8108
  193DOPC  C31523922   2.714  -1.211  -0.260 -0.1809 -0.4717 -0.1886
  193DOPC  H15X23923   2.606  -1.202  -0.236 -0.1156 -0.2808  0.0289
  193DOPC  H15Y23924   2.746  -1.115  -0.307  0.6307 -0.1280  1.0219
  193DOPC  C31623925   2.796  -1.230  -0.133 -0.8309  0.4097 -0.3334
  193DOPC  H16X23926   2.773  -1.321  -0.074  1.1386 -2.1143 -3.1712
  193DOPC  H16Y23927   2.906  -1.231  -0.150 -0.4910  2.6759  1.2929
  193DOPC  C31723928   2.777  -1.107  -0.045  0.2469  0.2795  0.6016
  193DOPC  H17X23929   2.782  -1.021  -0.116  0.0297 -0.3181 -0.1563
  193DOPC  H17Y23930   2.675  -1.099  -0.001 -1.1425  0.1835 -2.3608
  193DOPC  C31823931   2.874  -1.097   0.075  0.4683 -0.4284  0.3650
  193DOPC  H18X23932   2.853  -1.156   0.167  0.4686  1.6585  1.7799
  193DOPC  H18Y23933   2.976  -1.114   0.034 -0.3214  0.7363 -2.3023
  193DOPC  H18Z23934   2.870  -0.994   0.115  0.1365 -0.7230  1.1205
  194DOPC     N23935  -3.047   2.594  -2.614  0.0808 -0.0256  0.5311
  194DOPC   C1223936  -3.100   2.490  -2.513  0.7813 -0.5237  0.0024
  194DOPC  H12A23937  -3.130   2.402  -2.567 -0.1950  0.2173 -0.7116
  194DOPC  H12B23938  -3.190   2.523  -2.463 -0.8992 -2.7114 -1.4172
  194DOPC   C1323939  -2.933   2.549  -2.690  0.0380  0.1429 -0.8374
  194DOPC  H13A23940  -2.949   2.463  -2.754 -0.4441  0.2941 -0.9244
  194DOPC  H13B23941  -2.905   2.627  -2.759  0.3484 -1.0904 -2.1642
  194DOPC  H13C23942  -2.855   2.511  -2.626 -1.1841 -0.0125  0.6088
  194DOPC   C1423943  -3.012   2.718  -2.546  0.7355 -0.9014 -0.6148
  194DOPC  H14A23944  -2.988   2.804  -2.607  0.0992  0.2181  0.6636
  194DOPC  H14B23945  -3.086   2.754  -2.477  1.4418 -1.3773  0.4104
  194DOPC  H14C23946  -2.934   2.689  -2.477  1.2911 -0.7552 -1.1615
  194DOPC   C1523947  -3.155   2.625  -2.718 -0.7997 -0.2684 -0.2064
  194DOPC  H15A23948  -3.250   2.648  -2.674 -0.7200 -1.4149  0.5938
  194DOPC  H15B23949  -3.171   2.552  -2.796 -2.6340 -1.8160  1.5227
  194DOPC  H15C23950  -3.119   2.718  -2.759 -1.4274  0.5704  1.1144
  194DOPC   C1123951  -2.997   2.458  -2.399  0.3741 -0.4341  0.2643
  194DOPC  H11A23952  -2.960   2.550  -2.350 -1.9655  1.0094 -0.4989
  194DOPC  H11B23953  -3.042   2.394  -2.319  1.0013  0.5263  1.4081
  194DOPC     P23954  -2.858   2.234  -2.454 -0.1280  0.2932 -0.0417
  194DOPC   O1323955  -2.746   2.191  -2.537  0.1053  0.2928 -0.2492
  194DOPC   O1423956  -2.988   2.152  -2.460 -0.1714  1.0938 -0.3673
  194DOPC   O1223957  -2.880   2.390  -2.464  0.0926  0.1673  0.1997
  194DOPC   O1123958  -2.801   2.218  -2.303  0.0358  0.3074  0.0702
  194DOPC    C123959  -2.670   2.255  -2.266 -0.2400  0.1218  0.1352
  194DOPC    HA23960  -2.613   2.307  -2.346  0.4187 -0.7160  0.0578
  194DOPC    HB23961  -2.613   2.161  -2.250 -1.0331 -0.4952 -0.5788
  194DOPC    C223962  -2.658   2.331  -2.130  0.5103  0.0840  0.0760
  194DOPC    HS23963  -2.548   2.347  -2.127  0.8334 -1.8612 -0.2420
  194DOPC   O2123964  -2.708   2.227  -2.045  0.2778  0.1796 -0.3825
  194DOPC   C2123965  -2.650   2.237  -1.922  0.5691 -0.5303 -0.2549
  194DOPC   O2223966  -2.558   2.311  -1.892  0.0852 -0.2554  0.0758
  194DOPC   C2223967  -2.720   2.147  -1.817 -0.0031  0.2831 -0.3599
  194DOPC   H2R23968  -2.676   2.046  -1.836  0.8071  0.6276 -0.3472
  194DOPC   H2S23969  -2.828   2.140  -1.841  0.0854 -0.2018 -0.6300
  194DOPC    C323970  -2.739   2.463  -2.126 -0.4886 -0.6695 -0.5069
  194DOPC    HX23971  -2.841   2.449  -2.168 -1.1814  1.6031  0.2044
  194DOPC    HY23972  -2.685   2.531  -2.195  0.3396 -1.2317 -0.4240
  194DOPC   O3123973  -2.744   2.523  -1.996 -0.0969 -0.6440 -0.2273
  194DOPC   C3123974  -2.652   2.606  -1.953 -0.5290 -0.2016  0.8974
  194DOPC   O3223975  -2.542   2.626  -2.009  0.7180 -0.6087 -0.7171
  194DOPC   C3223976  -2.700   2.659  -1.813 -0.2941 -0.2738 -0.6257
  194DOPC   H2X23977  -2.796   2.716  -1.817  1.5379  3.5682  2.5805
  194DOPC   H2Y23978  -2.729   2.576  -1.745 -0.6761 -0.5204 -1.0843
  194DOPC   C2323979  -2.694   2.189  -1.667 -0.0235  0.2892 -0.4713
  194DOPC   H3R23980  -2.586   2.214  -1.661  0.0618 -0.2708  0.7077
  194DOPC   H3S23981  -2.717   2.093  -1.616  2.1903  0.5839  1.2402
  194DOPC   C2423982  -2.787   2.303  -1.621 -0.6489  0.0058  0.1517
  194DOPC   H4R23983  -2.885   2.265  -1.587 -0.1525  1.3817  3.4584
  194DOPC   H4S23984  -2.789   2.370  -1.710  1.3063 -2.0598 -1.5940
  194DOPC   C2523985  -2.724   2.364  -1.492 -0.3969 -0.3933 -0.9108
  194DOPC   H5R23986  -2.626   2.406  -1.524 -0.5287 -0.1801 -1.0341
  194DOPC   H5S23987  -2.710   2.278  -1.423 -3.2094  1.9407  2.9318
  194DOPC   C2623988  -2.823   2.462  -1.420 -0.0215  0.4446  0.5212
  194DOPC   H6R23989  -2.908   2.394  -1.399 -0.9067  0.6757 -2.0194
  194DOPC   H6S23990  -2.850   2.554  -1.475  2.0343  1.4719  1.1121
  194DOPC   C2723991  -2.772   2.508  -1.285  0.5785 -0.0326 -0.3741
  194DOPC   H7R23992  -2.672   2.552  -1.305  1.4720 -2.4207 -1.4407
  194DOPC   H7S23993  -2.758   2.422  -1.217  1.3179 -0.9743 -1.6778
  194DOPC   C2823994  -2.865   2.609  -1.209 -0.4487 -0.5883  0.5950
  194DOPC   H8R23995  -2.961   2.570  -1.169 -1.3698  0.1661 -0.8268
  194DOPC   H8S23996  -2.894   2.679  -1.290  1.1128 -1.8251 -1.1403
  194DOPC   C2923997  -2.773   2.666  -1.104 -0.2763  0.0778  0.3899
  194DOPC   H9R23998  -2.671   2.702  -1.127 -0.0834  0.9464  2.3962
  194DOPC  C21023999  -2.813   2.708  -0.987 -0.9792 -0.0457 -0.0935
  194DOPC  H10R24000  -2.736   2.732  -0.912 -0.2570  1.4554 -1.2414
  194DOPC  C21124001  -2.954   2.702  -0.933 -0.4457 -0.0886  0.8078
  194DOPC  H11R24002  -3.015   2.623  -0.981 -1.1515  0.2428  1.1478
  194DOPC  H11S24003  -3.019   2.790  -0.951 -2.2595 -1.7977 -1.7398
  194DOPC  C21224004  -2.966   2.650  -0.788 -0.3394 -0.1984  0.7123
  194DOPC  H12R24005  -3.070   2.657  -0.751 -1.4247  0.2594 -2.1395
  194DOPC  H12S24006  -2.903   2.707  -0.716 -0.6804 -0.8648  1.5395
  194DOPC  C21324007  -2.922   2.496  -0.767 -0.9723 -0.2880  0.3934
  194DOPC  H13R24008  -2.888   2.476  -0.664 -2.0694  1.0271  1.0376
  194DOPC  H13S24009  -2.843   2.467  -0.840 -0.2798  0.3691  0.8664
  194DOPC  C21424010  -3.037   2.397  -0.795  0.4627  0.2050  0.2216
  194DOPC  H14R24011  -2.994   2.295  -0.794 -0.3684 -0.2274 -1.9308
  194DOPC  H14S24012  -3.070   2.409  -0.901 -1.4515 -0.7443  0.6660
  194DOPC  C21524013  -3.161   2.423  -0.705  0.3582  0.5793  0.6209
  194DOPC  H15R24014  -3.232   2.340  -0.722  1.6074 -0.4908  0.4726
  194DOPC  H15S24015  -3.208   2.519  -0.737 -2.3270 -1.0499 -0.6631
  194DOPC  C21624016  -3.147   2.418  -0.559  0.1934  0.2975 -0.0240
  194DOPC  H16R24017  -3.248   2.402  -0.516  0.3688  0.4765  0.4600
  194DOPC  H16S24018  -3.110   2.513  -0.515  1.5029 -1.2189  2.4049
  194DOPC  C21724019  -3.060   2.296  -0.504 -0.3545  0.4504  0.4946
  194DOPC  H17R24020  -2.959   2.293  -0.549 -0.8570  0.2369 -0.6450
  194DOPC  H17S24021  -3.122   2.207  -0.532 -2.1989  1.2616  1.7810
  194DOPC  C21824022  -3.051   2.296  -0.353  0.7912 -0.1913  0.3097
  194DOPC  H18R24023  -3.149   2.296  -0.302  0.6445  1.1501  0.0677
  194DOPC  H18S24024  -2.996   2.385  -0.315  3.5028 -0.5506 -2.3393
  194DOPC  H18T24025  -2.988   2.214  -0.312  1.4834  0.0772 -0.1987
  194DOPC   C3324026  -2.603   2.752  -1.749 -1.1419 -0.3649  0.2172
  194DOPC   H3X24027  -2.578   2.842  -1.808  1.6843  0.7830  2.9135
  194DOPC   H3Y24028  -2.509   2.697  -1.730 -1.4063 -0.5448  1.0841
  194DOPC   C3424029  -2.658   2.783  -1.605 -0.2997 -0.9453 -0.2868
  194DOPC   H4X24030  -2.649   2.687  -1.551  0.0156  0.4896  2.3993
  194DOPC   H4Y24031  -2.766   2.812  -1.606 -0.2817 -0.7418 -2.8641
  194DOPC   C3524032  -2.556   2.878  -1.536 -0.3218 -0.0307  0.7345
  194DOPC   H5X24033  -2.570   2.979  -1.581 -2.9521  0.0200  1.5078
  194DOPC   H5Y24034  -2.453   2.853  -1.568  0.0484 -0.1776  1.9925
  194DOPC   C3624035  -2.566   2.877  -1.385 -0.7366  0.7873  0.5366
  194DOPC   H6X24036  -2.666   2.878  -1.336 -0.6351 -0.3502  0.7940
  194DOPC   H6Y24037  -2.513   2.789  -1.343 -1.1891  0.7539  1.0500
  194DOPC   C3724038  -2.500   2.999  -1.333  0.0685  0.2904  0.4601
  194DOPC   H7X24039  -2.402   3.016  -1.382 -1.0537  0.5977 -1.7971
  194DOPC   H7Y24040  -2.558   3.087  -1.368 -0.4957  0.5322  1.9369
  194DOPC   C3824041  -2.478   2.996  -1.183  0.5725  0.5411 -1.3150
  194DOPC   H8X24042  -2.412   3.082  -1.157 -0.5961  1.2575 -0.6359
  194DOPC   H8Y24043  -2.424   2.906  -1.146  0.8103  0.8054 -1.0084
  194DOPC   C3924044  -2.607   3.010  -1.111 -0.2642 -0.2735  0.1784
  194DOPC   H9X24045  -2.688   3.029  -1.183 -0.0175  1.1330  0.2409
  194DOPC  C31024046  -2.635   3.010  -0.980  0.3633  0.2871 -0.0380
  194DOPC  H10X24047  -2.738   2.977  -0.963  0.1882  0.6455 -0.3893
  194DOPC  C31124048  -2.538   2.994  -0.868 -0.3779 -0.4998  0.4885
  194DOPC  H11X24049  -2.512   3.098  -0.839 -0.8285 -0.6081  1.3181
  194DOPC  H11Y24050  -2.444   2.940  -0.892  0.5068  1.1478  0.1280
  194DOPC  C31224051  -2.605   2.947  -0.735  0.2054 -0.1106 -0.4507
  194DOPC  H12X24052  -2.642   2.842  -0.745  0.6705 -0.1678 -1.6943
  194DOPC  H12Y24053  -2.696   3.007  -0.715  1.6357  2.5635 -1.5976
  194DOPC  C31324054  -2.518   2.944  -0.608  0.4386 -0.5508  0.2459
  194DOPC  H13X24055  -2.434   2.871  -0.615  0.1740 -0.6762 -3.2182
  194DOPC  H13Y24056  -2.463   3.040  -0.597  0.2898 -0.4933  0.4889
  194DOPC  C31424057  -2.598   2.922  -0.479  0.8573  0.1373 -0.4558
  194DOPC  H14X24058  -2.535   2.949  -0.392  0.9112  0.5950 -0.6335
  194DOPC  H14Y24059  -2.683   2.993  -0.487 -0.6497 -1.7105 -2.1606
  194DOPC  C31524060  -2.663   2.785  -0.462  0.7290 -0.6106 -0.1604
  194DOPC  H15X24061  -2.583   2.711  -0.483  3.0523  1.6296  0.3413
  194DOPC  H15Y24062  -2.745   2.774  -0.537 -0.3018  1.5257  0.5783
  194DOPC  C31624063  -2.710   2.770  -0.318 -0.2822  0.5299 -0.2487
  194DOPC  H16X24064  -2.631   2.733  -0.250 -0.3979  3.0643  1.3942
  194DOPC  H16Y24065  -2.731   2.871  -0.277  2.4170  0.3838  1.7888
  194DOPC  C31724066  -2.817   2.663  -0.313  0.0546 -0.4327  0.3456
  194DOPC  H17X24067  -2.879   2.668  -0.405  1.2620  1.2476 -0.4236
  194DOPC  H17Y24068  -2.766   2.564  -0.319  3.1411  0.9679  1.4673
  194DOPC  C31824069  -2.898   2.666  -0.181  0.0423  0.1111  0.7573
  194DOPC  H18X24070  -2.999   2.621  -0.196  1.5598 -3.1763 -0.4137
  194DOPC  H18Y24071  -2.837   2.614  -0.104 -0.0492  1.6989  1.9411
  194DOPC  H18Z24072  -2.912   2.768  -0.139  0.8674  0.0869  1.0970
  195DOPC     N24073   0.887  -3.329  -2.508  0.0396  0.2114  0.1324
  195DOPC   C1224074   0.810  -3.409  -2.401  0.2343  0.3306  0.5702
  195DOPC  H12A24075   0.843  -3.511  -2.387 -0.0154  0.0830 -0.5714
  195DOPC  H12B24076   0.708  -3.419  -2.435 -0.1616 -0.4604  1.9101
  195DOPC   C1324077   0.840  -3.356  -2.644 -0.2790  0.1189 -0.5831
  195DOPC  H13A24078   0.736  -3.384  -2.650 -0.3012 -0.7499  2.3128
  195DOPC  H13B24079   0.850  -3.283  -2.724 -0.5432  0.4509 -0.3189
  195DOPC  H13C24080   0.882  -3.453  -2.666 -2.6168 -1.4687  1.4197
  195DOPC   C1424081   1.040  -3.341  -2.498  0.3573  0.2964  0.0992
  195DOPC  H14A24082   1.060  -3.439  -2.540 -1.7334 -0.7453  1.3415
  195DOPC  H14B24083   1.080  -3.260  -2.557 -0.5435  1.5274  1.1274
  195DOPC  H14C24084   1.066  -3.331  -2.394  0.5220  1.1429 -0.0207
  195DOPC   C1524085   0.854  -3.181  -2.484 -0.2325  0.4090 -0.0397
  195DOPC  H15A24086   0.877  -3.154  -2.382 -1.5071  1.9359 -0.1122
  195DOPC  H15B24087   0.750  -3.154  -2.487 -0.4610 -0.1587  1.8321
  195DOPC  H15C24088   0.924  -3.116  -2.535  1.7349 -2.1587 -0.8273
  195DOPC   C1124089   0.796  -3.347  -2.259  1.4693  0.2260  0.5737
  195DOPC  H11A24090   0.714  -3.272  -2.253 -0.8951 -2.1993  0.8169
  195DOPC  H11B24091   0.753  -3.425  -2.192  0.2465  1.4625  1.2928
  195DOPC     P24092   1.009  -3.357  -2.099 -0.8709  0.3208  0.2339
  195DOPC   O1324093   1.068  -3.244  -2.023 -0.5332  0.0245  0.1540
  195DOPC   O1424094   1.111  -3.447  -2.167  0.1611 -0.1996 -0.5732
  195DOPC   O1224095   0.918  -3.295  -2.211 -0.0134  0.2248 -0.5415
  195DOPC   O1124096   0.916  -3.448  -2.011 -0.5912 -0.2350  0.0102
  195DOPC    C124097   0.808  -3.394  -1.929 -0.2528  0.4454  0.6101
  195DOPC    HA24098   0.709  -3.424  -1.971  0.5610  1.6978 -2.4562
  195DOPC    HB24099   0.808  -3.283  -1.933  1.9712  0.5128  1.3534
  195DOPC    C224100   0.827  -3.439  -1.778 -1.0778 -0.5069  0.2505
  195DOPC    HS24101   0.741  -3.396  -1.722  1.1796  0.7572  3.0077
  195DOPC   O2124102   0.954  -3.391  -1.726 -0.0633 -0.1059  0.1893
  195DOPC   C2124103   0.972  -3.264  -1.699 -0.2204 -0.2007  0.4536
  195DOPC   O2224104   0.886  -3.178  -1.698  0.1170 -0.0311 -0.4660
  195DOPC   C2224105   1.111  -3.239  -1.650  0.4344  0.4490  0.1632
  195DOPC   H2R24106   1.125  -3.129  -1.646  0.1532  0.7072 -3.1176
  195DOPC   H2S24107   1.180  -3.283  -1.725 -1.3197  0.0950 -1.3170
  195DOPC    C324108   0.824  -3.588  -1.750  0.0432  0.0994  0.0163
  195DOPC    HX24109   0.904  -3.627  -1.817  0.6201  0.2947  0.5754
  195DOPC    HY24110   0.739  -3.649  -1.787  0.9159 -0.8885 -0.4080
  195DOPC   O3124111   0.851  -3.626  -1.621 -0.2747  0.3210  0.0305
  195DOPC   C3124112   0.760  -3.605  -1.523  0.1184 -0.6075 -0.7348
  195DOPC   O3224113   0.658  -3.542  -1.531 -0.0235  0.0100  0.1904
  195DOPC   C3224114   0.819  -3.669  -1.396 -0.1121 -0.3323 -0.5816
  195DOPC   H2X24115   0.791  -3.776  -1.390 -0.5126 -0.1633  1.6388
  195DOPC   H2Y24116   0.930  -3.668  -1.398 -0.0894  2.0048 -1.0060
  195DOPC   C2324117   1.132  -3.305  -1.504 -0.4798 -0.1015  0.0925
  195DOPC   H3R24118   1.242  -3.314  -1.494 -0.3671 -2.5191 -2.2762
  195DOPC   H3S24119   1.111  -3.413  -1.516  0.7782 -0.3755  0.2511
  195DOPC   C2424120   1.066  -3.237  -1.380 -0.9639  0.3159  0.5092
  195DOPC   H4R24121   0.959  -3.230  -1.410 -0.8293 -0.2816 -0.1510
  195DOPC   H4S24122   1.105  -3.134  -1.367 -0.5068 -0.0562  2.2927
  195DOPC   C2524123   1.090  -3.309  -1.253 -0.4586 -0.6409  0.0749
  195DOPC   H5R24124   1.196  -3.331  -1.232 -0.8220 -3.3370 -0.5473
  195DOPC   H5S24125   1.048  -3.412  -1.255 -2.4703  0.1386 -0.3614
  195DOPC   C2624126   1.031  -3.235  -1.132  0.2337  0.5581 -0.5359
  195DOPC   H6R24127   0.922  -3.237  -1.149  0.3452  0.2940 -1.2585
  195DOPC   H6S24128   1.064  -3.129  -1.140 -0.9656  0.8571 -2.1693
  195DOPC   C2724129   1.067  -3.312  -1.009 -0.1408 -0.3492 -0.5942
  195DOPC   H7R24130   1.176  -3.315  -0.990 -0.3187 -0.5699  0.4359
  195DOPC   H7S24131   1.030  -3.416  -1.022 -1.0879 -0.2164  0.8108
  195DOPC   C2824132   0.999  -3.258  -0.882  0.4562  0.3503 -0.1485
  195DOPC   H8R24133   1.022  -3.342  -0.812  1.8449 -0.4100 -1.4563
  195DOPC   H8S24134   0.891  -3.254  -0.904  0.8310  0.8324 -2.1222
  195DOPC   C2924135   1.049  -3.119  -0.838  0.2041 -0.3560  0.5630
  195DOPC   H9R24136   1.044  -3.039  -0.913  0.4682 -0.6041  0.2794
  195DOPC  C21024137   1.095  -3.085  -0.717 -0.1635 -0.4948  0.3735
  195DOPC  H10R24138   1.139  -2.984  -0.707  3.9132 -2.2278  2.3039
  195DOPC  C21124139   1.112  -3.161  -0.593 -0.0412 -0.0811  0.0017
  195DOPC  H11R24140   1.057  -3.258  -0.591 -0.8776  0.3834 -0.0581
  195DOPC  H11S24141   1.074  -3.104  -0.506 -0.8515 -0.7096  0.0771
  195DOPC  C21224142   1.261  -3.203  -0.566 -0.2325  0.2999 -0.5952
  195DOPC  H12R24143   1.324  -3.112  -0.576 -1.6176  1.1758 -1.8598
  195DOPC  H12S24144   1.293  -3.283  -0.635 -2.5375 -0.1991 -1.1823
  195DOPC  C21324145   1.277  -3.260  -0.419  0.2253 -0.1436 -0.3991
  195DOPC  H13R24146   1.179  -3.305  -0.391  0.2315  0.0567 -0.0423
  195DOPC  H13S24147   1.285  -3.173  -0.350  1.6693  0.1581 -0.9168
  195DOPC  C21424148   1.405  -3.334  -0.376  0.0336  0.4549  0.3369
  195DOPC  H14R24149   1.498  -3.310  -0.432 -0.3150 -0.4222 -0.6391
  195DOPC  H14S24150   1.373  -3.438  -0.395  1.2748 -0.0009  0.6686
  195DOPC  C21524151   1.420  -3.323  -0.223  0.3195 -0.0862  1.1532
  195DOPC  H15R24152   1.325  -3.348  -0.171 -0.1804 -2.0789 -0.5904
  195DOPC  H15S24153   1.471  -3.227  -0.200 -0.8936  0.3724  2.0225
  195DOPC  C21624154   1.512  -3.436  -0.169 -0.0819 -0.2595 -0.5125
  195DOPC  H16R24155   1.457  -3.527  -0.201 -1.0177  0.9425 -2.5496
  195DOPC  H16S24156   1.516  -3.435  -0.058  0.8765 -0.1602 -0.5382
  195DOPC  C21724157   1.658  -3.446  -0.222 -0.3588  0.5966 -0.4701
  195DOPC  H17R24158   1.710  -3.349  -0.209  1.7011 -0.4425 -0.5977
  195DOPC  H17S24159   1.647  -3.461  -0.332 -0.9277  0.2313 -0.3668
  195DOPC  C21824160   1.729  -3.572  -0.155  0.4876  0.2986 -0.0072
  195DOPC  H18R24161   1.702  -3.668  -0.205 -0.1012  0.7443 -0.5562
  195DOPC  H18S24162   1.694  -3.576  -0.050  0.5324  2.0220  0.0985
  195DOPC  H18T24163   1.839  -3.557  -0.151  0.3447  1.0424  1.8148
  195DOPC   C3324164   0.783  -3.586  -1.266  0.5026 -0.1023 -0.7748
  195DOPC   H3X24165   0.672  -3.585  -1.264  0.4350 -1.0431 -2.2410
  195DOPC   H3Y24166   0.822  -3.482  -1.274  0.8262  0.0264  1.7415
  195DOPC   C3424167   0.833  -3.647  -1.132  0.6011 -0.4329 -0.2419
  195DOPC   H4X24168   0.942  -3.663  -1.122  0.5842 -0.5102 -0.1794
  195DOPC   H4Y24169   0.780  -3.745  -1.127  0.2613 -0.1949  1.0313
  195DOPC   C3524170   0.782  -3.571  -1.008 -0.2103 -0.0288  0.4256
  195DOPC   H5X24171   0.671  -3.574  -1.011 -0.2698  0.2901  1.7386
  195DOPC   H5Y24172   0.821  -3.467  -1.010  1.2890 -0.5518  0.7195
  195DOPC   C3624173   0.838  -3.617  -0.868  0.2494 -0.0654 -0.5838
  195DOPC   H6X24174   0.847  -3.725  -0.845  1.6190  0.6153  2.6167
  195DOPC   H6Y24175   0.943  -3.579  -0.866  0.1496  0.4110 -2.3587
  195DOPC   C3724176   0.764  -3.552  -0.750  0.1421  0.3526  0.0608
  195DOPC   H7X24177   0.782  -3.442  -0.749 -0.2323  0.4081  1.2247
  195DOPC   H7Y24178   0.655  -3.564  -0.768  0.2406 -0.5350  0.0348
  195DOPC   C3824179   0.804  -3.616  -0.613  0.6189  0.1168 -1.0021
  195DOPC   H8X24180   0.765  -3.719  -0.598 -2.4723  1.4379  1.3553
  195DOPC   H8Y24181   0.757  -3.562  -0.527 -0.8265 -2.1839 -0.2618
  195DOPC   C3924182   0.950  -3.633  -0.594 -0.3108  0.4384  0.2664
  195DOPC   H9X24183   1.006  -3.650  -0.687 -0.0769 -0.4384  0.5579
  195DOPC  C31024184   1.019  -3.610  -0.480 -0.6203  0.1800  0.1355
  195DOPC  H10X24185   1.129  -3.602  -0.481 -0.6466  0.6653  0.7156
  195DOPC  C31124186   0.965  -3.575  -0.346  0.1813 -0.3897  0.4754
  195DOPC  H11X24187   0.866  -3.619  -0.320 -1.1100  1.8596 -0.3489
  195DOPC  H11Y24188   0.953  -3.467  -0.326 -0.9508 -0.1448 -1.3220
  195DOPC  C31224189   1.055  -3.630  -0.229 -0.3718  0.4392  0.3133
  195DOPC  H12X24190   1.160  -3.620  -0.266 -0.7866  1.5988 -0.6506
  195DOPC  H12Y24191   1.020  -3.735  -0.223 -0.7186  0.4615 -0.9722
  195DOPC  C31324192   1.028  -3.567  -0.098 -0.4955  0.1969 -0.0197
  195DOPC  H13X24193   1.069  -3.466  -0.079 -1.4134  0.6409 -0.3559
  195DOPC  H13Y24194   0.918  -3.565  -0.082 -0.6964  0.2153 -1.3337
  195DOPC  C31424195   1.083  -3.649   0.023  0.7770 -0.3746  0.9451
  195DOPC  H14X24196   1.049  -3.598   0.115 -0.1232  1.5285 -0.3848
  195DOPC  H14Y24197   1.042  -3.752   0.017 -0.3811  0.1418 -2.0190
  195DOPC  C31524198   1.242  -3.651   0.034  0.8760 -0.4125  0.0699
  195DOPC  H15X24199   1.291  -3.557   0.000  2.3185 -0.4647  1.8891
  195DOPC  H15Y24200   1.276  -3.732  -0.034  0.1571  0.0956 -0.9356
  195DOPC  C31624201   1.281  -3.676   0.177  0.0383  0.5877  0.1203
  195DOPC  H16X24202   1.243  -3.583   0.224  1.5395  3.3230 -3.6188
  195DOPC  H16Y24203   1.225  -3.764   0.214  0.7464 -0.4186 -1.0894
  195DOPC  C31724204   1.432  -3.701   0.194  0.3271  0.4611 -0.3141
  195DOPC  H17X24205   1.453  -3.803   0.155  0.5573  0.2137  0.4438
  195DOPC  H17Y24206   1.491  -3.643   0.119  0.1907 -1.5337 -2.0784
  195DOPC  C31824207   1.476  -3.696   0.344  0.4298  0.7129  0.1975
  195DOPC  H18X24208   1.466  -3.597   0.393 -2.1701  0.3571  0.4933
  195DOPC  H18Y24209   1.404  -3.759   0.400 -0.9538  1.9925 -0.1136
  195DOPC  H18Z24210   1.581  -3.734   0.351 -0.2262 -1.3465 -0.5863
  196DOPC     N24211  -1.589  -1.629  -2.541  0.0431 -0.2666  0.3537
  196DOPC   C1224212  -1.561  -1.720  -2.423  0.1111  0.7349  0.6269
  196DOPC  H12A24213  -1.603  -1.681  -2.331  0.5940 -2.2782  2.2770
  196DOPC  H12B24214  -1.456  -1.702  -2.404  0.4724 -1.1482  0.5429
  196DOPC   C1324215  -1.549  -1.688  -2.672  0.5102  0.4508 -0.5751
  196DOPC  H13A24216  -1.447  -1.721  -2.690  0.2602  0.2464 -1.7232
  196DOPC  H13B24217  -1.612  -1.775  -2.684 -1.6587  1.7449  0.9297
  196DOPC  H13C24218  -1.581  -1.629  -2.757 -0.0775  1.3707  0.2629
  196DOPC   C1424219  -1.517  -1.504  -2.518 -0.5135  0.0106 -0.2890
  196DOPC  H14A24220  -1.575  -1.467  -2.434  1.0179  0.7361  0.4747
  196DOPC  H14B24221  -1.414  -1.509  -2.488 -0.5743 -2.0980 -0.2838
  196DOPC  H14C24222  -1.530  -1.439  -2.603 -2.1030 -0.2272 -0.2564
  196DOPC   C1524223  -1.734  -1.605  -2.540 -0.3359 -0.4327 -0.1176
  196DOPC  H15A24224  -1.766  -1.551  -2.452  1.6995 -0.1179  0.4791
  196DOPC  H15B24225  -1.796  -1.693  -2.545 -1.2316  0.2547 -2.9338
  196DOPC  H15C24226  -1.757  -1.527  -2.611  0.2850 -0.3705 -0.2546
  196DOPC   C1124227  -1.588  -1.875  -2.429  1.5142 -0.4306  0.0362
  196DOPC  H11A24228  -1.548  -1.917  -2.523  0.5854 -0.4431 -0.3659
  196DOPC  H11B24229  -1.535  -1.917  -2.341  0.4259 -0.9419  0.4638
  196DOPC     P24230  -1.793  -2.015  -2.491  0.0813 -0.5278  0.1883
  196DOPC   O1324231  -1.688  -2.119  -2.514 -0.3521 -0.1587  0.2305
  196DOPC   O1424232  -1.865  -1.970  -2.617 -0.1920  0.1147  0.2319
  196DOPC   O1224233  -1.731  -1.894  -2.414  0.9608 -0.1399  0.1908
  196DOPC   O1124234  -1.901  -2.072  -2.390  0.2237  0.1152 -0.1872
  196DOPC    C124235  -1.851  -2.111  -2.261  0.3686  0.2081 -0.2170
  196DOPC    HA24236  -1.745  -2.085  -2.240  1.2349 -2.5100 -0.8160
  196DOPC    HB24237  -1.843  -2.222  -2.262  0.1599  0.1461 -2.9344
  196DOPC    C224238  -1.945  -2.066  -2.148 -0.3523 -0.0867  1.0689
  196DOPC    HS24239  -1.971  -1.959  -2.165  1.9556  0.5617  1.3019
  196DOPC   O2124240  -1.870  -2.087  -2.034  0.0461 -0.0464 -0.6808
  196DOPC   C2124241  -1.870  -1.988  -1.944 -0.5163 -0.2411 -0.1311
  196DOPC   O2224242  -1.924  -1.879  -1.960 -0.0287 -0.0944  0.3829
  196DOPC   C2224243  -1.780  -2.043  -1.826 -0.4768  0.2164 -0.3411
  196DOPC   H2R24244  -1.699  -1.967  -1.819 -1.4109  1.2097 -0.0736
  196DOPC   H2S24245  -1.729  -2.131  -1.870  3.4260  1.5887  0.9814
  196DOPC    C324246  -2.072  -2.158  -2.133  0.2158  0.1913  0.3218
  196DOPC    HX24247  -2.032  -2.258  -2.109  0.3670  0.3561  0.7629
  196DOPC    HY24248  -2.118  -2.177  -2.233  1.0096 -0.1147  0.0102
  196DOPC   O3124249  -2.161  -2.128  -2.033  0.4029 -0.1254  0.7203
  196DOPC   C3124250  -2.245  -2.024  -2.058  0.3555  0.1998 -0.4705
  196DOPC   O3224251  -2.244  -1.950  -2.152 -0.2795 -0.2066  0.2591
  196DOPC   C3224252  -2.335  -2.016  -1.938  0.1700  0.5624 -0.1698
  196DOPC   H2X24253  -2.402  -1.931  -1.960 -2.3115 -1.2987 -0.2701
  196DOPC   H2Y24254  -2.394  -2.110  -1.931  0.4286  0.3863 -0.3575
  196DOPC   C2324255  -1.870  -2.056  -1.703  0.1423 -0.5103 -0.9024
  196DOPC   H3R24256  -1.949  -2.132  -1.720  0.0970 -0.1545 -2.3775
  196DOPC   H3S24257  -1.921  -1.962  -1.674  0.1954 -1.1667  1.5556
  196DOPC   C2424258  -1.793  -2.091  -1.570  0.6721 -0.4712  0.1697
  196DOPC   H4R24259  -1.701  -2.028  -1.572  0.7029 -0.5282 -0.4843
  196DOPC   H4S24260  -1.753  -2.195  -1.574  2.8842  0.3552 -2.8353
  196DOPC   C2524261  -1.865  -2.058  -1.439  0.2582 -0.4493 -0.3668
  196DOPC   H5R24262  -1.972  -2.087  -1.438  0.1460 -0.1136 -1.4232
  196DOPC   H5S24263  -1.857  -1.947  -1.436  1.2941 -0.5132  3.0483
  196DOPC   C2624264  -1.801  -2.121  -1.310  0.3340 -0.0250  0.8673
  196DOPC   H6R24265  -1.694  -2.093  -1.308 -0.1356  1.9544  0.7957
  196DOPC   H6S24266  -1.820  -2.230  -1.309  2.1693 -0.3690  0.6470
  196DOPC   C2724267  -1.875  -2.068  -1.187 -0.0014 -0.7707 -0.1234
  196DOPC   H7R24268  -1.983  -2.085  -1.205  0.2001 -1.7543 -0.4833
  196DOPC   H7S24269  -1.850  -1.960  -1.188  0.9141 -0.9635  0.6739
  196DOPC   C2824270  -1.835  -2.140  -1.061  0.1100  0.6131  0.1269
  196DOPC   H8R24271  -1.848  -2.250  -1.061 -1.0131  0.7015 -1.6192
  196DOPC   H8S24272  -1.901  -2.105  -0.979  0.6707  2.3840 -0.1329
  196DOPC   C2924273  -1.686  -2.108  -1.031  0.4320 -0.2989  0.3847
  196DOPC   H9R24274  -1.615  -2.163  -1.093 -0.9023  1.2866 -2.8272
  196DOPC  C21024275  -1.644  -2.017  -0.944 -0.6051  0.2068  0.3282
  196DOPC  H10R24276  -1.537  -1.998  -0.929 -0.4131 -0.1022 -0.5722
  196DOPC  C21124277  -1.727  -1.933  -0.849  0.8657  0.2805  0.3798
  196DOPC  H11R24278  -1.835  -1.938  -0.872  0.4452 -0.0669  2.3265
  196DOPC  H11S24279  -1.681  -1.831  -0.848  1.9643 -0.1572  3.0858
  196DOPC  C21224280  -1.730  -1.990  -0.705 -0.7996  0.0154 -0.1501
  196DOPC  H12R24281  -1.625  -2.015  -0.679 -0.6960 -1.0680 -1.5012
  196DOPC  H12S24282  -1.794  -2.080  -0.697 -1.6419  0.2595 -2.9797
  196DOPC  C21324283  -1.789  -1.884  -0.611  0.6694  0.2155 -0.1738
  196DOPC  H13R24284  -1.869  -1.836  -0.671  1.3681  0.8795 -0.6130
  196DOPC  H13S24285  -1.722  -1.801  -0.578  0.0465  0.4276  0.5728
  196DOPC  C21424286  -1.844  -1.948  -0.476  0.1936  0.3442  0.5854
  196DOPC  H14R24287  -1.901  -2.036  -0.514  2.5500 -0.9531 -0.1383
  196DOPC  H14S24288  -1.908  -1.883  -0.412  0.2507  0.2820  0.7068
  196DOPC  C21524289  -1.733  -2.012  -0.399 -0.0393 -0.6310 -0.2089
  196DOPC  H15R24290  -1.686  -1.956  -0.315 -0.1901  0.9230 -1.1370
  196DOPC  H15S24291  -1.650  -2.036  -0.468  1.9253 -0.4930  1.9876
  196DOPC  C21624292  -1.770  -2.150  -0.351 -0.4254 -0.2777 -0.4918
  196DOPC  H16R24293  -1.796  -2.202  -0.446 -1.1194 -0.1817 -0.3588
  196DOPC  H16S24294  -1.853  -2.141  -0.278 -1.1123  0.0329 -1.2974
  196DOPC  C21724295  -1.660  -2.224  -0.280 -0.4894 -0.0912  0.3197
  196DOPC  H17R24296  -1.573  -2.217  -0.347  1.2009 -0.4978  2.3673
  196DOPC  H17S24297  -1.680  -2.334  -0.279  2.8215 -0.7845  0.4215
  196DOPC  C21824298  -1.633  -2.168  -0.139 -0.3246 -0.3973 -0.1952
  196DOPC  H18R24299  -1.586  -2.069  -0.153  1.6703 -1.2834 -0.0402
  196DOPC  H18S24300  -1.562  -2.227  -0.078 -0.2303  0.5040  0.5772
  196DOPC  H18T24301  -1.727  -2.153  -0.082 -1.0252  0.3146 -1.4974
  196DOPC   C3324302  -2.247  -1.975  -1.813  0.0864 -0.0449 -0.2696
  196DOPC   H3X24303  -2.193  -1.878  -1.821  1.1078 -0.5577  0.1856
  196DOPC   H3Y24304  -2.168  -2.049  -1.788  0.8048  0.4714 -0.9499
  196DOPC   C3424305  -2.339  -1.962  -1.692 -0.4934 -0.4420  0.2903
  196DOPC   H4X24306  -2.402  -2.053  -1.681  0.6191 -1.5442 -1.8611
  196DOPC   H4Y24307  -2.406  -1.874  -1.705 -1.3184 -1.3425 -2.1425
  196DOPC   C3524308  -2.243  -1.930  -1.568 -0.0632 -0.5133  0.2054
  196DOPC   H5X24309  -2.182  -1.838  -1.578  3.3643 -2.6457  0.0874
  196DOPC   H5Y24310  -2.175  -2.017  -1.569 -0.5893 -0.9709  1.5660
  196DOPC   C3624311  -2.317  -1.925  -1.428 -0.4122 -0.2544 -0.2475
  196DOPC   H6X24312  -2.381  -1.835  -1.418  0.9858  0.6954  0.5240
  196DOPC   H6Y24313  -2.391  -2.007  -1.417 -0.4519 -0.2396 -0.4060
  196DOPC   C3724314  -2.211  -1.914  -1.317  0.1831 -1.0788 -0.4082
  196DOPC   H7X24315  -2.147  -2.004  -1.303  2.1236  0.5114  1.6606
  196DOPC   H7Y24316  -2.145  -1.828  -1.339  0.7692 -1.8336 -1.7257
  196DOPC   C3824317  -2.290  -1.880  -1.190  0.4506  0.6002 -0.1188
  196DOPC   H8X24318  -2.353  -1.968  -1.162  1.1226  0.3323  0.5821
  196DOPC   H8Y24319  -2.363  -1.798  -1.205 -0.4827 -0.2370 -0.2544
  196DOPC   C3924320  -2.192  -1.843  -1.076 -0.1803  0.3584  0.9767
  196DOPC   H9X24321  -2.117  -1.771  -1.111  0.5648 -1.1621 -0.7331
  196DOPC  C31024322  -2.182  -1.906  -0.958  0.3637 -0.4593  0.4537
  196DOPC  H10X24323  -2.109  -1.872  -0.883  0.4279  0.1069  0.1361
  196DOPC  C31124324  -2.276  -2.010  -0.900 -0.4681 -0.1898  0.4771
  196DOPC  H11X24325  -2.232  -2.074  -0.821 -2.2298 -0.0151  1.6565
  196DOPC  H11Y24326  -2.323  -2.074  -0.977 -0.5427  1.1118 -0.5964
  196DOPC  C31224327  -2.388  -1.933  -0.817 -0.0411 -0.5170  0.1042
  196DOPC  H12X24328  -2.468  -2.010  -0.811  1.2091 -1.8570  0.0647
  196DOPC  H12Y24329  -2.417  -1.845  -0.878 -1.0144 -0.8575  0.0574
  196DOPC  C31324330  -2.345  -1.881  -0.685 -0.8658  0.1317 -0.4218
  196DOPC  H13X24331  -2.319  -1.969  -0.621 -0.2423 -0.1923 -1.1033
  196DOPC  H13Y24332  -2.250  -1.824  -0.691  0.3997 -1.9042 -0.6625
  196DOPC  C31424333  -2.439  -1.794  -0.612  0.0436  0.3972  0.3153
  196DOPC  H14X24334  -2.469  -1.703  -0.669 -0.4067  0.9050  1.3354
  196DOPC  H14Y24335  -2.530  -1.855  -0.594  0.9147 -0.7568  0.8865
  196DOPC  C31524336  -2.384  -1.749  -0.472 -0.3414  0.4366  0.3091
  196DOPC  H15X24337  -2.289  -1.694  -0.478 -0.5288  0.6587 -0.8686
  196DOPC  H15Y24338  -2.364  -1.843  -0.417  2.8702  0.2623 -0.9535
  196DOPC  C31624339  -2.484  -1.656  -0.402 -0.3791 -0.4724  0.6113
  196DOPC  H16X24340  -2.546  -1.603  -0.477 -0.7053 -1.0546  0.4681
  196DOPC  H16Y24341  -2.558  -1.725  -0.356 -0.3695 -0.7189  0.2584
  196DOPC  C31724342  -2.434  -1.581  -0.283 -0.1686  0.1239  0.6663
  196DOPC  H17X24343  -2.383  -1.654  -0.216 -0.2706  0.3627  1.0043
  196DOPC  H17Y24344  -2.349  -1.513  -0.307 -0.0413 -0.1260  0.4077
  196DOPC  C31824345  -2.559  -1.535  -0.195  0.0735 -0.6189  0.6412
  196DOPC  H18X24346  -2.623  -1.462  -0.249  0.2432 -0.3886  0.7476
  196DOPC  H18Y24347  -2.626  -1.615  -0.156 -1.6678  0.9911  1.1574
  196DOPC  H18Z24348  -2.528  -1.476  -0.106 -0.8919  1.6649 -0.4235
  197DOPC     N24349   3.213   3.350  -2.344 -0.4715 -0.3327 -0.1333
  197DOPC   C1224350   3.277   3.358  -2.209 -0.9311 -0.4285  0.6151
  197DOPC  H12A24351   3.202   3.361  -2.131  0.0850  1.6151  1.5946
  197DOPC  H12B24352   3.326   3.452  -2.188 -1.5993 -0.3197  1.8052
  197DOPC   C1324353   3.310   3.386  -2.454  0.1406  0.4854 -0.1638
  197DOPC  H13A24354   3.402   3.331  -2.446  0.9400  1.8612  0.3965
  197DOPC  H13B24355   3.269   3.355  -2.549 -0.6923 -0.2616  0.4114
  197DOPC  H13C24356   3.348   3.487  -2.460  1.7260 -0.0781 -0.0078
  197DOPC   C1424357   3.105   3.453  -2.356  0.7441  0.2430 -0.1218
  197DOPC  H14A24358   3.078   3.462  -2.460  0.4012  0.3197 -0.0290
  197DOPC  H14B24359   3.018   3.423  -2.299 -1.0055  0.4358 -2.5533
  197DOPC  H14C24360   3.136   3.553  -2.326  0.4446  0.7309 -1.3868
  197DOPC   C1524361   3.162   3.208  -2.366  0.4899  0.5702 -0.1819
  197DOPC  H15A24362   3.234   3.137  -2.329 -1.2378 -0.6740  0.9173
  197DOPC  H15B24363   3.140   3.180  -2.468  0.1754 -0.3179  0.1262
  197DOPC  H15C24364   3.076   3.193  -2.302  0.7107 -0.9186 -0.2045
  197DOPC   C1124365   3.388   3.249  -2.161  0.4804  1.1641 -0.6992
  197DOPC  H11A24366   3.478   3.266  -2.224 -0.2389  2.2290 -1.4726
  197DOPC  H11B24367   3.412   3.279  -2.056 -1.9117  2.4685 -0.4599
  197DOPC     P24368   3.433   2.992  -2.214  0.0946 -0.0859  0.2577
  197DOPC   O1324369   3.514   3.045  -2.331  0.3394  0.2997 -0.9738
  197DOPC   O1424370   3.346   2.873  -2.237 -0.2976  0.0879  0.1396
  197DOPC   O1224371   3.340   3.108  -2.159  0.0190  0.2444 -0.3830
  197DOPC   O1124372   3.523   2.957  -2.090 -0.5969 -1.2658 -0.0195
  197DOPC    C124373   3.473   2.909  -1.962  0.0233 -0.7611  0.3943
  197DOPC    HA24374   3.540   2.825  -1.933  2.9862  1.0665 -0.6216
  197DOPC    HB24375   3.367   2.882  -1.975 -0.5116  1.8490 -1.5711
  197DOPC    C224376   3.481   3.017  -1.849 -0.5861 -0.8928 -0.4050
  197DOPC    HS24377   3.462   3.122  -1.880  2.7359  0.2054  0.8478
  197DOPC   O2124378   3.611   2.999  -1.784  0.7087 -0.2717 -0.4049
  197DOPC   C2124379   3.675   3.114  -1.754 -0.2603  0.4149 -0.7103
  197DOPC   O2224380   3.629   3.225  -1.770  0.1649  0.0589 -0.4603
  197DOPC   C2224381   3.801   3.082  -1.677  0.2869  0.0876 -0.7710
  197DOPC   H2R24382   3.858   3.177  -1.671  0.6839 -0.1099 -1.2598
  197DOPC   H2S24383   3.860   3.013  -1.742  1.6209  1.4288 -1.0482
  197DOPC    C324384   3.371   2.987  -1.750 -0.0579 -0.2297  0.0209
  197DOPC    HX24385   3.396   2.903  -1.682  0.0556 -1.6073 -1.6618
  197DOPC    HY24386   3.286   2.940  -1.805 -1.0106  0.4727  0.8446
  197DOPC   O3124387   3.330   3.106  -1.680  0.7361 -0.2848 -0.2816
  197DOPC   C3124388   3.355   3.118  -1.548  0.4475 -0.6708  0.7602
  197DOPC   O3224389   3.414   3.044  -1.480 -0.5817  0.1687 -0.0941
  197DOPC   C3224390   3.302   3.255  -1.499  0.0187 -0.2529 -0.2943
  197DOPC   H2X24391   3.385   3.325  -1.477 -1.3080  1.4785 -0.5536
  197DOPC   H2Y24392   3.243   3.309  -1.575 -1.8004 -1.6595  0.0455
  197DOPC   C2324393   3.770   3.025  -1.538 -0.0703 -0.9014 -0.0991
  197DOPC   H3R24394   3.857   2.965  -1.503  0.3431  0.3601  1.1439
  197DOPC   H3S24395   3.692   2.947  -1.546  0.2602 -1.2995  0.4233
  197DOPC   C2424396   3.743   3.132  -1.423 -0.4655 -0.0659  0.1433
  197DOPC   H4R24397   3.644   3.175  -1.448 -0.2030 -0.7438 -2.3214
  197DOPC   H4S24398   3.816   3.216  -1.429 -1.6674  1.1895  2.0559
  197DOPC   C2524399   3.728   3.072  -1.285 -0.3650 -0.6519  0.0398
  197DOPC   H5R24400   3.827   3.031  -1.257  0.3847 -0.1267 -1.7154
  197DOPC   H5S24401   3.656   2.987  -1.289 -0.1660 -0.8351  0.3217
  197DOPC   C2624402   3.688   3.181  -1.185  0.2991 -0.0942  0.6595
  197DOPC   H6R24403   3.599   3.236  -1.220  0.3473 -0.1949  0.3815
  197DOPC   H6S24404   3.774   3.252  -1.188  2.2328 -2.3199 -0.0050
  197DOPC   C2724405   3.674   3.131  -1.040 -0.2497  0.9034 -0.4947
  197DOPC   H7R24406   3.663   3.218  -0.972 -0.6767 -0.0065  0.6396
  197DOPC   H7S24407   3.760   3.065  -1.015 -1.9563 -0.8928  1.0095
  197DOPC   C2824408   3.555   3.033  -1.020  0.2708 -0.3000  0.1101
  197DOPC   H8R24409   3.550   2.986  -0.919 -0.9838 -0.4473  0.0001
  197DOPC   H8S24410   3.579   2.955  -1.095  0.0601  1.0113 -1.3717
  197DOPC   C2924411   3.416   3.081  -1.059 -0.1639  0.3132  0.6437
  197DOPC   H9R24412   3.412   3.132  -1.156  0.8245  1.1467  1.0200
  197DOPC  C21024413   3.310   3.081  -0.985  0.3769 -0.4348 -0.1331
  197DOPC  H10R24414   3.219   3.135  -1.016  0.1998 -1.4619 -1.4411
  197DOPC  C21124415   3.289   3.044  -0.834 -0.7806  0.5153  0.3631
  197DOPC  H11R24416   3.367   2.970  -0.808  0.1469  1.9431  1.8593
  197DOPC  H11S24417   3.190   3.000  -0.812 -0.3205 -1.3495 -1.0858
  197DOPC  C21224418   3.311   3.169  -0.753  0.1642  0.0870  0.5760
  197DOPC  H12R24419   3.382   3.242  -0.796  0.9385 -0.5045  0.8245
  197DOPC  H12S24420   3.356   3.147  -0.654 -0.1222  0.4374  0.7874
  197DOPC  C21324421   3.179   3.241  -0.724 -0.4989  0.2451 -0.7155
  197DOPC  H13R24422   3.112   3.185  -0.656 -1.2040  2.8892  0.9150
  197DOPC  H13S24423   3.121   3.253  -0.818 -1.5599  1.1030  0.0373
  197DOPC  C21424424   3.194   3.384  -0.665 -0.3149  0.4145 -0.4608
  197DOPC  H14R24425   3.251   3.437  -0.744 -1.2182 -1.7288 -2.6797
  197DOPC  H14S24426   3.259   3.378  -0.576  1.9489  2.3446 -1.8917
  197DOPC  C21524427   3.065   3.460  -0.646 -0.2377 -0.5442 -0.7037
  197DOPC  H15R24428   2.994   3.394  -0.591  0.8390 -0.4367  0.8488
  197DOPC  H15S24429   3.005   3.483  -0.737 -1.2489  0.4512  0.1809
  197DOPC  C21624430   3.096   3.589  -0.566  0.0873  0.2419 -0.8748
  197DOPC  H16R24431   3.195   3.627  -0.598 -0.3815  1.7175 -0.6289
  197DOPC  H16S24432   3.094   3.549  -0.463 -1.5942  3.1561  0.3321
  197DOPC  C21724433   3.001   3.702  -0.603 -0.0390  0.4616  0.1825
  197DOPC  H17R24434   2.926   3.665  -0.676  1.0009  0.6228 -1.0047
  197DOPC  H17S24435   3.064   3.777  -0.655  1.1679  0.1380  1.1308
  197DOPC  C21824436   2.945   3.779  -0.483 -0.2318  0.3216  0.3646
  197DOPC  H18R24437   2.881   3.713  -0.421  0.9966 -1.3909 -0.1091
  197DOPC  H18S24438   2.894   3.874  -0.509 -0.7723  0.1639  0.8242
  197DOPC  H18T24439   3.029   3.822  -0.425  0.5653  0.2670 -0.7049
  197DOPC   C3324440   3.228   3.233  -1.368 -0.1451  0.3350  0.0172
  197DOPC   H3X24441   3.256   3.147  -1.304  0.0158  0.0961 -0.3703
  197DOPC   H3Y24442   3.122   3.210  -1.394  0.0783  1.0434 -1.6647
  197DOPC   C3424443   3.215   3.363  -1.284  0.2447 -0.0717  0.1900
  197DOPC   H4X24444   3.188   3.438  -1.361 -0.8677 -0.4314  0.2089
  197DOPC   H4Y24445   3.316   3.390  -1.248 -0.5666  0.9217  1.8796
  197DOPC   C3524446   3.104   3.351  -1.179  0.3477  0.6562  0.4253
  197DOPC   H5X24447   3.137   3.269  -1.111  0.7410  0.6888  0.2756
  197DOPC   H5Y24448   3.011   3.325  -1.233 -0.3437  0.1740  1.7799
  197DOPC   C3624449   3.078   3.475  -1.090  0.3163  0.0446  0.3998
  197DOPC   H6X24450   3.136   3.457  -0.996  1.0526  0.6916  0.0806
  197DOPC   H6Y24451   3.121   3.563  -1.142 -0.1230  0.6616  1.0701
  197DOPC   C3724452   2.931   3.516  -1.049 -0.1522 -0.1982  0.3459
  197DOPC   H7X24453   2.880   3.437  -0.991  0.2788  0.3702  1.5370
  197DOPC   H7Y24454   2.948   3.600  -0.979 -1.2236 -0.5285  1.0307
  197DOPC   C3824455   2.836   3.546  -1.163 -0.1903 -0.4211 -0.2625
  197DOPC   H8X24456   2.779   3.456  -1.194 -1.3841 -0.0209  0.7143
  197DOPC   H8Y24457   2.889   3.580  -1.254  3.7148  1.8201  2.5212
  197DOPC   C3924458   2.741   3.651  -1.110 -0.3406  0.7124 -0.3415
  197DOPC   H9X24459   2.774   3.755  -1.123  1.1449  0.3420  0.3244
  197DOPC  C31024460   2.642   3.631  -1.023  0.3772  0.8221  0.5632
  197DOPC  H10X24461   2.594   3.719  -0.978 -0.9406  0.6519 -0.4310
  197DOPC  C31124462   2.599   3.504  -0.958 -0.0585  0.6750  0.4170
  197DOPC  H11X24463   2.642   3.413  -1.005 -0.2956  1.9009 -2.3867
  197DOPC  H11Y24464   2.490   3.487  -0.971  0.0331  1.9855 -3.2001
  197DOPC  C31224465   2.643   3.489  -0.808  0.0655  0.4220 -0.9053
  197DOPC  H12X24466   2.749   3.522  -0.795  0.1903 -0.2768 -0.0723
  197DOPC  H12Y24467   2.644   3.379  -0.793  0.8253  0.7199  1.6382
  197DOPC  C31324468   2.552   3.563  -0.716  0.0335 -0.6328 -0.3835
  197DOPC  H13X24469   2.542   3.670  -0.744 -0.7095 -0.4516  0.5111
  197DOPC  H13Y24470   2.454   3.513  -0.726  0.1559 -0.9833  0.1099
  197DOPC  C31424471   2.594   3.555  -0.567  0.1046  0.3460 -0.7304
  197DOPC  H14X24472   2.573   3.456  -0.521 -2.3135  0.7545 -0.8136
  197DOPC  H14Y24473   2.704   3.568  -0.559  0.1081  0.4751 -1.0042
  197DOPC  C31524474   2.545   3.674  -0.481 -0.3918  0.1354 -0.3356
  197DOPC  H15X24475   2.435   3.665  -0.469 -0.7580  0.3995 -2.9514
  197DOPC  H15Y24476   2.574   3.764  -0.539  1.3543  0.0839  0.3736
  197DOPC  C31624477   2.605   3.688  -0.346  0.1728  0.8402 -0.1378
  197DOPC  H16X24478   2.709   3.650  -0.339 -0.6015 -1.7679 -1.4124
  197DOPC  H16Y24479   2.608   3.795  -0.314 -2.9350  0.3540  2.3975
  197DOPC  C31724480   2.528   3.611  -0.236 -0.0169 -0.3135  0.3281
  197DOPC  H17X24481   2.429   3.659  -0.216 -0.7504 -0.8292 -1.8308
  197DOPC  H17Y24482   2.500   3.512  -0.277 -0.0618  0.1709 -0.8726
  197DOPC  C31824483   2.608   3.584  -0.110 -0.1352 -0.3564 -0.7765
  197DOPC  H18X24484   2.549   3.520  -0.041 -1.5972  0.4379 -1.2521
  197DOPC  H18Y24485   2.701   3.533  -0.144  0.8459  1.5022 -0.9820
  197DOPC  H18Z24486   2.641   3.672  -0.052  2.9028 -0.7577 -1.7176
  198DOPC     N24487   1.638   2.304  -2.716 -1.3356  0.1256 -0.6114
  198DOPC   C1224488   1.577   2.242  -2.595  0.5081  0.4445  0.8246
  198DOPC  H12A24489   1.653   2.182  -2.548  2.0082  1.8927  0.3364
  198DOPC  H12B24490   1.501   2.174  -2.629 -0.4257  1.6054  0.5124
  198DOPC   C1324491   1.731   2.424  -2.682 -0.2044 -0.3972 -0.2604
  198DOPC  H13A24492   1.756   2.477  -2.773 -2.9909  0.7841 -0.4338
  198DOPC  H13B24493   1.685   2.491  -2.610 -0.2025  1.8103 -2.2071
  198DOPC  H13C24494   1.828   2.391  -2.647 -0.8012 -1.4705  0.4485
  198DOPC   C1424495   1.536   2.359  -2.812 -0.1006 -0.0943  0.2180
  198DOPC  H14A24496   1.461   2.407  -2.751 -1.7004 -1.5604 -0.4946
  198DOPC  H14B24497   1.586   2.421  -2.885  2.8083 -1.3020  1.0310
  198DOPC  H14C24498   1.487   2.281  -2.869  0.8090 -1.6893  1.5347
  198DOPC   C1524499   1.721   2.208  -2.794 -0.1613  0.2655  1.2769
  198DOPC  H15A24500   1.794   2.161  -2.729  0.2886 -1.9002 -0.6497
  198DOPC  H15B24501   1.777   2.253  -2.874 -4.3269  0.1084 -2.0857
  198DOPC  H15C24502   1.653   2.137  -2.840  1.1810 -0.0432 -0.3161
  198DOPC   C1124503   1.506   2.327  -2.490 -0.2716 -0.1483 -0.2238
  198DOPC  H11A24504   1.493   2.259  -2.403  0.2182 -1.6974 -1.3174
  198DOPC  H11B24505   1.579   2.405  -2.461  1.8431 -1.1830 -2.3680
  198DOPC     P24506   1.256   2.307  -2.564  0.0304  0.1031  0.0575
  198DOPC   O1324507   1.268   2.225  -2.687 -0.5776  0.2360 -0.4367
  198DOPC   O1424508   1.136   2.393  -2.573  0.5848 -0.2009 -0.4525
  198DOPC   O1224509   1.392   2.393  -2.553 -0.4305 -0.3137  0.3569
  198DOPC   O1124510   1.248   2.228  -2.426 -0.0571  0.2841  0.9498
  198DOPC    C124511   1.181   2.294  -2.319 -0.1282 -0.1797 -0.1930
  198DOPC    HA24512   1.074   2.305  -2.345 -0.1586  3.1829  0.7872
  198DOPC    HB24513   1.228   2.392  -2.296 -1.4216  0.4627 -0.2003
  198DOPC    C224514   1.196   2.211  -2.184  0.3567  0.1291  0.0622
  198DOPC    HS24515   1.135   2.264  -2.107 -0.1789 -1.5443  0.8384
  198DOPC   O2124516   1.335   2.206  -2.142  0.4687  0.4281 -0.3561
  198DOPC   C2124517   1.391   2.306  -2.093 -0.1512 -0.1725  0.0232
  198DOPC   O2224518   1.336   2.413  -2.081 -0.3876 -1.0077 -0.1285
  198DOPC   C2224519   1.524   2.254  -2.035 -0.0945  0.3829 -0.2038
  198DOPC   H2R24520   1.598   2.264  -2.117  2.4610 -2.4518  1.5767
  198DOPC   H2S24521   1.515   2.147  -2.008  1.9544  0.3819  0.6366
  198DOPC    C324522   1.136   2.068  -2.190 -0.0721  0.4802  0.2946
  198DOPC    HX24523   1.193   2.003  -2.260 -2.4193  1.3214 -2.6116
  198DOPC    HY24524   1.033   2.068  -2.234  0.8802 -0.0205 -2.1248
  198DOPC   O3124525   1.136   1.990  -2.067 -0.6189 -0.2955 -0.4298
  198DOPC   C3124526   1.040   2.035  -1.979  0.2116  0.5615 -0.4968
  198DOPC   O3224527   0.965   2.126  -1.999  0.1076  0.4681  0.1947
  198DOPC   C3224528   1.041   1.930  -1.863 -0.4590  0.3983 -0.1686
  198DOPC   H2X24529   0.943   1.878  -1.869 -2.2566  3.2531  1.7082
  198DOPC   H2Y24530   1.133   1.868  -1.867 -1.5858 -1.2766 -2.0006
  198DOPC   C2324531   1.568   2.347  -1.921 -0.1908  0.1913 -0.9254
  198DOPC   H3R24532   1.567   2.450  -1.964 -0.9581  1.0304  0.9616
  198DOPC   H3S24533   1.674   2.320  -1.902 -0.9175 -1.7269  0.7721
  198DOPC   C2424534   1.486   2.332  -1.793  0.1322 -0.4794 -0.4779
  198DOPC   H4R24535   1.489   2.230  -1.748 -1.6260 -0.1780  0.3985
  198DOPC   H4S24536   1.380   2.357  -1.813  0.2828  1.4460  0.8415
  198DOPC   C2524537   1.538   2.422  -1.679 -0.2512 -0.2958  0.2607
  198DOPC   H5R24538   1.519   2.526  -1.711 -0.6794 -0.8605 -1.4237
  198DOPC   H5S24539   1.646   2.400  -1.666 -0.4218 -0.5667  1.2925
  198DOPC   C2624540   1.456   2.400  -1.553  0.2489 -0.2495 -0.2662
  198DOPC   H6R24541   1.481   2.302  -1.506  1.1951 -0.5930 -1.4394
  198DOPC   H6S24542   1.349   2.405  -1.585 -0.2202  1.4037  1.4089
  198DOPC   C2724543   1.476   2.520  -1.456  0.2526 -0.6519  0.1233
  198DOPC   H7R24544   1.455   2.618  -1.503 -0.8283 -1.6566 -1.6074
  198DOPC   H7S24545   1.585   2.523  -1.433  0.0928 -1.7760  1.1496
  198DOPC   C2824546   1.401   2.509  -1.318 -0.6238 -0.8792  0.6295
  198DOPC   H8R24547   1.296   2.510  -1.353  0.5055 -1.3697 -3.3143
  198DOPC   H8S24548   1.421   2.591  -1.245  1.6902 -2.1532  1.5239
  198DOPC   C2924549   1.423   2.379  -1.241  0.6716 -0.1533 -0.0885
  198DOPC   H9R24550   1.379   2.299  -1.302 -0.9612  1.9166 -1.7835
  198DOPC  C21024551   1.476   2.361  -1.120 -0.8957 -0.2511  0.2472
  198DOPC  H10R24552   1.488   2.261  -1.078 -0.9657  0.4719  2.0677
  198DOPC  C21124553   1.538   2.467  -1.027  0.3150  0.0813  0.2280
  198DOPC  H11R24554   1.472   2.480  -0.938  0.7036  2.9952  0.1928
  198DOPC  H11S24555   1.542   2.567  -1.075  0.1039  0.2012  0.4565
  198DOPC  C21224556   1.682   2.444  -0.979  0.7854  0.8408  0.2055
  198DOPC  H12R24557   1.753   2.459  -1.063 -0.2167 -0.6382 -0.9804
  198DOPC  H12S24558   1.687   2.334  -0.958 -0.9323  0.4672 -1.1280
  198DOPC  C21324559   1.733   2.524  -0.862 -0.4715 -0.2116  0.0339
  198DOPC  H13R24560   1.711   2.633  -0.862  2.0831  0.3585  0.7309
  198DOPC  H13S24561   1.840   2.506  -0.883 -0.6303  0.1174 -1.0974
  198DOPC  C21424562   1.707   2.473  -0.717  0.3239 -0.3375  0.0433
  198DOPC  H14R24563   1.598   2.450  -0.720  0.3813 -0.5935 -0.0582
  198DOPC  H14S24564   1.728   2.560  -0.651 -0.8257  0.5157 -0.6706
  198DOPC  C21524565   1.776   2.345  -0.675  0.6073 -0.4806 -0.0684
  198DOPC  H15R24566   1.887   2.359  -0.677  0.7602 -1.4607  0.9325
  198DOPC  H15S24567   1.746   2.271  -0.751  1.5890  0.2466 -1.1968
  198DOPC  C21624568   1.729   2.298  -0.531  0.2351 -1.0691  0.4465
  198DOPC  H16R24569   1.618   2.306  -0.521  0.1631  1.8344 -1.5068
  198DOPC  H16S24570   1.770   2.375  -0.461 -1.5957  1.9159 -1.5270
  198DOPC  C21724571   1.781   2.163  -0.495 -0.1151 -0.5544 -0.4288
  198DOPC  H17R24572   1.890   2.166  -0.476 -0.0343 -1.1867 -0.7490
  198DOPC  H17S24573   1.775   2.093  -0.581  0.1225  1.4595 -2.1540
  198DOPC  C21824574   1.726   2.101  -0.371 -0.0263 -0.1786  0.2242
  198DOPC  H18R24575   1.765   2.000  -0.346  0.3258  0.0987  0.8288
  198DOPC  H18S24576   1.616   2.095  -0.387  0.1294  2.2967 -2.5612
  198DOPC  H18T24577   1.745   2.168  -0.284  0.1365 -0.6532  0.5589
  198DOPC   C3324578   1.052   2.001  -1.723  0.3326  0.1397 -0.1222
  198DOPC   H3X24579   0.974   2.077  -1.705  1.4247  1.0737  0.8756
  198DOPC   H3Y24580   1.156   2.037  -1.703 -0.3054  1.1292  1.6388
  198DOPC   C3424581   1.010   1.894  -1.620 -0.2939  0.7736  0.1267
  198DOPC   H4X24582   1.089   1.816  -1.619  1.4285  2.3268 -2.2256
  198DOPC   H4Y24583   0.907   1.856  -1.637  0.0327  0.3337 -0.9411
  198DOPC   C3524584   1.012   1.949  -1.480  0.0620  0.9479  0.2357
  198DOPC   H5X24585   0.955   2.044  -1.470 -0.3849  0.5100  2.2303
  198DOPC   H5Y24586   1.119   1.954  -1.451 -0.1212 -0.7005  1.3368
  198DOPC   C3624587   0.950   1.837  -1.388 -0.1738 -0.3259 -0.3832
  198DOPC   H6X24588   0.845   1.818  -1.417  0.0242 -0.1539 -1.2643
  198DOPC   H6Y24589   1.021   1.752  -1.400 -0.3666 -0.6006  0.4072
  198DOPC   C3724590   0.963   1.870  -1.240  0.7459  0.1078 -0.4414
  198DOPC   H7X24591   1.062   1.913  -1.214  0.9457 -1.1905  1.0809
  198DOPC   H7Y24592   0.887   1.947  -1.216  0.9082  0.4636 -1.0412
  198DOPC   C3824593   0.948   1.747  -1.146 -0.4701 -0.4280  0.0475
  198DOPC   H8X24594   0.994   1.667  -1.208  0.9420  0.3949 -0.0160
  198DOPC   H8Y24595   0.839   1.727  -1.148 -0.8982  1.4106  1.7993
  198DOPC   C3924596   0.991   1.766  -1.004 -0.1723  0.1069 -0.1467
  198DOPC   H9X24597   1.064   1.848  -0.998  0.7311 -0.5325 -1.6182
  198DOPC  C31024598   0.946   1.714  -0.888 -0.2024  0.1575  0.8327
  198DOPC  H10X24599   0.995   1.748  -0.795 -1.3428 -1.4422  2.0784
  198DOPC  C31124600   0.843   1.616  -0.849 -0.1388 -0.0524 -0.4184
  198DOPC  H11X24601   0.845   1.532  -0.921  0.7980 -0.4316  0.0316
  198DOPC  H11Y24602   0.742   1.663  -0.847 -0.0763  0.0625  0.2156
  198DOPC  C31224603   0.857   1.551  -0.712  0.6666  0.2365 -0.9613
  198DOPC  H12X24604   0.950   1.491  -0.700 -0.0573 -0.3923  2.2527
  198DOPC  H12Y24605   0.775   1.482  -0.685  0.2054  1.4903  1.0465
  198DOPC  C31324606   0.860   1.654  -0.601 -0.0895  0.1396  0.1125
  198DOPC  H13X24607   0.957   1.709  -0.599 -0.3174  0.5307  0.5210
  198DOPC  H13Y24608   0.785   1.736  -0.599 -0.0854  0.1365  0.5337
  198DOPC  C31424609   0.846   1.593  -0.462  0.3554  0.2001  0.1912
  198DOPC  H14X24610   0.899   1.496  -0.453 -0.1207 -0.2385 -1.4371
  198DOPC  H14Y24611   0.892   1.649  -0.378 -0.7051 -2.6096  2.8448
  198DOPC  C31524612   0.701   1.587  -0.411 -0.0884  0.2747 -0.1477
  198DOPC  H15X24613   0.642   1.514  -0.470 -0.6948  1.5169 -1.1187
  198DOPC  H15Y24614   0.667   1.692  -0.419 -0.2483  0.0920 -3.7507
  198DOPC  C31624615   0.685   1.551  -0.262 -0.1121 -0.4204 -0.5558
  198DOPC  H16X24616   0.756   1.621  -0.214  1.4939 -0.2081 -3.0798
  198DOPC  H16Y24617   0.583   1.576  -0.223  0.7358  0.6581  1.0973
  198DOPC  C31724618   0.720   1.403  -0.231 -0.2077 -0.7491  0.0550
  198DOPC  H17X24619   0.669   1.344  -0.310  1.3006  0.4256 -1.8616
  198DOPC  H17Y24620   0.830   1.391  -0.231  0.2844  2.7017 -2.0068
  198DOPC  C31824621   0.669   1.364  -0.092 -0.5425  1.1363 -0.3296
  198DOPC  H18X24622   0.698   1.447  -0.024  0.0807  0.0870  0.7297
  198DOPC  H18Y24623   0.558   1.359  -0.097 -0.5649  0.4980  0.5685
  198DOPC  H18Z24624   0.699   1.268  -0.045 -1.1393  0.3604 -1.4649
  199DOPC     N24625   1.541  -2.232  -2.828 -0.4632  0.3493  0.8784
  199DOPC   C1224626   1.430  -2.263  -2.728 -0.2825  0.7207 -0.8684
  199DOPC  H12A24627   1.460  -2.352  -2.675  0.4645  0.1219 -2.2278
  199DOPC  H12B24628   1.345  -2.283  -2.792  0.3788  3.1590 -2.6830
  199DOPC   C1324629   1.671  -2.193  -2.765 -0.0921 -0.2765  1.2709
  199DOPC  H13A24630   1.734  -2.277  -2.739  0.7747 -0.1680 -0.3228
  199DOPC  H13B24631   1.722  -2.129  -2.836 -0.2151 -0.6233  0.8632
  199DOPC  H13C24632   1.653  -2.121  -2.686  0.8427  1.1056  0.2912
  199DOPC   C1424633   1.508  -2.119  -2.914  0.4402 -0.3687  0.6183
  199DOPC  H14A24634   1.487  -2.033  -2.852  0.0794 -0.6091  0.8426
  199DOPC  H14B24635   1.582  -2.094  -2.988  0.1711 -0.5741  0.2732
  199DOPC  H14C24636   1.414  -2.126  -2.967 -0.0188  1.0658  1.1891
  199DOPC   C1524637   1.563  -2.361  -2.915 -0.8686 -0.2693  0.7116
  199DOPC  H15A24638   1.624  -2.332  -2.999 -1.0063 -1.2838  0.2410
  199DOPC  H15B24639   1.476  -2.400  -2.967 -0.3787  1.2159 -1.3212
  199DOPC  H15C24640   1.608  -2.446  -2.866  0.8535 -2.4987 -4.0476
  199DOPC   C1124641   1.397  -2.155  -2.622  0.6407 -0.0449 -0.9480
  199DOPC  H11A24642   1.335  -2.199  -2.541  1.2935  1.8821  0.7179
  199DOPC  H11B24643   1.488  -2.121  -2.566  1.6231  0.5409 -2.8081
  199DOPC     P24644   1.183  -2.024  -2.710 -0.1056  0.2464 -0.1556
  199DOPC   O1324645   1.117  -2.155  -2.704 -0.1110 -0.4187 -0.1322
  199DOPC   O1424646   1.157  -1.945  -2.834  0.2517  0.0140 -0.1171
  199DOPC   O1224647   1.339  -2.042  -2.683  0.0200 -0.0886  1.1755
  199DOPC   O1124648   1.155  -1.937  -2.583 -0.5016 -0.2387 -0.7576
  199DOPC    C124649   1.234  -1.839  -2.518 -0.8459 -0.5559  0.0939
  199DOPC    HA24650   1.178  -1.750  -2.483  1.4530  0.3894  1.6602
  199DOPC    HB24651   1.307  -1.796  -2.591 -1.0950 -0.3612 -0.0437
  199DOPC    C224652   1.303  -1.889  -2.392  0.2702 -0.1401 -0.2190
  199DOPC    HS24653   1.363  -1.976  -2.427 -0.0494 -1.3186  1.9839
  199DOPC   O2124654   1.196  -1.927  -2.303 -0.0396  0.1329 -0.4921
  199DOPC   C2124655   1.229  -2.018  -2.214 -0.7821  0.3384  0.1016
  199DOPC   O2224656   1.331  -2.083  -2.206  0.1019  0.1456  0.7142
  199DOPC   C2224657   1.114  -2.016  -2.112  0.3394 -0.2247  0.4696
  199DOPC   H2R24658   1.050  -2.105  -2.129  1.1361 -1.2085  2.2537
  199DOPC   H2S24659   1.059  -1.920  -2.111  0.6954 -0.0020  2.4672
  199DOPC    C324660   1.402  -1.781  -2.326  0.0105  0.1569  0.0249
  199DOPC    HX24661   1.349  -1.683  -2.316  0.6327  0.6560 -1.3045
  199DOPC    HY24662   1.485  -1.748  -2.391 -0.7221  1.2736 -0.3755
  199DOPC   O3124663   1.451  -1.821  -2.196 -0.4566  0.1307  0.3732
  199DOPC   C3124664   1.563  -1.901  -2.191  0.3137  0.2923  0.0450
  199DOPC   O3224665   1.620  -1.939  -2.288 -0.6420 -0.0878  0.1675
  199DOPC   C3224666   1.591  -1.945  -2.042  0.2677 -0.0849  0.2031
  199DOPC   H2X24667   1.622  -1.858  -1.979  1.5148 -0.8216  0.6224
  199DOPC   H2Y24668   1.494  -1.985  -2.004  0.5850 -2.1219 -1.0413
  199DOPC   C2324669   1.155  -2.033  -1.967  0.0405  0.7839 -0.5287
  199DOPC   H3R24670   1.236  -1.969  -1.924 -0.3924 -0.9115  3.2446
  199DOPC   H3S24671   1.180  -2.140  -1.951 -1.5887  0.4703  0.1763
  199DOPC   C2424672   1.045  -2.001  -1.875  0.2594  0.5698 -1.5284
  199DOPC   H4R24673   0.962  -2.075  -1.875 -1.0176  1.9555 -1.7143
  199DOPC   H4S24674   1.004  -1.899  -1.893 -0.0112  0.8892  0.5569
  199DOPC   C2524675   1.104  -1.992  -1.732 -0.3763  0.4343  0.0176
  199DOPC   H5R24676   1.181  -1.912  -1.726 -0.1048  0.1739  0.0773
  199DOPC   H5S24677   1.147  -2.093  -1.713 -0.3686  0.4721  0.1983
  199DOPC   C2624678   1.000  -1.969  -1.625 -0.3220 -0.2791  0.8739
  199DOPC   H6R24679   0.912  -2.023  -1.667  0.6478 -0.9170 -0.4029
  199DOPC   H6S24680   0.972  -1.863  -1.604  0.0620  0.0443 -0.1990
  199DOPC   C2724681   1.023  -2.039  -1.488 -0.0679 -0.2642 -0.2805
  199DOPC   H7R24682   1.050  -2.140  -1.525  0.5698 -0.3560  0.4231
  199DOPC   H7S24683   0.928  -2.041  -1.430 -0.0680 -1.9281 -0.2754
  199DOPC   C2824684   1.144  -1.987  -1.408  0.4504  0.9338 -0.1137
  199DOPC   H8R24685   1.232  -2.001  -1.474  1.9390  0.9301  1.7872
  199DOPC   H8S24686   1.173  -2.051  -1.322 -0.3172  2.2067  1.1416
  199DOPC   C2924687   1.134  -1.841  -1.378 -0.6117 -0.7158  0.4303
  199DOPC   H9R24688   1.143  -1.772  -1.463 -1.8336  0.6945  1.3878
  199DOPC  C21024689   1.080  -1.784  -1.266  0.6225 -0.4205  0.9870
  199DOPC  H10R24690   1.051  -1.678  -1.265 -1.9995 -1.0678  2.7392
  199DOPC  C21124691   1.048  -1.848  -1.138  0.2460 -0.0608  0.3354
  199DOPC  H11R24692   1.086  -1.790  -1.051  0.1294 -0.9335  0.9875
  199DOPC  H11S24693   1.111  -1.939  -1.131  3.2434  1.5920 -2.3925
  199DOPC  C21224694   0.899  -1.888  -1.112 -0.7252 -1.0700  0.1904
  199DOPC  H12R24695   0.865  -1.954  -1.194  1.8434 -2.4315  0.1104
  199DOPC  H12S24696   0.836  -1.796  -1.112 -0.1369 -0.6494 -0.5886
  199DOPC  C21324697   0.877  -1.947  -0.968 -0.0468 -0.0712  0.0172
  199DOPC  H13R24698   0.944  -2.032  -0.945 -1.8402 -1.8836 -1.1493
  199DOPC  H13S24699   0.777  -1.994  -0.957  0.6379 -1.2841  1.3860
  199DOPC  C21424700   0.877  -1.840  -0.869  0.2284 -0.6283  0.0748
  199DOPC  H14R24701   0.795  -1.766  -0.876  1.1224  0.2292 -2.0181
  199DOPC  H14S24702   0.967  -1.776  -0.879 -0.7598  1.1749  1.9017
  199DOPC  C21524703   0.872  -1.906  -0.726  0.1023 -0.1993  0.0451
  199DOPC  H15R24704   0.810  -1.998  -0.723  1.2934 -1.0322 -0.0855
  199DOPC  H15S24705   0.830  -1.835  -0.651 -1.0224 -0.1786 -0.5825
  199DOPC  C21624706   1.011  -1.956  -0.684 -0.6278  0.9344  0.0472
  199DOPC  H16R24707   1.081  -1.969  -0.769  0.2610  0.8893  0.7647
  199DOPC  H16S24708   1.001  -2.062  -0.651 -0.3119  0.6110 -0.8612
  199DOPC  C21724709   1.077  -1.885  -0.567 -0.3704 -0.1305  0.1650
  199DOPC  H17R24710   1.109  -1.783  -0.598  1.7811 -1.2257 -1.5825
  199DOPC  H17S24711   1.168  -1.939  -0.533 -0.8729 -1.0069  0.1256
  199DOPC  C21824712   0.990  -1.872  -0.442 -0.1325  0.8518 -0.1525
  199DOPC  H18R24713   0.912  -1.793  -0.442 -0.5907  0.4091  0.7061
  199DOPC  H18S24714   1.061  -1.847  -0.360 -0.1874  1.7686 -0.3685
  199DOPC  H18T24715   0.950  -1.975  -0.435  1.3900  0.2148 -0.4794
  199DOPC   C3324716   1.692  -2.056  -2.019  0.5215 -0.2313 -0.1907
  199DOPC   H3X24717   1.794  -2.015  -2.040  0.8117 -0.4615  0.7491
  199DOPC   H3Y24718   1.680  -2.135  -2.096 -0.3341 -0.4262  0.1378
  199DOPC   C3424719   1.687  -2.118  -1.877  0.4529 -0.4743 -0.8397
  199DOPC   H4X24720   1.750  -2.210  -1.872 -0.0022 -0.7314  0.4134
  199DOPC   H4Y24721   1.582  -2.144  -1.855  0.9485 -2.8974 -1.0239
  199DOPC   C3524722   1.735  -2.018  -1.764  0.0882  0.0084 -0.7747
  199DOPC   H5X24723   1.713  -2.056  -1.662 -0.3373  2.1125 -0.0163
  199DOPC   H5Y24724   1.678  -1.923  -1.777  0.6390  0.2092 -1.8147
  199DOPC   C3624725   1.887  -1.982  -1.771 -0.0064  0.1398 -0.2468
  199DOPC   H6X24726   1.945  -2.077  -1.773 -0.8902 -0.4022 -1.2354
  199DOPC   H6Y24727   1.911  -1.931  -1.867  2.9760  1.9441  1.2808
  199DOPC   C3724728   1.937  -1.888  -1.655  0.5513  0.0845  0.2949
  199DOPC   H7X24729   2.044  -1.875  -1.681  0.7790 -0.3771  0.9815
  199DOPC   H7Y24730   1.886  -1.789  -1.662  0.0316 -0.2085 -0.0856
  199DOPC   C3824731   1.918  -1.944  -1.517  0.1329 -0.0936 -1.0170
  199DOPC   H8X24732   1.971  -2.040  -1.497  0.8891  0.7246  1.2546
  199DOPC   H8Y24733   1.809  -1.966  -1.509  0.5899 -2.2643  0.3342
  199DOPC   C3924734   1.973  -1.843  -1.412  0.2613  0.0993 -0.2243
  199DOPC   H9X24735   2.011  -1.756  -1.468  1.0774  0.0689  0.2598
  199DOPC  C31024736   1.969  -1.852  -1.279  0.4332 -0.1252 -0.1858
  199DOPC  H10X24737   2.016  -1.776  -1.214  0.2617  0.0061 -0.2140
  199DOPC  C31124738   1.902  -1.973  -1.211  0.0974  0.0163  0.2021
  199DOPC  H11X24739   1.981  -2.043  -1.179  0.5821  0.2868 -0.3787
  199DOPC  H11Y24740   1.827  -2.017  -1.280 -1.0261  0.9671  0.7758
  199DOPC  C31224741   1.831  -1.941  -1.080  0.3288  0.1494  0.2102
  199DOPC  H12X24742   1.803  -2.045  -1.053  1.2200 -0.4277 -1.0187
  199DOPC  H12Y24743   1.737  -1.884  -1.099 -0.0960 -0.6871 -0.2532
  199DOPC  C31324744   1.906  -1.886  -0.959 -0.1148 -0.4182 -0.3910
  199DOPC  H13X24745   2.001  -1.935  -0.927 -0.0245 -0.8204 -1.2300
  199DOPC  H13Y24746   1.943  -1.786  -0.991 -0.1227 -0.7060 -1.3428
  199DOPC  C31424747   1.816  -1.867  -0.833 -0.3539  0.0293 -0.5338
  199DOPC  H14X24748   1.751  -1.778  -0.846  2.2292  2.3062  1.0760
  199DOPC  H14Y24749   1.754  -1.959  -0.827 -0.3740 -0.0233 -1.4060
  199DOPC  C31524750   1.898  -1.841  -0.707 -0.4673 -0.2370 -0.6546
  199DOPC  H15X24751   1.832  -1.792  -0.633  0.1491 -0.4619  0.0580
  199DOPC  H15Y24752   1.980  -1.774  -0.743  1.0938 -3.6396 -4.2271
  199DOPC  C31624753   1.951  -1.969  -0.644  0.0007  0.5299  0.3024
  199DOPC  H16X24754   1.870  -2.043  -0.624  0.6041  0.0404  0.9978
  199DOPC  H16Y24755   2.023  -2.018  -0.713 -0.9301  0.1218 -0.3959
  199DOPC  C31724756   2.016  -1.951  -0.512 -0.7245 -0.2730 -0.0771
  199DOPC  H17X24757   2.076  -2.043  -0.496 -3.4348 -1.9669  1.1266
  199DOPC  H17Y24758   2.084  -1.863  -0.513 -1.5042  0.3350 -0.4037
  199DOPC  C31824759   1.918  -1.937  -0.399 -0.2034 -0.3231 -0.3632
  199DOPC  H18X24760   1.868  -1.838  -0.407 -0.8915 -0.6364 -0.0173
  199DOPC  H18Y24761   1.831  -2.005  -0.409 -1.2727  1.0415 -0.5300
  199DOPC  H18Z24762   1.983  -1.945  -0.309  0.5835 -2.5329 -1.0551
  200DOPC     N24763   3.327  -1.300  -2.643 -0.0066  0.3636  0.2164
  200DOPC   C1224764   3.373  -1.371  -2.526 -0.7427  0.0937  0.0005
  200DOPC  H12A24765   3.296  -1.414  -2.463 -1.6462 -0.2145 -1.2826
  200DOPC  H12B24766   3.420  -1.297  -2.463  2.4529 -0.2172 -1.8312
  200DOPC   C1324767   3.436  -1.222  -2.703  0.3350  0.3891  0.4542
  200DOPC  H13A24768   3.409  -1.159  -2.787  1.9924 -0.2434 -0.5954
  200DOPC  H13B24769   3.487  -1.179  -2.618  1.4941  2.7970 -1.3372
  200DOPC  H13C24770   3.509  -1.289  -2.746 -0.3134  0.0564 -0.1519
  200DOPC   C1424771   3.213  -1.209  -2.596 -0.5459  0.3603  0.9438
  200DOPC  H14A24772   3.251  -1.146  -2.517 -1.0439  0.0188  1.4620
  200DOPC  H14B24773   3.181  -1.145  -2.677 -1.9090 -0.5985  0.6916
  200DOPC  H14C24774   3.125  -1.253  -2.552 -0.4073  0.5736  1.4360
  200DOPC   C1524775   3.275  -1.402  -2.737 -0.1695 -0.4399  0.4022
  200DOPC  H15A24776   3.233  -1.365  -2.829 -0.6908  1.9771  1.5368
  200DOPC  H15B24777   3.202  -1.457  -2.679 -0.4242 -1.4230 -0.8184
  200DOPC  H15C24778   3.351  -1.473  -2.766  0.1909 -1.1874  2.8765
  200DOPC   C1124779   3.478  -1.480  -2.533 -0.3761 -0.6232  0.3656
  200DOPC  H11A24780   3.514  -1.521  -2.436  0.5840  0.4086  0.4610
  200DOPC  H11B24781   3.443  -1.564  -2.597 -3.9859  2.1541 -1.7012
  200DOPC     P24782   3.701  -1.334  -2.508  0.2584  0.2236  0.2102
  200DOPC   O1324783   3.628  -1.215  -2.457 -0.5629 -0.5272  0.1364
  200DOPC   O1424784   3.827  -1.316  -2.582 -0.2792 -0.2506  0.0168
  200DOPC   O1224785   3.596  -1.422  -2.593 -0.5278  0.7804  0.8095
  200DOPC   O1124786   3.738  -1.417  -2.384 -0.1249 -0.2820  0.2963
  200DOPC    C124787   3.847  -1.415  -2.298  0.3804  0.0459  1.2507
  200DOPC    HA24788   3.865  -1.308  -2.276  0.4472  0.2803  0.1425
  200DOPC    HB24789   3.935  -1.454  -2.354 -0.1676 -0.0767  0.4605
  200DOPC    C224790   3.822  -1.497  -2.168  0.2494 -0.8997 -0.1607
  200DOPC    HS24791   3.818  -1.603  -2.198 -1.0763 -1.8490  2.9957
  200DOPC   O2124792   3.694  -1.455  -2.094 -0.4309  0.1677 -0.1217
  200DOPC   C2124793   3.656  -1.562  -2.012  0.8927 -0.7738  0.5765
  200DOPC   O2224794   3.687  -1.675  -2.027  0.2064 -0.0209 -0.2332
  200DOPC   C2224795   3.559  -1.508  -1.909 -0.3450 -0.4611 -0.2589
  200DOPC   H2R24796   3.467  -1.570  -1.916 -1.1039  0.3657  1.7929
  200DOPC   H2S24797   3.525  -1.408  -1.944 -3.2101 -1.6961 -1.3690
  200DOPC    C324798   3.947  -1.478  -2.080  0.2739 -0.1543 -0.1478
  200DOPC    HX24799   3.953  -1.371  -2.049  1.8733 -0.0282 -0.7832
  200DOPC    HY24800   4.038  -1.513  -2.132 -0.3607 -1.8831 -0.1373
  200DOPC   O3124801   3.939  -1.551  -1.957  0.5063 -0.2081 -0.4606
  200DOPC   C3124802   3.985  -1.676  -1.958 -0.5018 -0.5710 -0.2548
  200DOPC   O3224803   4.061  -1.720  -2.046 -0.0739  0.1084  0.0874
  200DOPC   C3224804   3.950  -1.746  -1.828  0.3606 -0.3232  1.0465
  200DOPC   H2X24805   3.993  -1.683  -1.747 -1.1117  2.0640  0.0979
  200DOPC   H2Y24806   3.839  -1.755  -1.824  0.2350 -0.8541 -1.6066
  200DOPC   C2324807   3.607  -1.496  -1.759 -0.0233  0.1258 -0.3363
  200DOPC   H3R24808   3.668  -1.403  -1.754 -0.4836  0.5520 -2.0900
  200DOPC   H3S24809   3.662  -1.588  -1.730 -0.6597 -0.4706 -0.9821
  200DOPC   C2424810   3.482  -1.485  -1.670 -0.0714  0.3715 -0.1382
  200DOPC   H4R24811   3.439  -1.586  -1.655  0.1771 -0.2788 -3.2103
  200DOPC   H4S24812   3.401  -1.425  -1.717 -0.9410 -0.2811  0.4928
  200DOPC   C2524813   3.510  -1.424  -1.534 -0.1020 -0.3273 -0.0793
  200DOPC   H5R24814   3.418  -1.435  -1.473 -0.3204  2.4664  0.2247
  200DOPC   H5S24815   3.525  -1.317  -1.560 -3.1097  0.2940  0.3410
  200DOPC   C2624816   3.626  -1.472  -1.446 -1.1626 -0.3865 -0.2450
  200DOPC   H6R24817   3.723  -1.444  -1.493 -0.6209  1.1588  1.6426
  200DOPC   H6S24818   3.620  -1.581  -1.423  2.5407 -0.2212  2.5281
  200DOPC   C2724819   3.623  -1.404  -1.307  0.2098 -0.3966 -0.3490
  200DOPC   H7R24820   3.525  -1.430  -1.262 -0.1847 -0.3738 -1.1701
  200DOPC   H7S24821   3.624  -1.294  -1.319  2.5872 -0.3815 -0.5550
  200DOPC   C2824822   3.729  -1.454  -1.202  0.3566 -0.1056 -0.3565
  200DOPC   H8R24823   3.746  -1.563  -1.211  0.3590  0.0516 -3.7818
  200DOPC   H8S24824   3.687  -1.432  -1.101  0.7178  0.2594 -0.2812
  200DOPC   C2924825   3.858  -1.389  -1.240  0.3171  0.5471 -0.4095
  200DOPC   H9R24826   3.916  -1.447  -1.312 -2.1856 -1.6384 -0.8262
  200DOPC  C21024827   3.922  -1.288  -1.177  0.1110 -0.6335  0.0669
  200DOPC  H10R24828   4.022  -1.258  -1.212  0.1394  1.4282  1.6833
  200DOPC  C21124829   3.873  -1.187  -1.077  0.4947  0.3380 -0.1370
  200DOPC  H11R24830   3.771  -1.211  -1.042  0.6474 -3.3483 -1.7620
  200DOPC  H11S24831   3.874  -1.083  -1.116 -1.5442  1.2839  2.1001
  200DOPC  C21224832   3.953  -1.189  -0.950 -0.0217 -0.2694 -0.0453
  200DOPC  H12R24833   4.055  -1.155  -0.980 -0.1261 -1.1400 -1.4380
  200DOPC  H12S24834   3.962  -1.291  -0.908 -2.0546 -1.3685 -2.0859
  200DOPC  C21324835   3.899  -1.092  -0.847  0.1861  0.3905 -0.6792
  200DOPC  H13R24836   3.848  -1.148  -0.766  1.7767  0.2377  0.2727
  200DOPC  H13S24837   3.821  -1.025  -0.888  0.7259  1.1568 -0.4880
  200DOPC  C21424838   4.011  -0.999  -0.788  0.7032  0.0900 -0.1325
  200DOPC  H14R24839   4.048  -0.938  -0.873 -1.5661  0.2883 -1.0357
  200DOPC  H14S24840   4.094  -1.069  -0.764 -0.0728 -1.4021 -1.5390
  200DOPC  C21524841   3.968  -0.920  -0.671 -0.1887 -0.3536  0.0081
  200DOPC  H15R24842   3.901  -0.840  -0.711 -0.6637 -0.0657  1.3113
  200DOPC  H15S24843   4.057  -0.863  -0.634  0.1432  0.4684 -1.9321
  200DOPC  C21624844   3.906  -0.996  -0.552 -0.5307  0.4363 -0.0174
  200DOPC  H16R24845   3.989  -1.055  -0.509  0.3444 -0.3725 -2.6430
  200DOPC  H16S24846   3.827  -1.064  -0.589 -1.9944  2.1005 -0.1267
  200DOPC  C21724847   3.849  -0.904  -0.446 -0.2122  0.0709 -0.6316
  200DOPC  H17R24848   3.757  -0.861  -0.492 -0.2657  0.6443  0.0122
  200DOPC  H17S24849   3.916  -0.818  -0.424  1.5720 -1.5072  0.3341
  200DOPC  C21824850   3.811  -0.984  -0.321 -0.3300  0.0259 -0.4713
  200DOPC  H18R24851   3.871  -1.069  -0.283  0.0191  1.2941  1.9937
  200DOPC  H18S24852   3.706  -1.013  -0.343  0.4405 -0.5703 -3.8839
  200DOPC  H18T24853   3.812  -0.916  -0.233 -4.2133 -1.9171  1.3637
  200DOPC   C3324854   4.014  -1.888  -1.816  0.1221  0.6125  0.3531
  200DOPC   H3X24855   4.125  -1.885  -1.821  0.1552 -0.1185  0.4609
  200DOPC   H3Y24856   3.986  -1.960  -1.896 -2.3364  1.0082  0.7880
  200DOPC   C3424857   3.964  -1.948  -1.683 -0.3751  0.4562  0.3927
  200DOPC   H4X24858   4.007  -2.050  -1.674 -1.0091  0.0135 -1.2592
  200DOPC   H4Y24859   3.854  -1.955  -1.694 -0.2239 -0.8085 -0.6850
  200DOPC   C3524860   4.008  -1.868  -1.561 -0.4286 -0.1851 -0.1440
  200DOPC   H5X24861   3.969  -1.764  -1.552  0.0929  0.0900 -0.9953
  200DOPC   H5Y24862   4.118  -1.853  -1.554 -0.5983  1.0082  0.4036
  200DOPC   C3624863   3.968  -1.933  -1.426 -0.4072  0.5224 -0.0729
  200DOPC   H6X24864   3.860  -1.919  -1.406 -1.0108 -0.7338 -2.1718
  200DOPC   H6Y24865   3.986  -2.043  -1.430  0.8060  0.6153  1.7356
  200DOPC   C3724866   4.049  -1.862  -1.319  0.5095  0.4315  0.0605
  200DOPC   H7X24867   4.146  -1.915  -1.316  0.0402 -0.4868 -0.7194
  200DOPC   H7Y24868   4.066  -1.755  -1.345  2.1426  0.2765  0.3812
  200DOPC   C3824869   3.979  -1.861  -1.175  0.7960  0.1770  0.1693
  200DOPC   H8X24870   3.943  -1.965  -1.163 -0.3279  0.7094  1.7816
  200DOPC   H8Y24871   3.904  -1.780  -1.186  0.0581 -0.4912  0.1932
  200DOPC   C3924872   4.082  -1.830  -1.069  0.0711  0.4510 -0.2792
  200DOPC   H9X24873   4.173  -1.891  -1.061  0.5739  1.3270  1.0585
  200DOPC  C31024874   4.073  -1.720  -0.988 -0.1306  0.2513  0.2225
  200DOPC  H10X24875   4.149  -1.695  -0.912  1.0935  7.0794 -2.5429
  200DOPC  C31124876   3.952  -1.631  -0.973 -0.2338  0.7475  0.2080
  200DOPC  H11X24877   3.859  -1.672  -1.018  0.7526 -0.4526 -0.8060
  200DOPC  H11Y24878   3.959  -1.528  -1.012 -0.9963  0.9708  0.6369
  200DOPC  C31224879   3.939  -1.603  -0.825 -0.0115 -0.7662 -0.3867
  200DOPC  H12X24880   4.029  -1.541  -0.807 -1.9445  2.7308 -1.9910
  200DOPC  H12Y24881   3.943  -1.695  -0.762 -1.5301 -0.4570  0.2158
  200DOPC  C31324882   3.816  -1.525  -0.788  1.0330 -0.2074  0.2078
  200DOPC  H13X24883   3.805  -1.436  -0.854 -0.6092 -1.0104 -0.6888
  200DOPC  H13Y24884   3.727  -1.591  -0.800  0.7714  0.0595  0.6884
  200DOPC  C31424885   3.819  -1.480  -0.640  0.5487  0.2779  0.1016
  200DOPC  H14X24886   3.815  -1.570  -0.576 -1.6668  0.7792  0.7620
  200DOPC  H14Y24887   3.911  -1.419  -0.632  0.0604  0.9567  0.5917
  200DOPC  C31524888   3.697  -1.391  -0.608  0.0129 -0.1341 -0.0272
  200DOPC  H15X24889   3.599  -1.442  -0.619 -0.0730  0.0093  0.0750
  200DOPC  H15Y24890   3.705  -1.304  -0.678  2.1845  1.0845  1.6208
  200DOPC  C31624891   3.707  -1.334  -0.469 -0.2926 -0.8450  0.3510
  200DOPC  H16X24892   3.812  -1.305  -0.446 -0.6244  0.3979  0.3410
  200DOPC  H16Y24893   3.643  -1.244  -0.457 -0.6467 -1.2393  1.5439
  200DOPC  C31724894   3.657  -1.440  -0.358 -0.2344 -0.8933  0.2602
  200DOPC  H17X24895   3.548  -1.417  -0.355  0.1365  1.1469 -0.3243
  200DOPC  H17Y24896   3.678  -1.544  -0.390 -1.1346 -1.4387  1.3781
  200DOPC  C31824897   3.710  -1.405  -0.220  0.5870 -0.4936 -0.1668
  200DOPC  H18X24898   3.636  -1.438  -0.143  0.5959 -2.4955 -0.9399
  200DOPC  H18Y24899   3.808  -1.453  -0.201  0.2700 -0.2957  2.2316
  200DOPC  H18Z24900   3.720  -1.295  -0.212 -1.4430 -0.3489  1.2203
  201SOD    SOD24901   1.310  -2.749   4.313 -0.0109  0.1807 -0.2199
  202SOD    SOD24902   1.220  -0.657  -3.809 -0.2898  0.2031  0.2533
  203SOD    SOD24903  -0.993   0.457   3.838  0.2264 -0.0265 -0.6715
  204SOD    SOD24904  -1.110   1.768  -4.957  0.2802 -0.2694  0.6753
  205SOD    SOD24905   0.011  -1.297   3.896 -0.0285 -0.2188 -0.1514
  206SOD    SOD24906  -2.979  -3.246  -2.431  0.4519  0.0437  0.3375
  207SOD    SOD24907  -2.255   2.781  -3.879  0.2620 -0.0875 -0.1204
  208SOD    SOD24908   3.148  -0.721   5.145 -0.5273 -0.1219 -0.0285
  209SOD    SOD24909  -2.195  -1.571  -3.503 -0.3289 -0.3181  0.0899
  210SOD    SOD24910   2.162  -1.838   5.533 -0.2972  0.0418 -0.5241
  211SOD    SOD24911  -2.205  -1.945   3.500 -0.2246  0.3151  0.2380
  212SOD    SOD24912  -0.426   1.390   4.755  0.2673 -0.0391  0.2788
  213SOD    SOD24913  -2.461  -3.218  -4.251 -0.1192 -0.0077 -0.0321
  214SOD    SOD24914  -1.152  -1.071   5.142  0.6124  0.0649  0.6134
  215SOD    SOD24915  -0.604   2.991   3.122 -0.2789 -0.1010  0.0944
  216SOD    SOD24916  -1.855   1.081   5.307 -0.0498 -0.0803  0.1215
  217SOD    SOD24917   0.064  -2.675  -4.268 -0.1670 -0.1881 -0.0597
  218SOD    SOD24918   3.263  -2.774   3.734  0.0973 -0.0982 -0.2303
  219SOD    SOD24919   0.812   3.016   3.182 -0.4362 -0.5284 -0.4357
  220SOD    SOD24920  -1.055  -1.156  -4.565  0.2257  0.0665 -0.6201
  221SOD    SOD24921   2.530   1.244  -3.536  0.5681 -0.4556  0.1160
  222SOD    SOD24922  -1.305   3.247   3.801 -0.1791 -0.5839 -0.2601
  223SOD    SOD24923   0.362   1.325  -3.915  0.0381  0.0668 -0.6214
  224SOD    SOD24924   1.994   3.253  -3.486  0.3301 -0.0832  0.1407
  225SOD    SOD24925   2.497  -2.906  -4.115 -0.1727  0.0887 -0.5783
  226SOD    SOD24926   1.363   0.167   2.527 -0.1328  0.7902 -0.0325
  227CLA    CLA24927   0.411   0.564  -4.638 -0.3462  0.1107  0.0888
  228CLA    CLA24928   3.249  -2.155  -4.429  0.2644  0.0068 -0.1214
  229CLA    CLA24929  -1.418  -2.247  -4.046  0.1502 -0.3740  0.1428
  230CLA    CLA24930   0.235   1.466   3.422 -0.1249  0.2000  0.0254
  231CLA    CLA24931   1.705  -1.890   4.512  0.0560 -0.0736 -0.0041
  232CLA    CLA24932   1.278   2.190   3.401 -0.1507  0.1981  0.0996
  233CLA    CLA24933  -3.306   2.969   4.316  0.1834 -0.1593  0.3939
  234CLA    CLA24934   3.272  -2.608   4.278 -0.2885 -0.1943  0.5810
  235CLA    CLA24935   1.652   3.378  -4.408  0.0030  0.1323  0.0972
  236CLA    CLA24936   0.840  -1.930   3.755  0.1141  0.3255 -0.0356
  237CLA    CLA24937  -1.246  -0.060   4.903 -0.3188  0.1351  0.1910
  238CLA    CLA24938  -1.792   2.705  -3.414 -0.0776 -0.0036 -0.2515
  239CLA    CLA24939  -0.795  -2.865  -4.982 -0.6188 -0.1245  0.2827
  240CLA    CLA24940   2.764   2.351   5.258  0.0205  0.2569  0.0877
  241CLA    CLA24941  -0.528   2.830  -5.483  0.1081 -0.1260 -0.0329
  242CLA    CLA24942  -0.011  -2.190   3.259  0.0766 -0.0199 -0.0428
  243CLA    CLA24943   3.219   1.658  -3.723  0.3966 -0.2218 -0.0230
  244CLA    CLA24944  -0.551   1.830  -4.327 -0.0862 -0.0085 -0.5951
  245CLA    CLA24945   3.289  -1.966  -2.991 -0.3093  0.0181  0.1152
  246CLA    CLA24946  -3.055   0.084   5.375 -0.0963 -0.1675  0.1907
  247CLA    CLA24947   2.850  -3.232  -3.724  0.3652  0.4206  0.4001
  248CLA    CLA24948  -2.189   1.646  -4.495 -0.0078 -0.0299  0.0821
  249CLA    CLA24949  -0.971  -0.060  -3.226  0.0816 -0.4490  0.2656
  250CLA    CLA24950   0.998   1.433   4.034 -0.2844 -0.0111 -0.1949
  251CLA    CLA24951  -1.918   0.727   4.777  0.5373 -0.3733 -0.2044
  252CLA    CLA24952   3.186  -0.862  -2.737 -0.2066 -0.0671 -0.3573
  253TIP3   OH224953  -2.381   1.659   5.269 -0.1039  0.4227  0.3573
  253TIP3    H124954  -2.463   1.611   5.272  0.6608 -0.9809 -0.0408
  253TIP3    H224955  -2.316   1.598   5.304  0.8097  1.3966  0.4134
  254TIP3   OH224956  -1.533  -1.754   3.374 -0.4191  0.6190  0.0426
  254TIP3    H124957  -1.491  -1.677   3.334  1.9672 -0.2653  0.6601
  254TIP3    H224958  -1.478  -1.774   3.449  0.3011 -2.8892 -1.2332
  255TIP3   OH224959  -3.174  -2.527   5.718  0.2078  0.1907  0.7725
  255TIP3    H124960  -3.223  -2.448   5.738  0.0488  0.1419  0.5753
  255TIP3    H224961  -3.241  -2.594   5.703  0.3222  0.2555 -0.0409
  256TIP3   OH224962   0.697  -1.049   3.203  0.4441  0.2093 -0.3480
  256TIP3    H124963   0.781  -1.086   3.230  0.2134 -0.1757 -0.1392
  256TIP3    H224964   0.662  -1.009   3.283 -0.5677 -1.5584  0.1529
  257TIP3   OH224965  -0.859   2.163   4.787  0.1947 -0.5254 -0.3658
  257TIP3    H124966  -0.804   2.088   4.762 -0.0887 -0.5924 -0.8137
  257TIP3    H224967  -0.904   2.187   4.706  1.0406  0.7752 -0.4600
  258TIP3   OH224968  -0.856  -1.554   3.069  0.1374  0.0078 -0.3037
  258TIP3    H124969  -0.906  -1.633   3.045  0.5246  0.0562 -1.3232
  258TIP3    H224970  -0.808  -1.579   3.148 -2.4143  0.3438  1.4857
  259TIP3   OH224971   1.736  -0.629   3.925 -0.1482 -0.0082  0.2321
  259TIP3    H124972   1.655  -0.664   3.964 -0.9334 -0.1543 -1.4504
  259TIP3    H224973   1.800  -0.633   3.996 -1.4064 -0.6172  1.3862
  260TIP3   OH224974  -1.515  -0.089   5.581 -0.4933  0.0448 -0.2582
  260TIP3    H124975  -1.427  -0.119   5.604  0.1547  1.5223 -0.7000
  260TIP3    H224976  -1.558  -0.167   5.545  0.4243 -0.8414  0.5017
  261TIP3   OH224977   0.467   3.117   5.147  0.3118  0.3484  0.7346
  261TIP3    H124978   0.553   3.148   5.176 -0.0672  2.5291 -0.2950
  261TIP3    H224979   0.475   3.110   5.052 -0.0249 -1.6146  0.8049
  262TIP3   OH224980  -0.298   1.782   2.877 -0.2195 -0.0008  0.0976
  262TIP3    H124981  -0.250   1.704   2.849  0.2145  0.4342 -0.3789
  262TIP3    H224982  -0.364   1.796   2.809  0.4884  0.7464 -0.4432
  263TIP3   OH224983  -0.327  -0.964   2.954 -0.0348  0.0707  0.4382
  263TIP3    H124984  -0.234  -0.950   2.970  0.3327  1.3037 -2.3237
  263TIP3    H224985  -0.334  -1.056   2.927  0.7412  0.5091 -1.3552
  264TIP3   OH224986  -0.636  -0.115   4.301  0.5292 -0.7826  0.8779
  264TIP3    H124987  -0.599  -0.118   4.213 -1.0908 -0.4429  0.1394
  264TIP3    H224988  -0.656  -0.022   4.315 -1.8225 -1.1442  0.4016
  265TIP3   OH224989  -2.523  -1.270   4.366 -0.0978  0.7659  0.5610
  265TIP3    H124990  -2.491  -1.184   4.393 -0.7802  0.9657  0.7519
  265TIP3    H224991  -2.613  -1.254   4.336  0.6658  0.6165 -2.0537
  266TIP3   OH224992  -0.226   3.114   2.939 -0.1581 -0.1172 -0.1951
  266TIP3    H124993  -0.237   3.021   2.920  0.5789 -0.4819  1.0745
  266TIP3    H224994  -0.205   3.154   2.854 -0.4191 -1.1049 -0.7370
  267TIP3   OH224995   1.461  -1.952   5.208  0.4404 -0.0389 -0.1833
  267TIP3    H124996   1.410  -1.890   5.156  0.8136 -1.0115 -1.7681
  267TIP3    H224997   1.515  -1.999   5.145  0.3496 -1.8188  0.9651
  268TIP3   OH224998   0.677   1.186   5.717  0.3642  0.1973 -0.2852
  268TIP3    H124999   0.598   1.173   5.663 -0.9638  0.7513  1.4523
  268TIP3    H225000   0.724   1.258   5.674 -0.4998  0.4264 -0.8725
  269TIP3   OH225001   2.027  -2.523   4.869  0.3969 -0.1578 -0.0382
  269TIP3    H125002   2.052  -2.592   4.930 -0.6892  0.0578  0.6688
  269TIP3    H225003   2.027  -2.443   4.922  1.0248  0.3094 -0.7060
  270TIP3   OH225004   2.735  -2.670   4.859 -0.2738 -0.4023  0.2022
  270TIP3    H125005   2.709  -2.718   4.781 -0.9158  0.8250 -0.3793
  270TIP3    H225006   2.830  -2.661   4.851 -0.4368  0.6387 -1.0383
  271TIP3   OH225007   0.809   1.362   5.552  0.1590 -0.2752 -0.3889
  271TIP3    H125008   0.817   1.370   5.457 -1.8250  1.9801 -0.4641
  271TIP3    H225009   0.889   1.401   5.587  0.0328  0.6686 -1.1364
  272TIP3   OH225010  -0.393   1.172   4.723  0.2026 -0.2071  0.1806
  272TIP3    H125011  -0.368   1.111   4.792 -1.3089 -1.0193  0.0569
  272TIP3    H225012  -0.382   1.123   4.642  0.2316  0.1370 -0.0268
  273TIP3   OH225013   2.200   0.350   4.123  0.0131 -0.2479 -0.0011
  273TIP3    H125014   2.173   0.417   4.187 -2.1693 -0.2349 -0.8361
  273TIP3    H225015   2.178   0.388   4.038 -2.3168 -2.3581 -0.4677
  274TIP3   OH225016   0.450  -1.650   5.733 -0.6186 -0.3929  0.0684
  274TIP3    H125017   0.412  -1.727   5.691 -1.4039 -0.2313  0.4555
  274TIP3    H225018   0.542  -1.672   5.746 -0.5677 -0.7979 -0.9006
  275TIP3   OH225019  -0.537   0.857   4.513  0.5612  0.2489 -0.2855
  275TIP3    H125020  -0.489   0.937   4.530  2.0311 -0.6808  0.0850
  275TIP3    H225021  -0.538   0.850   4.417  1.1228  0.2949 -0.2952
  276TIP3   OH225022  -0.219   1.127   4.246 -0.0389  0.4326 -0.4488
  276TIP3    H125023  -0.175   1.071   4.182 -0.4616  0.1115 -0.4597
  276TIP3    H225024  -0.310   1.133   4.215  0.1937  1.8852 -0.9751
  277TIP3   OH225025   1.666  -0.218   2.766  0.1603 -0.1071 -0.2355
  277TIP3    H125026   1.700  -0.211   2.677  0.6756 -1.0915 -0.1326
  277TIP3    H225027   1.574  -0.195   2.758  0.4991  1.1934 -0.7693
  278TIP3   OH225028   1.973   1.622   4.201 -0.1627 -0.0808 -0.6389
  278TIP3    H125029   1.961   1.563   4.275 -0.6566  2.7994  1.7456
  278TIP3    H225030   1.884   1.647   4.176  0.0422  1.3339 -0.0788
  279TIP3   OH225031  -1.263   3.011   4.204  0.1834 -0.1225 -0.1970
  279TIP3    H125032  -1.352   3.041   4.221  0.0992 -0.2964 -0.3343
  279TIP3    H225033  -1.214   3.035   4.283  0.0458  0.0958 -0.1780
  280TIP3   OH225034   0.153   2.480   5.243  0.0450  0.0933 -0.2377
  280TIP3    H125035   0.222   2.537   5.277 -0.9268  1.0286  0.2292
  280TIP3    H225036   0.083   2.487   5.308 -1.2771  0.7451 -1.6732
  281TIP3   OH225037   0.367  -2.205   5.767  0.0574 -0.3118  0.4177
  281TIP3    H125038   0.352  -2.111   5.780 -2.3325 -0.7678  1.6168
  281TIP3    H225039   0.389  -2.213   5.675 -0.6476  1.3507  0.0590
  282TIP3   OH225040  -1.945   2.756   5.031  0.6680 -0.6661  0.2800
  282TIP3    H125041  -1.954   2.692   5.102 -0.5240 -0.8257  0.0100
  282TIP3    H225042  -1.855   2.787   5.038  0.7833 -1.1981  1.4230
  283TIP3   OH225043  -0.547   0.375   5.217  0.2392  0.3966  0.0854
  283TIP3    H125044  -0.570   0.449   5.162 -0.0596  1.3738  1.4765
  283TIP3    H225045  -0.565   0.298   5.163 -0.2899  1.3014 -1.0640
  284TIP3   OH225046   0.984  -0.624  -3.812  0.0504  0.4502  0.0264
  284TIP3    H125047   0.924  -0.614  -3.886 -1.0109 -1.3018  0.5981
  284TIP3    H225048   0.943  -0.576  -3.741 -0.3980 -0.2938  0.2698
  285TIP3   OH225049  -2.834   2.073  -2.752  0.0360 -0.0839  0.1599
  285TIP3    H125050  -2.789   2.124  -2.684  1.8198 -2.0237  0.5339
  285TIP3    H225051  -2.861   1.993  -2.707 -1.0653 -0.2900 -0.8296
  286TIP3   OH225052  -1.610  -1.262  -2.722 -0.1513 -0.0971 -0.9103
  286TIP3    H125053  -1.521  -1.286  -2.749  0.4050  1.2102 -0.3445
  286TIP3    H225054  -1.597  -1.193  -2.656 -1.5946  0.6389 -1.3536
  287TIP3   OH225055  -2.787  -1.533  -5.202 -0.0577 -0.2972 -0.2161
  287TIP3    H125056  -2.873  -1.538  -5.243  0.8230 -0.3561 -2.1528
  287TIP3    H225057  -2.780  -1.614  -5.151 -1.3453 -0.0225  0.4547
  288TIP3   OH225058   2.905   3.061  -2.221  0.8305 -0.7718  0.4478
  288TIP3    H125059   2.983   3.073  -2.166  2.5686  0.7783 -2.1631
  288TIP3    H225060   2.905   2.968  -2.241  2.7413 -0.6310 -0.4220
  289TIP3   OH225061  -2.740   3.043  -3.111  0.3355 -0.2181  0.3121
  289TIP3    H125062  -2.650   3.022  -3.136  0.0258 -0.6836 -0.4775
  289TIP3    H225063  -2.768   3.110  -3.174 -0.3729 -1.2173 -0.4784
  290TIP3   OH225064   1.581   2.424  -3.611 -0.8727  0.5918  0.1576
  290TIP3    H125065   1.609   2.332  -3.611  0.4834  0.9764  0.2475
  290TIP3    H225066   1.509   2.427  -3.548 -0.1663 -0.2034  1.0431
  291TIP3   OH225067   2.809   1.223  -4.702 -0.3598 -0.3757  0.4667
  291TIP3    H125068   2.877   1.252  -4.641  0.5112  1.2778 -1.2077
  291TIP3    H225069   2.731   1.212  -4.647  0.5541  0.3485  1.9827
  292TIP3   OH225070   1.983   2.615  -2.751 -0.8417  0.2284  0.3729
  292TIP3    H125071   2.003   2.526  -2.723 -0.0142  0.3072  0.0560
  292TIP3    H225072   1.971   2.664  -2.670 -2.0497 -0.3167  0.5520
  293TIP3   OH225073   0.040   2.262  -5.113  0.3171 -0.1086  0.3691
  293TIP3    H125074   0.037   2.283  -5.020  3.5745  0.6535  0.4156
  293TIP3    H225075  -0.017   2.327  -5.154 -0.1790  0.3395  1.7161
  294TIP3   OH225076  -0.865   0.159  -5.777 -0.1153  0.1811  0.0737
  294TIP3    H125077  -0.823   0.183  -5.694  0.5467 -0.9444  0.0862
  294TIP3    H225078  -0.840   0.068  -5.790  0.0072  0.4265 -1.5013
  295TIP3   OH225079  -3.303  -2.045  -2.440 -0.1979  0.2827  0.6767
  295TIP3    H125080  -3.310  -2.083  -2.528 -1.6548 -1.2873  1.4139
  295TIP3    H225081  -3.214  -2.067  -2.412 -0.7681 -2.2249  0.8324
  296TIP3   OH225082  -1.339  -1.529  -3.135  0.6956 -1.2953 -1.1206
  296TIP3    H125083  -1.342  -1.552  -3.042  0.1637  3.0442  0.1510
  296TIP3    H225084  -1.428  -1.545  -3.168 -0.5785  1.5461  0.5543
  297TIP3   OH225085   0.802   1.247  -3.934 -0.2336  0.4691 -0.3782
  297TIP3    H125086   0.746   1.238  -3.856  0.5425  0.6510  0.2094
  297TIP3    H225087   0.741   1.268  -4.004 -0.8770  1.0248  0.3271
  298TIP3   OH225088   2.446   3.349  -5.261 -0.2861  0.0491 -0.0138
  298TIP3    H125089   2.447   3.258  -5.232 -1.3983 -0.1179 -0.4407
  298TIP3    H225090   2.537   3.369  -5.280  0.0060 -0.8997  0.3297
  299TIP3   OH225091  -0.278   2.745  -4.751  0.7128  0.5880  0.4345
  299TIP3    H125092  -0.358   2.715  -4.793  1.0439 -0.2667  0.3926
  299TIP3    H225093  -0.289   2.840  -4.742 -0.5269  0.4149  0.9195
  300TIP3   OH225094  -1.744   2.282  -4.133  0.1490 -0.3127  0.2361
  300TIP3    H125095  -1.747   2.187  -4.142  0.0173 -0.2557 -0.3979
  300TIP3    H225096  -1.652   2.304  -4.146  0.1560 -0.3375  0.2432
  301TIP3   OH225097   3.161   1.886  -3.177  0.7136  0.4094  0.2757
  301TIP3    H125098   3.255   1.894  -3.163  0.8253 -0.3310 -0.0090
  301TIP3    H225099   3.152   1.868  -3.271  0.4495 -1.6968  0.6553
  302TIP3   OH225100   1.142   1.881  -4.176 -0.5197 -0.3142  0.2730
  302TIP3    H125101   1.173   1.906  -4.263  0.9135 -0.6541  0.6589
  302TIP3    H225102   1.210   1.913  -4.117 -1.8542  0.6187  1.3669
  303TIP3   OH225103   0.199  -1.831  -2.712  0.2025  0.1002  1.0731
  303TIP3    H125104   0.262  -1.792  -2.651 -0.4064 -0.0905  1.8488
  303TIP3    H225105   0.186  -1.920  -2.679 -0.4587  0.1339  0.9116
  304TIP3   OH225106   2.261  -1.641  -4.367  0.2859  0.2687  0.1419
  304TIP3    H125107   2.336  -1.607  -4.318 -0.2174 -1.4186  2.2095
  304TIP3    H225108   2.300  -1.692  -4.438  1.0576  0.8398  0.1401
  305TIP3   OH225109  -2.968  -1.777  -3.747  0.3380 -0.3304 -0.0024
  305TIP3    H125110  -2.982  -1.682  -3.739 -0.2475 -0.3280 -0.9280
  305TIP3    H225111  -2.891  -1.785  -3.803 -0.1460 -0.4027 -0.6654
  306TIP3   OH225112   1.381   0.938  -3.413 -0.5692 -0.5232 -0.1598
  306TIP3    H125113   1.407   0.859  -3.462  1.2446 -0.9056  1.3046
  306TIP3    H225114   1.435   1.008  -3.451 -0.0333 -0.5825  0.4879
  307TIP3   OH225115   3.286  -3.158  -4.550  0.1542 -0.5341 -0.3399
  307TIP3    H125116   3.337  -3.133  -4.627 -0.5968  0.1655 -0.6254
  307TIP3    H225117   3.347  -3.208  -4.496  0.8511 -0.5565 -1.1269
  308TIP3   OH225118  -3.190  -2.357  -4.836  0.0267  0.0325  0.3654
  308TIP3    H125119  -3.169  -2.356  -4.929  0.8969 -1.3393  0.5195
  308TIP3    H225120  -3.117  -2.311  -4.794 -1.2714  2.3525  0.2667
  309TIP3   OH225121   1.382  -2.530  -4.515 -0.4490 -0.5128 -0.0502
  309TIP3    H125122   1.304  -2.477  -4.497 -0.2118 -0.0108 -0.4934
  309TIP3    H225123   1.454  -2.480  -4.476 -0.1693 -0.2895 -0.8426
  310TIP3   OH225124  -0.147  -1.542  -4.457 -0.1357 -0.0781  0.1091
  310TIP3    H125125  -0.177  -1.604  -4.390  1.2484  0.0004  0.8329
  310TIP3    H225126  -0.062  -1.512  -4.425  0.7352 -0.3113 -1.8626
  311TIP3   OH225127  -2.358   2.318  -3.827 -0.3345 -0.7350 -0.5996
  311TIP3    H125128  -2.400   2.379  -3.887 -0.4207 -0.7920 -0.5965
  311TIP3    H225129  -2.267   2.315  -3.856  0.0780  0.7200  0.4448
  312TIP3   OH225130   2.961  -0.288  -5.308 -0.4941  0.1447 -0.0487
  312TIP3    H125131   2.887  -0.346  -5.290 -0.0225  0.3094  2.8574
  312TIP3    H225132   2.922  -0.201  -5.316 -0.7647  0.0397  0.1068
  313TIP3   OH225133   0.768   3.082  -3.521  0.2958 -0.2801  0.3587
  313TIP3    H125134   0.776   2.996  -3.481  1.2611 -0.0693  0.6350
  313TIP3    H225135   0.819   3.140  -3.465  0.8656  0.1970 -0.6358
  314TIP3   OH225136  -2.799  -0.517  -3.880  0.2442  0.1299  0.1280
  314TIP3    H125137  -2.741  -0.506  -3.805  0.9317  2.0101 -0.6276
  314TIP3    H225138  -2.757  -0.469  -3.951 -0.3284 -1.6841 -1.5314
  315TIP3   OH225139   3.314  -2.438  -4.514 -0.0137 -0.0246 -0.5621
  315TIP3    H125140   3.390  -2.478  -4.471 -1.1650 -0.0695  1.5523
  315TIP3    H225141   3.304  -2.353  -4.470 -0.7540  0.2831 -1.3125
  316TIP3   OH225142  -1.250   1.555  -2.080 -0.0545 -0.0042  0.2341
  316TIP3    H125143  -1.196   1.633  -2.086 -0.2151 -0.0103 -2.7186
  316TIP3    H225144  -1.193   1.483  -2.106 -0.5535 -0.5075  0.5008
  317TIP3   OH225145  -0.846  -0.558  -3.031  0.4979  0.2946  0.1535
  317TIP3    H125146  -0.853  -0.516  -3.116 -1.1691 -0.7400 -0.2775
  317TIP3    H225147  -0.884  -0.496  -2.969  0.7689  0.6242 -0.0127
  318TIP3   OH225148  -1.499  -1.080  -4.565 -0.7305  0.3559  0.4433
  318TIP3    H125149  -1.560  -1.124  -4.625  0.5737  0.2857 -0.8902
  318TIP3    H225150  -1.518  -0.987  -4.575  0.3738  0.4547 -1.1827
  319TIP3   OH225151   1.668   0.712  -3.078  0.4357  0.2858  0.1487
  319TIP3    H125152   1.658   0.769  -3.154  0.5695  1.4870  1.0111
  319TIP3    H225153   1.748   0.662  -3.095  1.6707  2.0819  0.4536
  320TIP3   OH225154  -3.229  -2.623  -4.875 -0.5402 -0.5170 -0.3832
  320TIP3    H125155  -3.211  -2.533  -4.850  2.8747 -1.4451  1.1936
  320TIP3    H225156  -3.307  -2.647  -4.824  0.5238  0.5774  1.8942
  321TIP3   OH225157  -0.022   0.889  -4.097  0.0687 -0.2152  0.1877
  321TIP3    H125158   0.056   0.919  -4.144  1.1078  0.6269  2.3126
  321TIP3    H225159  -0.063   0.826  -4.157  1.3294  0.7142 -1.7687
  322TIP3   OH225160  -2.605  -0.750  -2.977 -0.1668 -0.0735  0.0031
  322TIP3    H125161  -2.514  -0.725  -2.990  0.4076 -0.9849  1.8224
  322TIP3    H225162  -2.609  -0.842  -3.005  0.4876 -1.2471  3.2130
  323TIP3   OH225163  -1.571  -2.109   5.045  0.1739  0.3847 -0.1385
  323TIP3    H125164  -1.600  -2.084   4.957 -1.2391  1.3603  0.5594
  323TIP3    H225165  -1.652  -2.119   5.094  0.9149 -0.8959  0.8818
  324TIP3   OH225166   0.503   0.561   4.518  0.1566 -0.1252  0.3459
  324TIP3    H125167   0.490   0.467   4.528 -0.6667 -0.2067 -1.2079
  324TIP3    H225168   0.561   0.570   4.442 -0.6835  0.6265 -0.2385
  325TIP3   OH225169  -0.051   1.764   3.735  0.5633 -0.4783 -0.4364
  325TIP3    H125170  -0.043   1.718   3.818 -0.1588 -3.2285 -1.7768
  325TIP3    H225171  -0.040   1.696   3.668 -1.6472  1.0575 -2.5589
  326TIP3   OH225172   0.330  -3.001   5.626 -0.3038  0.3808  0.3488
  326TIP3    H125173   0.239  -3.015   5.651 -0.1649 -1.4114 -0.0219
  326TIP3    H225174   0.377  -3.076   5.661  0.6532  0.1411 -1.3058
  327TIP3   OH225175  -0.252   2.500   2.389 -0.5627  0.4291 -0.2446
  327TIP3    H125176  -0.213   2.586   2.377  1.6687 -0.3846  0.6366
  327TIP3    H225177  -0.343   2.518   2.413 -0.3466  2.4890 -0.7618
  328TIP3   OH225178  -1.685  -0.971   3.218  0.4234  0.2241  0.5668
  328TIP3    H125179  -1.705  -0.904   3.283 -0.0189  1.6446 -0.9553
  328TIP3    H225180  -1.744  -0.951   3.145  0.9231 -1.2961 -0.2893
  329TIP3   OH225181  -3.008   0.550   4.717 -0.6801  0.4637 -0.2527
  329TIP3    H125182  -2.983   0.621   4.777 -0.0574  0.5793 -0.6361
  329TIP3    H225183  -3.081   0.507   4.761  0.9883 -0.6915  1.5879
  330TIP3   OH225184  -1.223  -0.522   5.299  0.0701  0.7295 -0.0751
  330TIP3    H125185  -1.154  -0.576   5.260 -0.5045  0.7800 -1.2197
  330TIP3    H225186  -1.210  -0.531   5.393  1.3204  0.3375 -0.2608
  331TIP3   OH225187  -1.273  -2.861   5.225 -0.0535  0.2227 -0.7950
  331TIP3    H125188  -1.290  -2.950   5.192  0.2164  0.6535 -2.1440
  331TIP3    H225189  -1.286  -2.805   5.149  2.4266  1.0755 -0.6578
  332TIP3   OH225190   3.136  -3.023   3.070 -0.0832 -0.0174 -0.3085
  332TIP3    H125191   3.151  -3.110   3.033  0.1576  0.6894 -1.9584
  332TIP3    H225192   3.043  -3.022   3.092 -0.0065 -0.8146  0.0723
  333TIP3   OH225193  -0.024   2.740   4.619  0.7476  0.5626  0.0120
  333TIP3    H125194   0.069   2.753   4.603  0.8143  0.9333  0.6529
  333TIP3    H225195  -0.032   2.648   4.644  0.8474  0.3664 -0.6674
  334TIP3   OH225196  -3.008  -1.927   5.152  0.6705  0.0342  0.4472
  334TIP3    H125197  -2.969  -1.926   5.065  0.4362 -0.9115  0.3188
  334TIP3    H225198  -3.046  -2.015   5.160 -0.1225  0.4318  1.1443
  335TIP3   OH225199   2.392   2.239   2.761  0.3374  0.1283  0.1105
  335TIP3    H125200   2.422   2.319   2.804  1.6423 -0.0411 -0.4477
  335TIP3    H225201   2.375   2.265   2.670  3.5332 -0.7511 -0.8535
  336TIP3   OH225202   3.133   0.767   5.548  0.2247 -0.5176  0.2588
  336TIP3    H125203   3.216   0.723   5.527  1.3817  1.8074 -0.2765
  336TIP3    H225204   3.159   0.849   5.589 -1.7828  0.9938 -1.3372
  337TIP3   OH225205   0.918   1.791   5.920 -0.6140  0.3420 -0.2729
  337TIP3    H125206   0.900   1.703   5.887 -1.6930  1.2469 -2.2826
  337TIP3    H225207   0.997   1.818   5.873  0.2529  0.1568  1.0161
  338TIP3   OH225208   0.287  -0.287   3.456 -0.1203 -0.4047  0.2649
  338TIP3    H125209   0.367  -0.236   3.451 -0.8221  0.6372 -0.7417
  338TIP3    H225210   0.221  -0.234   3.412 -0.6366 -2.6308 -1.9113
  339TIP3   OH225211   1.552   3.039   3.094  0.2800 -0.1770  0.3170
  339TIP3    H125212   1.468   3.006   3.127  0.3402 -0.5354  0.1216
  339TIP3    H225213   1.564   2.995   3.010  0.1312  0.7287 -0.1869
  340TIP3   OH225214  -1.825   2.890   4.550 -0.2115  0.5365  0.0087
  340TIP3    H125215  -1.788   2.804   4.528 -1.5340  0.1922 -1.0059
  340TIP3    H225216  -1.874   2.875   4.631  0.5242  0.6126  0.4698
  341TIP3   OH225217  -2.997   2.538   5.553  0.7908 -0.4009  1.1642
  341TIP3    H125218  -3.068   2.514   5.612 -1.1244 -1.8049 -1.5166
  341TIP3    H225219  -2.973   2.456   5.510  0.4354  0.8934 -1.6941
  342TIP3   OH225220   1.191  -0.451   2.934  0.7010  0.2111 -0.9174
  342TIP3    H125221   1.178  -0.363   2.899 -1.0283  0.7553  0.9176
  342TIP3    H225222   1.132  -0.506   2.882  1.1918  0.2507 -1.5334
  343TIP3   OH225223  -3.209  -2.253   2.270 -0.4891 -0.5318 -0.5386
  343TIP3    H125224  -3.125  -2.208   2.258 -0.8308  0.2236 -0.1704
  343TIP3    H225225  -3.269  -2.184   2.300 -0.3108 -1.6894  3.0012
  344TIP3   OH225226  -2.940   1.387   5.508  0.0680 -0.0480  0.5446
  344TIP3    H125227  -2.910   1.452   5.572 -0.9193  0.9574  0.0158
  344TIP3    H225228  -3.029   1.414   5.486  0.4493 -0.2384 -1.4092
  345TIP3   OH225229   0.211   0.994   5.445 -0.2571 -0.4003 -0.1605
  345TIP3    H125230   0.130   0.976   5.396 -0.9064 -3.5301  1.8047
  345TIP3    H225231   0.181   1.038   5.524  0.0868 -0.6747  0.1224
  346TIP3   OH225232  -1.536  -3.290   4.244  0.4559  0.6177 -0.4119
  346TIP3    H125233  -1.590  -3.297   4.166 -0.9386 -1.7661  0.6536
  346TIP3    H225234  -1.587  -3.234   4.303  0.0741  0.0046 -0.1494
  347TIP3   OH225235  -1.883   1.395   2.890  0.9631  0.1620  0.3373
  347TIP3    H125236  -1.796   1.364   2.912  1.0532 -0.9814 -1.4665
  347TIP3    H225237  -1.901   1.360   2.803 -0.8310  1.3494  0.1566
  348TIP3   OH225238  -0.780   0.952   2.691  0.0432  0.9152 -0.0695
  348TIP3    H125239  -0.844   0.942   2.620  0.6383  0.8768 -0.6152
  348TIP3    H225240  -0.714   1.012   2.656  1.7453 -1.1129 -0.5978
  349TIP3   OH225241  -3.061   1.760   4.734  0.1204  0.4941 -0.1845
  349TIP3    H125242  -3.142   1.806   4.756  0.5839  1.1921  0.0833
  349TIP3    H225243  -3.011   1.822   4.681 -0.0802 -0.4124 -1.5135
  350TIP3   OH225244  -2.951   1.083   2.353 -0.5185 -0.1993  0.4667
  350TIP3    H125245  -2.897   1.053   2.426 -2.1308  1.9879  2.7301
  350TIP3    H225246  -2.915   1.169   2.332  0.3241 -1.0438 -1.8794
  351TIP3   OH225247   0.749  -0.277   3.462 -0.0963 -0.0177  0.0482
  351TIP3    H125248   0.679  -0.281   3.527 -0.7563  0.0259 -0.6451
  351TIP3    H225249   0.829  -0.288   3.513 -0.6425 -0.8471  0.7670
  352TIP3   OH225250  -3.047   1.898   3.077 -0.3411  0.0547  0.9461
  352TIP3    H125251  -3.086   1.879   3.163 -0.1245 -0.1639  0.9970
  352TIP3    H225252  -2.957   1.867   3.084 -1.0741 -2.6768 -0.2677
  353TIP3   OH225253   0.247   0.492   2.818 -0.1996  0.1373  0.3155
  353TIP3    H125254   0.178   0.558   2.809  1.0247  1.4815  0.4496
  353TIP3    H225255   0.255   0.453   2.731  0.5452  1.7136 -0.3473
  354TIP3   OH225256   1.794  -1.183   2.422  0.4281  0.0395 -0.3331
  354TIP3    H125257   1.743  -1.264   2.414 -0.5379  0.5466  0.4595
  354TIP3    H225258   1.729  -1.115   2.438  1.0610  1.2882 -2.6337
  355TIP3   OH225259  -3.074   2.291   4.308 -0.3587 -0.4698  0.1613
  355TIP3    H125260  -3.152   2.265   4.356  0.3619 -0.8030  1.1781
  355TIP3    H225261  -3.001   2.276   4.369  0.3212  1.8047  0.0284
  356TIP3   OH225262  -1.836   1.254   3.891  0.2885 -0.1568  0.7377
  356TIP3    H125263  -1.747   1.265   3.924  0.3475 -0.8108  0.8088
  356TIP3    H225264  -1.888   1.232   3.968  0.1474 -0.2292  0.6219
  357TIP3   OH225265  -2.143  -1.962   5.776 -0.6026  0.6806  0.7269
  357TIP3    H125266  -2.232  -1.973   5.810 -0.9614  1.5312  0.0729
  357TIP3    H225267  -2.099  -1.908   5.841 -0.7892  0.8953  0.6756
  358TIP3   OH225268  -1.457   2.460   3.708 -0.3496  0.2494 -0.3937
  358TIP3    H125269  -1.504   2.535   3.746  0.5725  0.5123  0.2623
  358TIP3    H225270  -1.471   2.389   3.770  0.5399  0.4731  0.0728
  359TIP3   OH225271   3.095  -1.799   5.559 -0.9848  0.4508 -0.2174
  359TIP3    H125272   3.168  -1.794   5.620 -0.7644 -0.0482 -0.4379
  359TIP3    H225273   3.122  -1.744   5.485 -0.6902  0.0216 -0.4373
  360TIP3   OH225274  -2.779   0.225   4.674 -0.0811  0.2475 -0.2068
  360TIP3    H125275  -2.791   0.147   4.728  1.2006  2.0095  2.9091
  360TIP3    H225276  -2.684   0.228   4.657 -0.0901  1.1754 -0.1662
  361TIP3   OH225277   0.639   3.323   5.677  0.2703  0.5323  0.1945
  361TIP3    H125278   0.652   3.231   5.698 -1.3864  0.0917 -0.5865
  361TIP3    H225279   0.653   3.328   5.583  1.4563  1.3169  0.3895
  362TIP3   OH225280   2.084  -1.449   5.602 -0.0283 -0.4273  0.8039
  362TIP3    H125281   2.101  -1.493   5.685  0.5029  2.2961  2.2470
  362TIP3    H225282   2.112  -1.358   5.616  1.3273 -0.1129 -2.7759
  363TIP3   OH225283   0.958  -0.273   2.965  0.1812 -0.5556 -0.4658
  363TIP3    H125284   1.018  -0.229   2.905 -0.9760 -0.9589 -2.0003
  363TIP3    H225285   0.957  -0.364   2.935  0.6132 -1.0897  1.0564
  364TIP3   OH225286  -2.481   2.953   3.353  0.8463  0.2190 -0.0063
  364TIP3    H125287  -2.507   2.892   3.422 -1.6714  0.0785 -0.9578
  364TIP3    H225288  -2.497   2.905   3.272  3.9553  0.2979 -0.7783
  365TIP3   OH225289  -2.040  -2.461   5.764  0.1033 -0.0227  0.0169
  365TIP3    H125290  -1.964  -2.503   5.804 -0.3341 -0.5294  0.3313
  365TIP3    H225291  -2.024  -2.367   5.775  0.9672 -0.1045 -0.4554
  366TIP3   OH225292  -1.218  -3.192   5.397 -0.3488  0.0302 -0.2082
  366TIP3    H125293  -1.264  -3.142   5.465  1.4937 -1.8769  2.6371
  366TIP3    H225294  -1.149  -3.133   5.368 -0.7700  0.6525  0.0195
  367TIP3   OH225295   0.876  -2.235   4.761  0.1721  0.1273 -0.1150
  367TIP3    H125296   0.901  -2.146   4.738  0.7232 -0.0543 -0.2417
  367TIP3    H225297   0.935  -2.291   4.710  0.0241 -0.3035  0.1734
  368TIP3   OH225298  -2.240   2.745   5.880 -0.1547  0.4058  0.1476
  368TIP3    H125299  -2.158   2.793   5.876 -0.6714  1.3474  0.5288
  368TIP3    H225300  -2.308   2.812   5.872 -0.8948 -0.3289  0.0712
  369TIP3   OH225301  -0.617   1.047   4.918  1.0336 -0.1063 -0.1199
  369TIP3    H125302  -0.556   1.000   4.860  0.6213  1.2854 -1.7462
  369TIP3    H225303  -0.632   0.986   4.990  2.9981 -1.1794 -0.5277
  370TIP3   OH225304  -0.041   3.163   4.399  0.0842  0.2409 -0.1442
  370TIP3    H125305  -0.042   3.069   4.417  0.4147  0.5182  1.4476
  370TIP3    H225306   0.042   3.177   4.354 -1.1297 -0.5973 -2.8794
  371TIP3   OH225307   0.709   1.199   5.008  0.2097 -0.4028 -0.4647
  371TIP3    H125308   0.791   1.241   4.981 -0.8789  1.2547 -1.3549
  371TIP3    H225309   0.735   1.141   5.080  1.8949  1.5710  0.6504
  372TIP3   OH225310   1.822   1.723   3.292 -0.5374 -0.1300 -0.3026
  372TIP3    H125311   1.728   1.718   3.277 -0.6419  2.0003 -0.5616
  372TIP3    H225312   1.856   1.769   3.216  0.8032 -1.1957 -0.3999
  373TIP3   OH225313  -1.910  -2.906   3.618 -0.0151 -0.6898  0.5757
  373TIP3    H125314  -1.816  -2.907   3.597 -0.2473 -0.9133 -0.4745
  373TIP3    H225315  -1.950  -2.855   3.548 -0.4833  0.9156  1.9469
  374TIP3   OH225316  -1.078  -0.662   2.421  0.2703 -0.0526 -0.0626
  374TIP3    H125317  -1.107  -0.734   2.366 -0.7499  0.5385 -0.3443
  374TIP3    H225318  -1.095  -0.692   2.510 -1.4843  0.3298 -0.2193
  375TIP3   OH225319  -1.265   0.911   5.744  0.4615  0.0192  0.1104
  375TIP3    H125320  -1.315   0.963   5.681 -1.1143  0.1363  1.3998
  375TIP3    H225321  -1.200   0.972   5.779 -1.2070  1.1232  1.4341
  376TIP3   OH225322  -0.682  -0.926   4.412  0.3477  0.0242  0.0305
  376TIP3    H125323  -0.593  -0.890   4.419  0.3644  0.3420 -1.4780
  376TIP3    H225324  -0.719  -0.881   4.336  0.1770 -2.7691 -1.6506
  377TIP3   OH225325   1.317   0.334   3.481  0.3771 -0.6591 -1.1551
  377TIP3    H125326   1.331   0.403   3.417  0.7490  0.2607 -0.1012
  377TIP3    H225327   1.308   0.379   3.564 -0.3272 -1.8167 -0.5701
  378TIP3   OH225328  -2.997  -2.445   5.517 -0.7153  0.1909 -0.0881
  378TIP3    H125329  -3.072  -2.437   5.458 -1.0360  0.6685  0.3780
  378TIP3    H225330  -3.035  -2.470   5.601 -0.4851  1.6012  0.4569
  379TIP3   OH225331  -1.985   1.135   4.093 -0.1449 -0.1751 -0.1502
  379TIP3    H125332  -2.022   1.166   4.176 -1.9911 -1.2440 -0.5145
  379TIP3    H225333  -1.964   1.043   4.109  1.8130  0.2191 -0.1786
  380TIP3   OH225334   1.942  -3.176   3.776 -0.1007  0.1618 -0.5502
  380TIP3    H125335   1.987  -3.155   3.694  2.2027  0.2654  0.6873
  380TIP3    H225336   1.859  -3.127   3.770  0.2325  0.5754 -2.5708
  381TIP3   OH225337   3.271   1.814   3.504 -0.1145  0.5858 -0.0287
  381TIP3    H125338   3.280   1.722   3.530 -1.1497  1.1111  2.4424
  381TIP3    H225339   3.290   1.814   3.410 -1.6397 -2.4175 -0.4545
  382TIP3   OH225340   1.679  -0.101   5.449 -0.2460 -0.1383 -0.3456
  382TIP3    H125341   1.642  -0.016   5.424 -0.1813  0.0508  0.1855
  382TIP3    H225342   1.770  -0.097   5.420  0.5409  1.0295  1.9542
  383TIP3   OH225343  -1.254   0.361   1.965  0.0399 -0.2322  0.8003
  383TIP3    H125344  -1.259   0.306   2.044  3.4325 -2.8345 -0.5212
  383TIP3    H225345  -1.302   0.311   1.899  0.3189  0.0675  0.3707
  384TIP3   OH225346   0.701   2.441   4.454  0.0866  0.6351 -0.3906
  384TIP3    H125347   0.715   2.391   4.373  0.9303 -0.5832  0.4648
  384TIP3    H225348   0.718   2.532   4.430  1.3280  0.1777 -1.3730
  385TIP3   OH225349  -2.356   3.098   5.417  0.2205 -0.4694  0.2880
  385TIP3    H125350  -2.444   3.135   5.424  0.4798  0.1129  0.5448
  385TIP3    H225351  -2.368   3.017   5.368 -0.5329 -0.6567  0.7574
  386TIP3   OH225352   3.278  -0.903   3.465 -0.7833  0.4483  0.1740
  386TIP3    H125353   3.247  -0.990   3.441  0.8269  0.1164 -0.8056
  386TIP3    H225354   3.370  -0.915   3.486  0.3040  2.3573 -2.8824
  387TIP3   OH225355   1.150   0.057   3.772 -0.2725 -0.4334 -0.4197
  387TIP3    H125356   1.162   0.150   3.752  3.2710 -0.6276  0.0480
  387TIP3    H225357   1.088   0.055   3.844  0.4566  1.7154  0.3375
  388TIP3   OH225358  -1.443   2.910   3.088 -0.9801  0.4020  0.2745
  388TIP3    H125359  -1.527   2.877   3.117 -0.6247  0.3638  1.2917
  388TIP3    H225360  -1.432   2.993   3.134  0.1155 -0.2167  1.1871
  389TIP3   OH225361  -1.553  -2.269   4.543  0.3445 -0.2087  0.6106
  389TIP3    H125362  -1.469  -2.224   4.534 -0.0129  0.4998  0.7296
  389TIP3    H225363  -1.608  -2.230   4.475  0.3197 -1.1733  0.0583
  390TIP3   OH225364   3.204   2.726   3.458  0.1564  0.1957 -0.1159
  390TIP3    H125365   3.224   2.790   3.526 -0.2819 -0.7879  0.9659
  390TIP3    H225366   3.118   2.691   3.482 -0.1464  0.0326 -1.3405
  391TIP3   OH225367   0.073  -1.825   4.609  0.5362  0.1685 -0.5979
  391TIP3    H125368   0.107  -1.786   4.690 -0.7337  0.4648 -0.1838
  391TIP3    H225369   0.076  -1.919   4.624 -0.6872  0.2403  0.2480
  392TIP3   OH225370   1.306  -0.744   2.390 -0.5723 -0.0437 -0.2088
  392TIP3    H125371   1.388  -0.748   2.341  0.5094  1.0249  1.4289
  392TIP3    H225372   1.306  -0.823   2.444  0.8851  1.3174  1.9491
  393TIP3   OH225373   1.603   0.282   2.510 -0.2456  0.5311 -0.0957
  393TIP3    H125374   1.634   0.246   2.593 -0.5465  1.9211  0.6399
  393TIP3    H225375   1.669   0.347   2.486  0.0939 -0.1968 -1.2138
  394TIP3   OH225376   2.547  -1.140   4.048  0.1753 -0.0034  0.1977
  394TIP3    H125377   2.631  -1.162   4.088 -0.2361  0.6041  1.4414
  394TIP3    H225378   2.534  -1.047   4.068  0.5108  0.6861 -2.4194
  395TIP3   OH225379   3.108  -0.727   3.274  0.5144  0.1292 -0.3818
  395TIP3    H125380   3.028  -0.691   3.312  0.6344  0.8727 -0.8007
  395TIP3    H225381   3.134  -0.797   3.333 -1.1432 -0.9810 -0.9223
  396TIP3   OH225382  -1.081   3.239   2.873  0.0633  0.0335 -0.6689
  396TIP3    H125383  -1.065   3.152   2.837 -1.1925  0.3171 -1.9910
  396TIP3    H225384  -1.134   3.223   2.951  1.3622 -0.4700  0.1506
  397TIP3   OH225385   2.356   2.755   4.108 -0.0134 -0.0504  0.2964
  397TIP3    H125386   2.393   2.748   4.020 -0.0713 -0.0181  0.2683
  397TIP3    H225387   2.377   2.672   4.150  1.5835  0.6131  0.8688
  398TIP3   OH225388  -0.197  -2.176   4.417 -0.2669  0.8715  0.6116
  398TIP3    H125389  -0.240  -2.209   4.496 -0.2454 -4.0031 -1.0216
  398TIP3    H225390  -0.268  -2.143   4.362 -0.8242  0.5771  1.1439
  399TIP3   OH225391   0.173  -0.813   4.996  0.3548 -0.9813 -0.3520
  399TIP3    H125392   0.158  -0.888   4.939 -2.2811 -1.5614  0.9571
  399TIP3    H225393   0.215  -0.849   5.074 -1.0620 -1.1769  0.3474
  400TIP3   OH225394   3.286   0.243   2.429  0.6418  0.1266  0.4453
  400TIP3    H125395   3.198   0.268   2.401  0.3214 -0.3473  1.0099
  400TIP3    H225396   3.273   0.162   2.479  1.4191 -0.0412  0.3809
  401TIP3   OH225397  -0.539   2.406   3.901  0.2490  0.2709 -0.2440
  401TIP3    H125398  -0.536   2.329   3.957 -1.2552  1.3912  1.5262
  401TIP3    H225399  -0.577   2.375   3.819 -0.3345 -0.8809  0.4420
  402TIP3   OH225400   1.357  -2.525   5.705  0.2348  0.2926 -0.1097
  402TIP3    H125401   1.313  -2.478   5.776  0.6230  2.0477 -0.9872
  402TIP3    H225402   1.436  -2.560   5.745 -0.5819 -0.5760  0.8150
  403TIP3   OH225403  -0.685  -2.550   3.151 -0.6775 -0.3137  0.3976
  403TIP3    H125404  -0.733  -2.510   3.223 -1.2029  2.5012 -1.3629
  403TIP3    H225405  -0.601  -2.503   3.148  0.0123 -1.5054  0.1464
  404TIP3   OH225406  -0.603  -2.202   3.047  0.4094  0.6795 -0.0372
  404TIP3    H125407  -0.627  -2.232   3.134  0.5895  0.8204  0.0608
  404TIP3    H225408  -0.681  -2.219   2.994  0.3497  0.4612  0.1176
  405TIP3   OH225409  -1.143   1.827   3.108  0.0003 -0.3708  0.3852
  405TIP3    H125410  -1.144   1.917   3.140 -0.3934 -0.4626  0.6440
  405TIP3    H225411  -1.052   1.800   3.115  0.3206  0.3634 -0.7107
  406TIP3   OH225412   0.506   1.332   2.761 -0.6509  0.0506  0.4933
  406TIP3    H125413   0.587   1.287   2.739  0.8380  2.9254 -0.3851
  406TIP3    H225414   0.520   1.363   2.851 -1.0447 -0.0152  0.5791
  407TIP3   OH225415  -2.831  -2.624   4.448  0.0001  0.6123  0.1556
  407TIP3    H125416  -2.787  -2.708   4.457  1.4335  0.8565 -3.2242
  407TIP3    H225417  -2.924  -2.646   4.439  0.3191 -0.5895 -0.2924
  408TIP3   OH225418   1.218   0.773   4.838 -0.1137  0.2687  0.3037
  408TIP3    H125419   1.285   0.818   4.889 -1.2123  1.4218  0.8040
  408TIP3    H225420   1.157   0.739   4.904 -0.5422  0.1179 -0.1651
  409TIP3   OH225421  -0.039  -0.649   2.857 -0.0246 -0.2116  0.0967
  409TIP3    H125422  -0.129  -0.652   2.825 -0.0594  1.1787 -0.0240
  409TIP3    H225423   0.015  -0.655   2.777 -0.0623  0.7548 -0.0142
  410TIP3   OH225424   0.419  -1.275   4.030  0.1892  0.5728  0.1821
  410TIP3    H125425   0.470  -1.197   4.007  0.8795 -0.4744 -2.1824
  410TIP3    H225426   0.391  -1.311   3.946 -1.0388 -1.1445  1.2544
  411TIP3   OH225427   0.176  -1.025   3.263 -0.0614  0.2628  0.0259
  411TIP3    H125428   0.178  -0.972   3.183 -0.7310  0.1751 -0.0592
  411TIP3    H225429   0.237  -1.097   3.247  0.2919  0.6003 -0.1495
  412TIP3   OH225430   1.070  -0.960   2.505  0.2884 -0.3955 -0.4778
  412TIP3    H125431   1.047  -1.027   2.440 -2.0388 -0.6537  0.5058
  412TIP3    H225432   1.165  -0.967   2.514  0.2140 -3.0382 -0.9929
  413TIP3   OH225433   3.100   0.457   5.583 -0.5555  0.3834 -0.2403
  413TIP3    H125434   3.160   0.433   5.654 -0.2560  2.0540  0.1004
  413TIP3    H225435   3.153   0.453   5.504 -0.5247 -0.0673 -0.2018
  414TIP3   OH225436  -2.205  -2.015   4.417  0.3660  0.0134 -0.1389
  414TIP3    H125437  -2.181  -2.083   4.480  0.2158 -1.3628 -1.4942
  414TIP3    H225438  -2.275  -1.966   4.459  1.6146  0.4337  1.5579
  415TIP3   OH225439  -2.960  -2.488   5.889 -0.1157 -0.0286  0.2350
  415TIP3    H125440  -3.027  -2.521   5.830 -1.9057  1.2658  1.4131
  415TIP3    H225441  -2.989  -2.399   5.911 -0.3508 -0.8536  4.0494
  416TIP3   OH225442  -0.433   0.492   4.823 -0.1275 -0.3238  0.1618
  416TIP3    H125443  -0.418   0.583   4.801 -0.6471  0.3847  2.4302
  416TIP3    H225444  -0.369   0.473   4.892 -0.0170 -1.6783 -0.2848
  417TIP3   OH225445   0.633  -2.806   3.667 -0.5758  0.2433 -0.3160
  417TIP3    H125446   0.589  -2.870   3.611  2.1288 -1.5143 -0.6268
  417TIP3    H225447   0.578  -2.801   3.745 -1.4834 -1.6485 -0.7559
  418TIP3   OH225448  -0.935   0.382   4.588  0.1818 -0.1686 -0.2662
  418TIP3    H125449  -0.910   0.463   4.632 -1.7516  0.6601 -0.5914
  418TIP3    H225450  -1.017   0.356   4.629 -0.1713 -0.9530 -1.4079
  419TIP3   OH225451  -0.206   1.384   4.766 -0.0812 -0.0144 -0.2676
  419TIP3    H125452  -0.130   1.437   4.744 -0.7244  0.4663 -1.4339
  419TIP3    H225453  -0.171   1.298   4.785  0.7805  0.2735 -0.5205
  420TIP3   OH225454  -3.017  -1.722   5.752 -0.1919  0.3324  0.0999
  420TIP3    H125455  -3.056  -1.721   5.665  0.4176  0.5864 -0.1714
  420TIP3    H225456  -3.030  -1.632   5.785  2.1156  1.0952 -0.8817
  421TIP3   OH225457   3.067  -2.151   4.481 -0.4660 -0.1402 -0.2241
  421TIP3    H125458   2.997  -2.142   4.546 -0.5469 -1.5637 -0.0795
  421TIP3    H225459   3.022  -2.147   4.397 -0.2666  2.5702 -0.2862
  422TIP3   OH225460   2.067   2.654   3.201  0.3054 -0.0019 -0.1083
  422TIP3    H125461   2.095   2.714   3.270  1.7843  0.3800 -0.9918
  422TIP3    H225462   1.975   2.636   3.220  0.5942  0.3313  1.7699
  423TIP3   OH225463   2.618   1.057   3.295 -0.1557 -0.7992 -0.1687
  423TIP3    H125464   2.526   1.038   3.279 -0.4484  0.4058 -0.0391
  423TIP3    H225465   2.619   1.097   3.383  0.2296  0.7699 -0.8390
  424TIP3   OH225466   1.366   0.692   5.356 -0.6238  0.3911  0.4732
  424TIP3    H125467   1.278   0.669   5.325 -0.7430 -1.5604  2.0185
  424TIP3    H225468   1.385   0.627   5.424  1.5211  1.5369  1.0697
  425TIP3   OH225469   0.632  -0.580   3.563  0.3780 -0.1409 -0.5244
  425TIP3    H125470   0.693  -0.544   3.627  0.5213 -1.7823  0.3033
  425TIP3    H225471   0.548  -0.584   3.609  0.0556  0.3643 -1.0509
  426TIP3   OH225472  -2.644   1.460   4.817 -0.4481 -0.1466 -0.2022
  426TIP3    H125473  -2.735   1.480   4.792 -0.7044 -0.9569  0.0631
  426TIP3    H225474  -2.628   1.514   4.894 -0.6563  0.1089 -0.3355
  427TIP3   OH225475  -1.730   0.869   4.557  0.2011 -0.1824 -0.2137
  427TIP3    H125476  -1.782   0.947   4.541  0.6837 -0.2219 -2.2034
  427TIP3    H225477  -1.791   0.806   4.594 -0.2833  0.9808  1.0491
  428TIP3   OH225478   0.546   1.660   5.010 -0.4975  0.2735  0.6029
  428TIP3    H125479   0.614   1.621   4.955 -0.4844  0.2498  0.6359
  428TIP3    H225480   0.534   1.597   5.081 -2.2649 -0.8966 -0.6581
  429TIP3   OH225481  -1.550  -2.510   4.659  0.6123  0.2723 -0.1370
  429TIP3    H125482  -1.541  -2.415   4.652 -1.1446  0.5876  1.1993
  429TIP3    H225483  -1.644  -2.526   4.661  0.8686 -1.4845 -0.0833
  430TIP3   OH225484   1.893   1.439   4.415 -0.0640 -0.0281  0.3502
  430TIP3    H125485   1.898   1.345   4.430 -0.8086 -0.2524 -0.6641
  430TIP3    H225486   1.843   1.473   4.489  0.0241 -0.4628  0.6108
  431TIP3   OH225487   2.197   2.052   3.849 -0.0937 -0.3014 -0.3730
  431TIP3    H125488   2.151   1.985   3.800 -0.8561 -0.9469  1.1536
  431TIP3    H225489   2.163   2.045   3.938 -2.6285  4.1912 -0.6578
  432TIP3   OH225490   3.088  -1.852   3.684 -0.5936 -0.0775 -0.1042
  432TIP3    H125491   3.018  -1.875   3.745 -0.3045  1.0920  0.6859
  432TIP3    H225492   3.049  -1.788   3.626 -0.6122 -0.5508 -0.6225
  433TIP3   OH225493  -2.379  -2.266   5.063  0.1721  0.7779 -0.0011
  433TIP3    H125494  -2.330  -2.211   5.002 -0.2147  0.6248 -0.4558
  433TIP3    H225495  -2.382  -2.352   5.022 -1.9581  1.1915 -0.8382
  434TIP3   OH225496  -1.939  -0.000   3.857  0.1853 -0.0921 -0.5793
  434TIP3    H125497  -1.957  -0.073   3.916 -0.5381  0.0670 -0.6062
  434TIP3    H225498  -1.845   0.018   3.870  1.2978 -3.2336 -3.0013
  435TIP3   OH225499   1.671  -0.350   4.000 -0.2009  0.2958 -1.0195
  435TIP3    H125500   1.591  -0.398   4.022  0.6500 -0.7223 -0.0214
  435TIP3    H225501   1.721  -0.411   3.946  1.0388 -0.1083  0.5210
  436TIP3   OH225502  -0.667   1.037   5.639  0.1387  0.1624  0.8619
  436TIP3    H125503  -0.621   0.954   5.626  0.9551  0.5625  1.1812
  436TIP3    H225504  -0.617   1.101   5.589 -1.8541  0.0689 -1.4364
  437TIP3   OH225505   1.248  -2.857   2.948 -0.7042 -0.2082  0.1556
  437TIP3    H125506   1.179  -2.793   2.932  0.5049  1.4225  1.1725
  437TIP3    H225507   1.236  -2.883   3.040  0.9696  1.3260  0.8458
  438TIP3   OH225508   2.060  -0.667   5.624  0.1086 -0.0492  0.0906
  438TIP3    H125509   2.026  -0.579   5.607  0.1721 -0.3530 -1.7863
  438TIP3    H225510   2.152  -0.662   5.597  0.2530 -0.5702  0.4711
  439TIP3   OH225511  -1.572   0.452   5.546 -0.2397  0.5577 -0.4194
  439TIP3    H125512  -1.613   0.484   5.626  0.7984 -0.7972  0.7094
  439TIP3    H225513  -1.634   0.387   5.511  0.6529 -1.1814  1.0551
  440TIP3   OH225514  -1.687   1.958   4.078  0.1713  0.4658  0.0790
  440TIP3    H125515  -1.749   1.906   4.027  0.5512  0.2946 -0.2107
  440TIP3    H225516  -1.677   2.039   4.028  2.5816 -0.7431 -1.5740
  441TIP3   OH225517  -3.185   1.524   3.959  0.1735 -0.3907 -0.3630
  441TIP3    H125518  -3.155   1.615   3.949 -1.8859  0.3867 -0.0368
  441TIP3    H225519  -3.161   1.501   4.049 -0.1807  0.1989 -0.1129
  442TIP3   OH225520   1.166  -1.051   5.630 -0.0687 -0.1929  0.4329
  442TIP3    H125521   1.258  -1.080   5.633 -0.1824 -0.4819  1.5403
  442TIP3    H225522   1.120  -1.122   5.586  0.3516  0.3299 -0.9161
  443TIP3   OH225523  -2.289   1.865   4.741  0.4907 -0.2282 -0.0417
  443TIP3    H125524  -2.281   1.828   4.829  3.3061  1.3330  0.4779
  443TIP3    H225525  -2.260   1.796   4.682  1.3098 -0.3867  0.5294
  444TIP3   OH225526   1.660   0.724   5.684  0.6229  0.1196 -0.2953
  444TIP3    H125527   1.749   0.698   5.708  0.2152 -1.9058 -0.7728
  444TIP3    H225528   1.671   0.774   5.603  1.2576 -1.1673 -1.0349
  445TIP3   OH225529   3.049   1.047   5.346 -0.2260  0.1193  0.4293
  445TIP3    H125530   3.035   1.066   5.439 -0.2574  2.0847  0.0740
  445TIP3    H225531   3.143   1.061   5.332 -0.3190  0.4141  0.0683
  446TIP3   OH225532  -0.050   3.327   5.490 -0.4986 -0.1570 -0.4512
  446TIP3    H125533  -0.045   3.347   5.397  0.1245 -1.2806 -0.6836
  446TIP3    H225534   0.033   3.359   5.525 -1.3545  1.6548  0.0400
  447TIP3   OH225535   0.170   2.135   4.240  0.3965 -0.0869  0.0807
  447TIP3    H125536   0.244   2.092   4.282  4.5419  4.2260 -1.7237
  447TIP3    H225537   0.178   2.111   4.148 -1.6582 -0.8524  0.0525
  448TIP3   OH225538   1.027   0.835   5.465  0.0031  0.4655  0.3332
  448TIP3    H125539   1.083   0.765   5.499  0.1697  0.9734  1.1435
  448TIP3    H225540   0.938   0.806   5.486  0.1447  1.2137  2.1433
  449TIP3   OH225541   1.085   2.590   2.680 -0.2777 -0.3489  0.1491
  449TIP3    H125542   1.100   2.497   2.695  0.5194 -0.3593 -0.6060
  449TIP3    H225543   0.990   2.601   2.688 -0.1572 -0.7322  2.8064
  450TIP3   OH225544  -0.792   1.917   4.958 -0.0005 -0.1606  0.3325
  450TIP3    H125545  -0.772   1.868   4.878  0.1432  0.0511  0.2404
  450TIP3    H225546  -0.888   1.916   4.962  0.0158 -1.7561  1.1403
  451TIP3   OH225547   0.010   1.514   4.633 -0.5193  0.3719 -0.2533
  451TIP3    H125548   0.103   1.531   4.644 -0.3506 -0.7314  0.1665
  451TIP3    H225549  -0.033   1.596   4.656  0.2372  0.2867  1.5864
  452TIP3   OH225550  -0.948  -1.734   5.322 -0.2540  0.2279 -0.6130
  452TIP3    H125551  -0.992  -1.809   5.282 -0.5669  0.1536 -0.1385
  452TIP3    H225552  -0.914  -1.683   5.248 -1.1622  0.3037 -0.9826
  453TIP3   OH225553  -1.100   0.823   5.533  0.6683 -0.1335  0.1992
  453TIP3    H125554  -1.150   0.825   5.614  0.2817  0.1074 -0.0402
  453TIP3    H225555  -1.135   0.748   5.485 -0.4405  0.8432 -0.5675
  454TIP3   OH225556  -2.805  -3.012   3.634  0.1285  0.1542 -0.2294
  454TIP3    H125557  -2.817  -2.933   3.580  0.6387  0.0014 -0.5758
  454TIP3    H225558  -2.777  -2.979   3.719 -0.6509  0.3977 -0.0583
  455TIP3   OH225559  -0.832   0.328   4.956  0.3862  0.6098  0.1654
  455TIP3    H125560  -0.919   0.366   4.941  0.6373  1.1129 -0.0571
  455TIP3    H225561  -0.849   0.241   4.991 -0.2085  0.8070  0.3765
  456TIP3   OH225562   0.541   0.927   3.355 -0.0187 -0.5645  0.4230
  456TIP3    H125563   0.565   0.986   3.427 -0.7572 -0.4250  0.5600
  456TIP3    H225564   0.538   0.983   3.278  0.9483 -0.7463  0.2380
  457TIP3   OH225565  -3.246   0.975   3.208  0.0083  0.5047 -0.1507
  457TIP3    H125566  -3.314   1.040   3.230  0.2677  0.7709 -0.1259
  457TIP3    H225567  -3.263   0.952   3.117 -0.0632  0.6386 -0.1719
  458TIP3   OH225568  -0.197  -0.926   3.607  0.1511  0.0525  0.0737
  458TIP3    H125569  -0.267  -0.900   3.546  0.1314  0.0952  0.1143
  458TIP3    H225570  -0.222  -0.885   3.690 -0.3582 -0.8357  0.3720
  459TIP3   OH225571   1.737   2.996   5.691  0.5871  0.4572  0.0621
  459TIP3    H125572   1.645   2.980   5.669  0.7400 -1.4786  0.6731
  459TIP3    H225573   1.782   2.915   5.667  2.1636  1.3886 -0.2706
  460TIP3   OH225574  -1.081   0.417   5.001 -0.1607  0.2892  0.0937
  460TIP3    H125575  -1.118   0.381   4.920 -0.8306 -0.5552  0.7659
  460TIP3    H225576  -1.151   0.470   5.038 -0.0968  0.0960  0.4889
  461TIP3   OH225577   1.685  -2.248   4.857  0.1804 -0.3985 -0.0310
  461TIP3    H125578   1.717  -2.317   4.915  0.3025  1.3306  2.1070
  461TIP3    H225579   1.592  -2.268   4.846  0.2058 -0.8922  0.5899
  462TIP3   OH225580   0.735  -3.113   3.169  0.3641 -0.1429 -0.0626
  462TIP3    H125581   0.743  -3.187   3.230  0.9202 -0.5687 -0.6536
  462TIP3    H225582   0.824  -3.096   3.139  0.1379  0.2872 -0.5006
  463TIP3   OH225583  -3.338  -2.507   4.590 -0.4607  0.2272  0.1953
  463TIP3    H125584  -3.392  -2.434   4.619  0.0437  0.6850  0.0170
  463TIP3    H225585  -3.384  -2.543   4.514 -0.7930  0.2561  0.3813
  464TIP3   OH225586  -0.944   2.565   3.412  0.6296 -0.8793 -0.0514
  464TIP3    H125587  -0.953   2.593   3.321  1.3339 -0.8055 -0.1015
  464TIP3    H225588  -0.984   2.478   3.415  1.7557 -1.4335 -0.7212
  465TIP3   OH225589  -1.297  -0.160   4.280  0.2504  0.2187 -0.5836
  465TIP3    H125590  -1.226  -0.133   4.338 -0.2079 -0.9551  0.5521
  465TIP3    H225591  -1.308  -0.254   4.296 -1.5689  0.3723 -0.7195
  466TIP3   OH225592   1.481   0.466   3.898  0.3673 -0.3439  0.4215
  466TIP3    H125593   1.497   0.371   3.894 -0.6262 -0.5718  1.3176
  466TIP3    H225594   1.541   0.503   3.834  1.2518 -1.5235  0.5274
  467TIP3   OH225595   2.793  -0.266   2.950  1.1856  0.1307 -0.0600
  467TIP3    H125596   2.794  -0.231   3.039 -1.0658  0.8164 -0.2469
  467TIP3    H225597   2.883  -0.257   2.920  1.2168  3.7122  0.6888
  468TIP3   OH225598  -2.437  -2.543   5.227  0.0207 -0.2317  0.4424
  468TIP3    H125599  -2.461  -2.515   5.139  0.1410 -1.3022  0.0514
  468TIP3    H225600  -2.392  -2.627   5.215 -0.0566 -0.4524  1.5258
  469TIP3   OH225601  -2.605   0.928   2.474 -0.2551 -0.4992 -0.0017
  469TIP3    H125602  -2.612   1.018   2.506 -0.4750 -0.5658  0.1377
  469TIP3    H225603  -2.637   0.932   2.384 -3.7613 -1.0725  1.0572
  470TIP3   OH225604   1.919  -1.104   4.404  0.2048  0.6602 -0.1585
  470TIP3    H125605   1.976  -1.072   4.474  1.1717 -0.6158 -0.3315
  470TIP3    H225606   1.906  -1.196   4.424 -0.3259  0.5133 -1.1186
  471TIP3   OH225607  -0.838  -0.446   4.440  0.7611 -0.1961 -0.4550
  471TIP3    H125608  -0.783  -0.520   4.465 -1.4535 -1.1380  2.2597
  471TIP3    H225609  -0.796  -0.370   4.479  1.5046 -0.4538 -0.7304
  472TIP3   OH225610  -0.817  -1.556   2.664  0.2411  0.8567 -0.0968
  472TIP3    H125611  -0.756  -1.517   2.726  0.4000 -0.0242  0.3205
  472TIP3    H225612  -0.761  -1.596   2.597  0.2186 -0.9687  0.8938
  473TIP3   OH225613   2.738   2.632   1.971 -0.3388  0.0534 -0.1666
  473TIP3    H125614   2.770   2.644   2.060  0.6038 -0.3387 -0.4417
  473TIP3    H225615   2.760   2.714   1.926  0.8134 -0.4315 -0.5047
  474TIP3   OH225616  -0.571  -3.320   3.886 -0.7039 -0.3686 -0.5604
  474TIP3    H125617  -0.533  -3.252   3.943 -0.8278 -0.0055 -0.9064
  474TIP3    H225618  -0.508  -3.392   3.889 -0.9629 -0.5735  0.4687
  475TIP3   OH225619   2.891   2.513   4.573 -0.3289 -0.4604 -0.3607
  475TIP3    H125620   2.811   2.496   4.623 -1.7113  2.5592 -1.2873
  475TIP3    H225621   2.958   2.532   4.639 -1.5324  1.2030  0.4335
  476TIP3   OH225622   0.061   1.837   4.571  0.3140  0.5977  0.1997
  476TIP3    H125623   0.139   1.784   4.556 -0.6963 -0.9964  0.2674
  476TIP3    H225624   0.087   1.899   4.639  1.7033  0.5420 -0.2594
  477TIP3   OH225625   1.243  -0.967   5.090 -0.5584  0.0391  0.0738
  477TIP3    H125626   1.285  -0.946   5.174 -0.1251  1.7651 -0.5298
  477TIP3    H225627   1.198  -0.887   5.065 -0.3201 -0.2955 -1.5505
  478TIP3   OH225628  -3.032  -1.664   3.518  0.4861  0.6153 -0.1448
  478TIP3    H125629  -3.069  -1.752   3.511  2.0702 -0.1076  0.1461
  478TIP3    H225630  -3.024  -1.648   3.612  1.2649  0.5756 -0.1915
  479TIP3   OH225631   0.717   2.690   2.059 -0.1660 -0.2997  0.4645
  479TIP3    H125632   0.647   2.706   1.996 -0.3574 -0.1152  0.7215
  479TIP3    H225633   0.796   2.723   2.015 -0.5941  1.7157  1.1066
  480TIP3   OH225634  -2.797   1.066   4.898  0.1440  0.4124 -0.5752
  480TIP3    H125635  -2.849   1.146   4.908  0.4745  0.9342 -2.5855
  480TIP3    H225636  -2.816   1.036   4.809  1.7802 -0.4749 -0.6566
  481TIP3   OH225637   3.162   0.497   4.436 -0.1699  0.0178  0.0780
  481TIP3    H125638   3.183   0.463   4.348 -1.3980  1.2585 -0.7374
  481TIP3    H225639   3.093   0.439   4.468  0.1514 -0.3265  0.1513
  482TIP3   OH225640  -2.994   1.805   2.308 -0.1861  0.1907 -0.1598
  482TIP3    H125641  -3.034   1.722   2.334  1.0781  0.2561  2.3658
  482TIP3    H225642  -3.057   1.845   2.248 -1.9937 -1.4610  0.5311
  483TIP3   OH225643   0.460   0.800   4.174  0.1414 -0.0378 -0.1937
  483TIP3    H125644   0.463   0.722   4.231  0.0615 -0.5166 -0.8312
  483TIP3    H225645   0.535   0.789   4.116 -0.9100 -0.5786 -1.4883
  484TIP3   OH225646  -2.528   0.948   4.756 -0.0114  0.4442 -0.1138
  484TIP3    H125647  -2.562   1.027   4.714 -2.0218 -0.0116  0.5443
  484TIP3    H225648  -2.533   0.881   4.688 -1.4446  0.1497  0.2562
  485TIP3   OH225649  -1.347   1.587   4.324  0.2049  0.1402 -0.5215
  485TIP3    H125650  -1.395   1.574   4.242  0.3012  0.0855 -0.5713
  485TIP3    H225651  -1.357   1.680   4.344 -0.4030  0.0105 -0.2248
  486TIP3   OH225652  -0.964  -1.344   4.503 -0.1365 -0.4523 -0.4446
  486TIP3    H125653  -0.907  -1.333   4.579 -0.6843  1.4413 -0.2573
  486TIP3    H225654  -0.932  -1.281   4.438  0.5509 -2.2932 -1.9714
  487TIP3   OH225655  -2.554  -1.654   4.619 -0.1873 -1.1861  0.7153
  487TIP3    H125656  -2.496  -1.709   4.567 -1.1914 -2.6811  1.1176
  487TIP3    H225657  -2.634  -1.647   4.568  0.2232  0.7312  0.2366
  488TIP3   OH225658  -1.951  -1.128   3.193 -0.1656  0.1523  0.0904
  488TIP3    H125659  -1.940  -1.078   3.112  1.5688 -1.2817 -0.6367
  488TIP3    H225660  -1.870  -1.114   3.242 -1.5232  1.6783  2.0626
  489TIP3   OH225661   1.157  -3.087   3.607 -0.1959 -0.8711 -0.5924
  489TIP3    H125662   1.193  -3.162   3.560 -0.0304 -1.4919  0.4790
  489TIP3    H225663   1.169  -3.013   3.548  1.0273 -1.4169 -1.0667
  490TIP3   OH225664  -3.327  -2.362   3.400  0.0740 -0.1288  0.3815
  490TIP3    H125665  -3.289  -2.392   3.483 -0.0778 -0.8482  0.1938
  490TIP3    H225666  -3.262  -2.300   3.365  0.4131 -0.2707  0.7482
  491TIP3   OH225667   3.038   0.479   5.056 -0.3544 -0.2746 -0.0182
  491TIP3    H125668   3.100   0.436   5.115 -1.2001  0.9028  1.8173
  491TIP3    H225669   3.091   0.535   5.001  0.4045 -0.9917 -0.0348
  492TIP3   OH225670   3.045   3.249   2.837  0.8809  0.2927 -0.7074
  492TIP3    H125671   2.976   3.211   2.782  0.2435 -0.9621  0.8898
  492TIP3    H225672   3.001   3.321   2.883 -0.1815 -2.0115  2.1640
  493TIP3   OH225673  -0.712   2.987   1.953  0.0312 -0.0550 -0.3606
  493TIP3    H125674  -0.764   3.049   2.005  0.1571 -0.8388  0.7340
  493TIP3    H225675  -0.770   2.913   1.937 -0.1606  0.3679 -1.7775
  494TIP3   OH225676  -0.097  -1.450   3.734  0.1675  0.5013 -0.2760
  494TIP3    H125677  -0.181  -1.477   3.697  0.9942 -1.6926 -0.7262
  494TIP3    H225678  -0.033  -1.469   3.665  1.0506  2.4336 -0.0715
  495TIP3   OH225679  -2.781   3.276   5.031  0.4750  0.5351 -0.1676
  495TIP3    H125680  -2.789   3.194   5.079  3.1077  0.3661  0.0830
  495TIP3    H225681  -2.786   3.344   5.098 -2.9855  0.7760 -0.4901
  496TIP3   OH225682   1.726   1.508   3.012 -0.1913  0.7049 -0.2425
  496TIP3    H125683   1.817   1.504   2.982 -0.0187  0.7953  0.2719
  496TIP3    H225684   1.728   1.476   3.102 -0.9826 -1.3286 -0.8997
  497TIP3   OH225685   0.918   0.116   4.744 -0.0470  0.6114 -0.4690
  497TIP3    H125686   0.934   0.061   4.667 -1.5477 -1.1732  0.4171
  497TIP3    H225687   0.848   0.071   4.792 -1.4257  3.3406  0.3061
  498TIP3   OH225688   1.444  -1.605   5.663 -0.0201  0.6961 -0.2032
  498TIP3    H125689   1.487  -1.673   5.612 -0.7727 -0.0025  0.0599
  498TIP3    H225690   1.353  -1.607   5.632 -1.2517 -1.6793  2.9753
  499TIP3   OH225691   0.498   1.076   4.193 -0.0216 -0.1685 -0.1856
  499TIP3    H125692   0.593   1.075   4.211  0.0332  0.3098 -0.4411
  499TIP3    H225693   0.467   0.991   4.225  0.1330  0.4720  1.8619
  500TIP3   OH225694  -1.482  -0.972   2.913  0.6795 -1.1486 -0.1292
  500TIP3    H125695  -1.480  -1.019   2.830  0.1507 -1.1073 -0.1681
  500TIP3    H225696  -1.515  -0.885   2.892 -0.6678 -1.5314  0.2984
  501TIP3   OH225697  -2.459  -3.177   5.104  0.1508  0.0973  0.2290
  501TIP3    H125698  -2.500  -3.136   5.180  1.0487 -0.9296  1.3090
  501TIP3    H225699  -2.451  -3.106   5.039 -1.4024  0.7859  0.7515
  502TIP3   OH225700  -2.320  -2.492   3.120 -0.2504 -0.6376  0.1345
  502TIP3    H125701  -2.285  -2.562   3.175 -1.0090 -1.4191 -0.3627
  502TIP3    H225702  -2.281  -2.506   3.034  0.4728  0.2380  0.2957
  503TIP3   OH225703  -1.674  -1.474   4.543  0.0075 -0.1831  0.0037
  503TIP3    H125704  -1.638  -1.523   4.617 -1.0891 -0.2513  0.5198
  503TIP3    H225705  -1.669  -1.383   4.570 -0.9702 -0.2449  0.4600
  504TIP3   OH225706   0.734  -1.672   3.608 -0.7743 -0.1341  0.0602
  504TIP3    H125707   0.739  -1.599   3.670 -1.0218  0.1985 -0.3036
  504TIP3    H225708   0.770  -1.747   3.656 -0.1213  0.3184  0.3001
  505TIP3   OH225709   1.109   1.356   2.986 -0.2499  0.3938 -0.1163
  505TIP3    H125710   1.131   1.374   3.077 -1.2270  1.9942 -0.1585
  505TIP3    H225711   1.095   1.261   2.983  1.6531  0.0248  0.9427
  506TIP3   OH225712  -1.858  -0.058   4.545  0.1653  0.4612  0.0044
  506TIP3    H125713  -1.929  -0.029   4.601 -1.2956  0.7694 -1.8869
  506TIP3    H225714  -1.781  -0.010   4.576 -0.3917  0.0346  2.1569
  507TIP3   OH225715  -2.941  -1.089   4.101  0.4408 -0.0947  0.1101
  507TIP3    H125716  -2.915  -0.997   4.112  0.1015  0.2214 -1.3988
  507TIP3    H225717  -2.994  -1.088   4.021 -0.9477 -1.3508  0.9849
  508TIP3   OH225718   0.787   3.328   3.906  0.6494 -0.3489 -0.2698
  508TIP3    H125719   0.836   3.372   3.837  1.2085  1.1247  1.0263
  508TIP3    H225720   0.720   3.391   3.933  0.1059 -1.1012  0.1988
  509TIP3   OH225721  -0.028   2.015   5.354  0.1016  0.5853  0.1482
  509TIP3    H125722  -0.031   1.989   5.262 -0.2156 -1.4320  0.6921
  509TIP3    H225723   0.056   1.982   5.386 -0.6262 -0.4408  1.0524
  510TIP3   OH225724  -2.736   1.644   2.918 -0.3866  0.2965 -0.2587
  510TIP3    H125725  -2.779   1.562   2.944  0.3958  0.1710  0.7171
  510TIP3    H225726  -2.643   1.620   2.911 -0.2635  0.9157 -0.7810
  511TIP3   OH225727   1.846   0.019   3.486  0.2246  0.3341  0.5565
  511TIP3    H125728   1.913  -0.013   3.426  0.1787 -0.7400  1.0692
  511TIP3    H225729   1.773   0.042   3.429  1.3389  2.4879 -0.1226
  512TIP3   OH225730  -1.034   0.495   4.096  0.6307 -0.1220 -0.4135
  512TIP3    H125731  -1.058   0.433   4.164 -2.0332  1.1474 -0.0753
  512TIP3    H225732  -0.955   0.537   4.129  0.9635 -1.4419  0.5731
  513TIP3   OH225733  -2.834   3.331   4.418 -0.6073  0.3960 -0.2810
  513TIP3    H125734  -2.917   3.311   4.376 -1.7776  0.7883  1.7355
  513TIP3    H225735  -2.810   3.250   4.463 -1.2857  1.0374  1.3076
  514TIP3   OH225736  -2.730   0.523   4.951  0.3568 -0.6179  0.0382
  514TIP3    H125737  -2.701   0.434   4.969 -1.1177 -0.7826  1.8272
  514TIP3    H225738  -2.652   0.577   4.964  0.8194 -1.4521  0.8072
  515TIP3   OH225739   0.889   2.730   4.726 -0.2035 -0.0599 -0.2155
  515TIP3    H125740   0.861   2.772   4.808  1.0014  1.2519 -0.4532
  515TIP3    H225741   0.870   2.637   4.740 -0.9428  0.2639  1.1597
  516TIP3   OH225742  -2.102  -0.914   4.779 -0.1614  0.1480 -0.6855
  516TIP3    H125743  -2.046  -0.943   4.707  1.2656 -0.6847  0.6714
  516TIP3    H225744  -2.052  -0.844   4.821  0.7562 -1.7321  1.5715
  517TIP3   OH225745   0.166  -0.270   3.883 -0.3743  0.1486 -0.5420
  517TIP3    H125746   0.206  -0.183   3.883 -2.7003  1.2821 -0.1059
  517TIP3    H225747   0.133  -0.281   3.794 -0.6152 -0.0136 -0.4339
  518TIP3   OH225748   1.999   3.331   3.214 -0.1169 -0.1862 -0.3190
  518TIP3    H125749   2.031   3.264   3.155  0.3405  0.3476 -0.6789
  518TIP3    H225750   1.926   3.289   3.260 -0.2594 -0.7118 -1.0101
  519TIP3   OH225751   0.322  -2.753   3.587 -0.3071  0.3898  0.0362
  519TIP3    H125752   0.227  -2.758   3.582 -0.2731 -1.4171  0.6673
  519TIP3    H225753   0.344  -2.778   3.676  0.7598  0.8434 -0.0790
  520TIP3   OH225754   1.273  -1.209   4.901 -0.0795  0.7843  0.5601
  520TIP3    H125755   1.250  -1.151   4.973 -0.0475  0.4615  0.8361
  520TIP3    H225756   1.296  -1.150   4.829  1.1013  1.1419  1.1879
  521TIP3   OH225757   2.279   0.082   4.675 -0.3311  0.3319 -0.1336
  521TIP3    H125758   2.279   0.052   4.584 -0.7252 -1.4830  0.4226
  521TIP3    H225759   2.371   0.097   4.696 -0.2606  1.0195 -0.8917
  522TIP3   OH225760   1.588   0.121   3.075 -0.1322 -0.1750  0.1852
  522TIP3    H125761   1.563   0.211   3.053  1.5983  0.2558 -0.1835
  522TIP3    H225762   1.682   0.126   3.094 -0.1174 -1.8139  0.7093
  523TIP3   OH225763   3.074   0.654   2.919  0.0021  0.8831 -0.3458
  523TIP3    H125764   3.119   0.673   3.002  0.9311  0.5790 -0.7705
  523TIP3    H225765   3.130   0.691   2.852 -0.5670  0.8094 -0.8674
  524TIP3   OH225766  -1.585  -0.927   4.993  0.1428  0.2995  0.1728
  524TIP3    H125767  -1.658  -0.926   5.055 -0.0463  1.1073 -0.0597
  524TIP3    H225768  -1.543  -0.842   5.003  0.9450 -0.0831  0.1651
  525TIP3   OH225769   2.819  -1.151   4.135 -0.3902  0.1044 -0.3166
  525TIP3    H125770   2.876  -1.207   4.082 -0.2343  0.4523 -0.5170
  525TIP3    H225771   2.878  -1.107   4.196 -0.3710  0.8124 -0.8257
  526TIP3   OH225772  -1.395   2.742   4.107  0.3297 -0.1918  0.0292
  526TIP3    H125773  -1.330   2.811   4.122  1.3525 -1.1542  0.1891
  526TIP3    H225774  -1.465   2.761   4.170 -0.3061  1.7416 -1.2029
  527TIP3   OH225775   1.196  -1.534   5.559  0.0924 -0.4956 -0.0163
  527TIP3    H125776   1.204  -1.502   5.469  0.1321  0.5866  0.3647
  527TIP3    H225777   1.110  -1.505   5.588 -0.2349 -1.4935  0.0576
  528TIP3   OH225778   2.792   2.320   5.659 -0.0641  0.2072 -0.1802
  528TIP3    H125779   2.777   2.411   5.632  0.3769 -0.5598 -3.4709
  528TIP3    H225780   2.706   2.279   5.654  0.1578 -0.1529 -1.5802
  529TIP3   OH225781   0.525   1.683   2.080 -0.0383 -0.5804 -0.1455
  529TIP3    H125782   0.552   1.730   2.159 -1.4063  1.2282 -0.6851
  529TIP3    H225783   0.496   1.752   2.020  0.4706 -1.9387 -2.0536
  530TIP3   OH225784  -3.246  -1.062   3.234 -0.2067  0.2927  0.5140
  530TIP3    H125785  -3.212  -0.995   3.293 -1.2802  0.8053  0.5827
  530TIP3    H225786  -3.306  -1.015   3.176 -0.1105 -0.4166 -0.1860
  531TIP3   OH225787   0.029  -1.388   4.822 -0.1327  0.3297 -0.2508
  531TIP3    H125788   0.114  -1.414   4.859 -1.0977 -1.5995  0.7775
  531TIP3    H225789  -0.012  -1.471   4.797 -1.6215  1.2433 -0.9672
  532TIP3   OH225790  -2.328   2.652   5.135 -0.0151  0.0951 -0.4673
  532TIP3    H125791  -2.285   2.569   5.154 -0.1489  0.2876  0.7624
  532TIP3    H225792  -2.280   2.688   5.060  1.5147 -0.0246  0.4127
  533TIP3   OH225793   0.958   2.185   4.420  0.2528 -0.0948 -0.8498
  533TIP3    H125794   0.981   2.127   4.493  0.6199 -0.0153 -0.9018
  533TIP3    H225795   0.871   2.218   4.443 -0.2201 -1.1035 -1.0888
  534TIP3   OH225796  -2.330   0.652   2.059 -0.4263  0.3556 -0.1682
  534TIP3    H125797  -2.423   0.630   2.055 -0.2625 -0.3644 -0.1666
  534TIP3    H225798  -2.300   0.615   2.141 -0.1638  0.7032 -0.1047
  535TIP3   OH225799  -0.295  -1.236   4.939 -0.2701 -0.6714 -0.0071
  535TIP3    H125800  -0.286  -1.142   4.931 -0.6847 -0.4296  1.9069
  535TIP3    H225801  -0.214  -1.265   4.981  0.4758 -1.3990 -1.8437
  536TIP3   OH225802   0.114   1.550   5.724 -0.4709 -0.0297  0.0994
  536TIP3    H125803   0.184   1.542   5.788 -0.2532  1.1065  0.0221
  536TIP3    H225804   0.092   1.643   5.723  0.1006  0.1507 -2.0482
  537TIP3   OH225805   0.813  -2.811   3.195  0.3530  0.4532  0.5335
  537TIP3    H125806   0.881  -2.878   3.202 -1.3355 -1.2496  1.6133
  537TIP3    H225807   0.789  -2.811   3.102  0.9801  0.2145  0.3676
  538TIP3   OH225808   0.347  -2.639   2.883 -0.2105 -0.3494 -0.8354
  538TIP3    H125809   0.421  -2.587   2.913  2.0256 -2.7725 -1.7874
  538TIP3    H225810   0.334  -2.614   2.792 -2.3678  1.8782 -0.0494
  539TIP3   OH225811   1.510   1.142   3.899 -0.7209 -0.0300  0.5135
  539TIP3    H125812   1.536   1.102   3.981 -0.8159 -2.2964 -0.4813
  539TIP3    H225813   1.416   1.155   3.906 -0.7663 -0.4546  0.6705
  540TIP3   OH225814   2.901   0.925   2.294  0.2501 -0.8627 -0.0209
  540TIP3    H125815   2.909   0.971   2.210  0.6352 -2.5208 -0.9360
  540TIP3    H225816   2.807   0.920   2.310  0.1963  0.0286 -0.0170
  541TIP3   OH225817   0.808  -1.357   4.594  0.0043 -0.2612 -0.0977
  541TIP3    H125818   0.830  -1.448   4.576 -1.0019 -0.8199  1.3555
  541TIP3    H225819   0.855  -1.337   4.675 -1.5289 -0.2075  0.8115
  542TIP3   OH225820  -2.208  -0.960   4.139  0.0244 -0.0929  0.4952
  542TIP3    H125821  -2.237  -1.009   4.216 -0.0984 -0.4526  0.2206
  542TIP3    H225822  -2.263  -0.991   4.068  0.7100 -0.3871  0.0802
  543TIP3   OH225823   0.870  -0.549   2.556 -0.0743 -0.0766 -0.0644
  543TIP3    H125824   0.965  -0.547   2.544 -0.0571  0.6072  0.1664
  543TIP3    H225825   0.835  -0.508   2.476 -0.0996  1.2043  0.5814
  544TIP3   OH225826  -1.985  -2.230   5.502  0.1848  0.0847 -0.1771
  544TIP3    H125827  -2.047  -2.216   5.430  1.0259  2.7839 -0.5013
  544TIP3    H225828  -1.976  -2.143   5.542  1.7410 -0.8064  1.5301
  545TIP3   OH225829  -2.784  -3.010   3.296 -0.0484  0.0045  0.3518
  545TIP3    H125830  -2.850  -3.046   3.236 -0.4492 -1.2489  1.5151
  545TIP3    H225831  -2.818  -2.924   3.320 -0.8582 -0.3044  0.3220
  546TIP3   OH225832   1.666  -1.715   5.516  0.5469  0.2932  0.6209
  546TIP3    H125833   1.659  -1.782   5.448  0.9369  1.4861 -0.6325
  546TIP3    H225834   1.695  -1.636   5.470  0.6265  1.1985  2.1409
  547TIP3   OH225835   1.981   0.989   2.871 -0.0883  0.7345 -0.0443
  547TIP3    H125836   1.989   1.063   2.932 -1.2647 -0.2077  1.3140
  547TIP3    H225837   2.068   0.983   2.830  0.9072  1.1268  1.8803
  548TIP3   OH225838  -1.860  -0.339   3.306 -0.5186  0.4077  0.3265
  548TIP3    H125839  -1.887  -0.412   3.251 -1.5630 -0.2456  1.6548
  548TIP3    H225840  -1.924  -0.270   3.287 -0.9095  0.1645  0.7463
  549TIP3   OH225841   2.237  -2.756   3.215  0.4605  0.3512  0.0154
  549TIP3    H125842   2.238  -2.721   3.305  1.7127 -1.1137  0.6084
  549TIP3    H225843   2.226  -2.678   3.160 -0.1015  1.3101  1.4141
  550TIP3   OH225844  -3.148   2.250   4.689 -0.4093 -0.5065 -0.2728
  550TIP3    H125845  -3.178   2.327   4.738 -0.9838  0.8362 -2.6063
  550TIP3    H225846  -3.225   2.194   4.684 -0.4482 -0.4833  0.0506
  551TIP3   OH225847   1.565   3.110   4.383  0.5575  0.2730 -0.4235
  551TIP3    H125848   1.560   3.039   4.447 -0.3411  0.3577 -0.3891
  551TIP3    H225849   1.499   3.173   4.412  0.1089  0.2906 -1.4563
  552TIP3   OH225850  -0.819   1.179   4.789 -0.2982  0.6678 -0.0462
  552TIP3    H125851  -0.782   1.109   4.842 -1.3051  0.7732  0.8088
  552TIP3    H225852  -0.747   1.241   4.779 -0.6062  1.6777  2.9799
  553TIP3   OH225853   0.505   1.222   3.340 -0.3973 -0.2168  0.1041
  553TIP3    H125854   0.482   1.211   3.248 -0.6608  0.8126  0.0358
  553TIP3    H225855   0.483   1.313   3.360  4.3013  1.2479 -0.1744
  554TIP3   OH225856   2.490   0.824   5.420 -0.2865 -0.3963 -0.3276
  554TIP3    H125857   2.554   0.803   5.352  1.3637 -0.6392  1.2118
  554TIP3    H225858   2.408   0.839   5.373  0.9232  0.0647 -2.4021
  555TIP3   OH225859   1.994  -1.355   3.116 -0.2806  0.0335  1.2672
  555TIP3    H125860   2.079  -1.349   3.158  0.7418 -1.4071 -0.4407
  555TIP3    H225861   1.965  -1.264   3.107  1.3449  0.5875  1.3787
  556TIP3   OH225862  -2.668   0.867   5.502 -0.7491  0.4764 -0.3019
  556TIP3    H125863  -2.741   0.929   5.505 -1.1984 -0.0664  0.1499
  556TIP3    H225864  -2.677   0.824   5.417 -1.2173  0.1086 -0.0728
  557TIP3   OH225865   1.238   2.314   5.501  0.0904  0.7317 -0.0901
  557TIP3    H125866   1.208   2.272   5.421  0.0616  0.2979  0.1407
  557TIP3    H225867   1.333   2.319   5.492  0.0417  1.1313 -0.3625
  558TIP3   OH225868   2.465  -0.583   3.226  0.3866 -0.3455 -0.0469
  558TIP3    H125869   2.504  -0.590   3.313 -0.5488  0.3305  0.4325
  558TIP3    H225870   2.467  -0.489   3.206  0.7710 -0.5154 -0.8421
  559TIP3   OH225871  -0.992  -0.283   5.014  0.5446  0.1214 -0.3226
  559TIP3    H125872  -1.078  -0.247   4.994  1.1988  0.5073 -2.7610
  559TIP3    H225873  -1.002  -0.377   5.002  0.0903 -0.0134  1.0068
  560TIP3   OH225874  -3.326   1.648   4.246  0.0980 -0.5230  0.1195
  560TIP3    H125875  -3.348   1.561   4.278  1.1245 -0.2504  1.6887
  560TIP3    H225876  -3.237   1.640   4.212 -0.7252 -0.6428 -2.1784
  561TIP3   OH225877   3.299  -1.466   4.935  0.1197  0.1130 -0.4630
  561TIP3    H125878   3.376  -1.522   4.942 -0.3997 -0.5454  0.2296
  561TIP3    H225879   3.314  -1.413   4.857  2.5330  1.9781  1.1453
  562TIP3   OH225880   2.236  -2.274   2.826 -0.6017 -0.5401 -0.3553
  562TIP3    H125881   2.235  -2.300   2.918 -1.4234  0.8398  0.0496
  562TIP3    H225882   2.163  -2.321   2.786  0.2008 -1.7112 -0.4931
  563TIP3   OH225883   1.471  -0.488   4.148  0.0303 -0.1031  0.1332
  563TIP3    H125884   1.393  -0.481   4.203 -0.6261 -2.6611 -0.3202
  563TIP3    H225885   1.512  -0.570   4.176  2.0831  0.7127 -0.2921
  564TIP3   OH225886  -2.540  -0.671   2.891  0.1080 -0.2172  0.3196
  564TIP3    H125887  -2.622  -0.639   2.928 -1.3118 -0.4585 -2.3511
  564TIP3    H225888  -2.545  -0.766   2.900 -0.3396 -0.2912 -0.6042
  565TIP3   OH225889  -2.302   0.141   3.861 -0.4165 -0.1477 -0.1329
  565TIP3    H125890  -2.213   0.145   3.829 -0.3345 -0.9259 -0.0365
  565TIP3    H225891  -2.351   0.094   3.793 -1.0072  1.2741 -0.7111
  566TIP3   OH225892   1.676   1.027   3.377  0.3113 -0.1500  0.6314
  566TIP3    H125893   1.585   1.023   3.349  0.1121  2.1077  0.7665
  566TIP3    H225894   1.673   1.064   3.466  1.3663  0.9896  0.2347
  567TIP3   OH225895  -0.195  -1.206   3.992 -0.5152 -0.2162  0.5384
  567TIP3    H125896  -0.245  -1.219   3.912 -0.6301  2.0901  0.1676
  567TIP3    H225897  -0.260  -1.216   4.062 -0.3003 -2.8436  0.4877
  568TIP3   OH225898  -2.750   0.294   2.388 -0.9514 -0.0241 -0.0359
  568TIP3    H125899  -2.747   0.361   2.319 -1.3895 -1.2950 -1.3480
  568TIP3    H225900  -2.677   0.315   2.445 -1.4526  1.9431 -0.0438
  569TIP3   OH225901  -1.995  -0.926   5.388  0.1837 -0.5317  0.0816
  569TIP3    H125902  -2.049  -0.848   5.402  1.1280  0.7586 -2.7173
  569TIP3    H225903  -1.906  -0.896   5.407  0.5572 -0.9085 -1.0049
  570TIP3   OH225904  -1.165   0.221   3.365 -0.3311 -0.3224  0.3056
  570TIP3    H125905  -1.256   0.228   3.393 -0.4247 -2.3610  0.6703
  570TIP3    H225906  -1.140   0.310   3.341 -1.9774  0.5310  1.5527
  571TIP3   OH225907  -1.220  -0.159   3.937 -0.1350 -0.3392 -0.0793
  571TIP3    H125908  -1.194  -0.111   4.016 -2.4367 -1.3214  1.4223
  571TIP3    H225909  -1.273  -0.097   3.888  0.2755 -0.0920 -0.2055
  572TIP3   OH225910  -2.033   1.218   1.908 -0.2143  0.4615  0.4507
  572TIP3    H125911  -2.073   1.151   1.851 -3.6097  0.5795  2.4346
  572TIP3    H225912  -1.993   1.168   1.979 -0.2966  0.4362  0.4800
  573TIP3   OH225913   2.644   0.804   3.578 -0.1750 -0.4514 -0.1346
  573TIP3    H125914   2.718   0.769   3.529 -0.6250 -0.2836 -0.9624
  573TIP3    H225915   2.671   0.801   3.669 -0.1054 -2.7660 -0.1770
  574TIP3   OH225916   2.174   0.449   2.107 -0.0406  0.0229  0.3109
  574TIP3    H125917   2.134   0.449   2.021 -2.1883  0.6104  1.2320
  574TIP3    H225918   2.100   0.454   2.168  1.4383  1.6297  2.1349
  575TIP3   OH225919  -3.334  -0.568   2.727  0.6368  0.3404  0.8114
  575TIP3    H125920  -3.248  -0.588   2.688  0.1195 -1.3530  0.4260
  575TIP3    H225921  -3.373  -0.654   2.743 -0.7389  1.0746  1.5685
  576TIP3   OH225922  -2.543  -1.999   3.796  0.5172  0.3348  0.3380
  576TIP3    H125923  -2.638  -2.005   3.808  0.5756  1.6899  1.8069
  576TIP3    H225924  -2.513  -2.090   3.790 -0.9753 -0.1097 -1.3136
  577TIP3   OH225925   1.858  -1.281   2.786 -0.0128 -0.1720 -0.4267
  577TIP3    H125926   1.884  -1.372   2.796 -0.6604 -0.2307  1.0655
  577TIP3    H225927   1.901  -1.235   2.858 -0.8088  0.4333 -0.3162
  578TIP3   OH225928   2.781  -2.223   4.277 -0.0037  0.7030 -0.1912
  578TIP3    H125929   2.851  -2.270   4.233  0.6847  1.5267 -0.0052
  578TIP3    H225930   2.705  -2.281   4.269  0.3399  0.4056 -1.5905
  579TIP3   OH225931  -2.993   1.811   4.293  0.2496  0.1556 -0.0826
  579TIP3    H125932  -3.045   1.872   4.240  0.2330 -0.1344 -0.4065
  579TIP3    H225933  -2.919   1.863   4.324  0.2702  0.3247 -0.4090
  580TIP3   OH225934  -3.000  -0.164   2.486  0.6977  0.0764  0.2334
  580TIP3    H125935  -3.042  -0.088   2.526  1.1831 -0.2075  1.3193
  580TIP3    H225936  -3.041  -0.239   2.529  0.3725 -0.2795 -0.6786
  581TIP3   OH225937  -3.247   2.104   5.706  0.6036 -0.0740  0.2462
  581TIP3    H125938  -3.197   2.177   5.741 -0.8319  0.0538  2.1861
  581TIP3    H225939  -3.289   2.139   5.627 -0.1596  1.2782  1.2057
  582TIP3   OH225940  -3.321   0.768   4.747 -0.4723 -0.3291  0.3280
  582TIP3    H125941  -3.307   0.676   4.723  0.2704 -0.4802  1.3065
  582TIP3    H225942  -3.301   0.816   4.666 -0.4463 -0.9908 -0.0720
  583TIP3   OH225943   0.505  -3.017   5.105  0.1194 -0.5309 -0.2197
  583TIP3    H125944   0.469  -2.929   5.115  0.8869  0.1468 -2.7861
  583TIP3    H225945   0.589  -3.014   5.152  0.4291  0.3073 -0.8106
  584TIP3   OH225946  -1.181  -0.450   4.258  0.6542 -0.5460  0.2081
  584TIP3    H125947  -1.261  -0.495   4.228  1.4746 -0.7912 -1.7457
  584TIP3    H225948  -1.158  -0.495   4.339 -1.3027 -0.3181  0.9451
  585TIP3   OH225949   0.277   1.590   2.823  0.1587 -0.1870 -0.2551
  585TIP3    H125950   0.316   1.677   2.828 -0.4121  0.0579 -0.0566
  585TIP3    H225951   0.276   1.559   2.914 -2.0870  0.6966  0.0986
  586TIP3   OH225952   3.202  -3.038   3.380  0.6535  0.2900 -0.9970
  586TIP3    H125953   3.284  -3.088   3.384  1.1494  0.8649 -2.9719
  586TIP3    H225954   3.144  -3.090   3.325 -0.1093  0.2065 -0.1467
  587TIP3   OH225955   2.286  -1.421   3.181 -0.3234 -1.0507 -0.0964
  587TIP3    H125956   2.321  -1.490   3.238  2.4780 -0.1913 -0.6222
  587TIP3    H225957   2.264  -1.467   3.100 -2.6372 -1.9813  0.9866
  588TIP3   OH225958  -0.123  -2.136   5.406  0.0604  0.0731  0.2218
  588TIP3    H125959  -0.210  -2.165   5.378  0.3628 -0.0999 -0.5623
  588TIP3    H225960  -0.097  -2.072   5.340  0.7535 -0.2701  0.1607
  589TIP3   OH225961  -2.519   3.226   5.036 -0.1560  0.0987  0.3637
  589TIP3    H125962  -2.497   3.297   5.097 -0.6382 -0.5897  1.3669
  589TIP3    H225963  -2.612   3.238   5.018 -0.6056 -1.0502  1.6524
  590TIP3   OH225964  -0.441   2.259   3.118  0.1552  0.2016  0.0884
  590TIP3    H125965  -0.479   2.174   3.141  0.3814 -0.2440 -1.1248
  590TIP3    H225966  -0.347   2.248   3.129  0.0488  1.1916  2.7124
  591TIP3   OH225967   3.170  -3.260   3.722  0.1458  0.1393  0.1089
  591TIP3    H125968   3.188  -3.319   3.795  1.6482 -0.6202 -0.8312
  591TIP3    H225969   3.095  -3.208   3.752  1.0221  0.2309  2.3885
  592TIP3   OH225970   0.677  -3.313   4.698 -0.1534  0.1861 -0.0551
  592TIP3    H125971   0.599  -3.312   4.754  0.2020 -0.0508  0.4507
  592TIP3    H225972   0.646  -3.280   4.614 -0.6011  0.9929  0.4024
  593TIP3   OH225973  -1.817   2.291   3.529 -0.2732 -0.6615 -0.3476
  593TIP3    H125974  -1.854   2.204   3.546  1.8147 -1.3966  0.8333
  593TIP3    H225975  -1.816   2.333   3.615 -0.2971  0.1329 -0.7285
  594TIP3   OH225976   1.834   1.990   5.619  0.0651  0.1752  0.1077
  594TIP3    H125977   1.860   2.043   5.544 -0.4833  2.8755  1.6887
  594TIP3    H225978   1.916   1.970   5.664  0.2939 -0.4554 -0.5879
  595TIP3   OH225979  -2.476  -0.573   5.418  0.6632 -0.2522 -0.3778
  595TIP3    H125980  -2.567  -0.545   5.429  0.7400 -0.2277  0.2251
  595TIP3    H225981  -2.482  -0.663   5.386  0.4273 -0.0353 -0.9587
  596TIP3   OH225982  -3.165   1.331   5.696  0.4587 -0.9098 -0.2467
  596TIP3    H125983  -3.148   1.320   5.789 -0.5668 -2.0226 -0.1624
  596TIP3    H225984  -3.193   1.422   5.686 -0.0858 -0.9713  0.6482
  597TIP3   OH225985   1.888   3.263   3.796 -0.1949 -0.2861 -0.5354
  597TIP3    H125986   1.812   3.270   3.738  0.4454 -0.4753 -1.4088
  597TIP3    H225987   1.937   3.344   3.780  0.0376 -0.3846 -0.3203
  598TIP3   OH225988  -1.652   0.429   4.260 -0.3781  0.4800  0.2357
  598TIP3    H125989  -1.679   0.491   4.192 -1.2935  1.0561  1.1081
  598TIP3    H225990  -1.715   0.358   4.255 -0.8724  0.8615  0.9400
  599TIP3   OH225991   1.428   2.535   5.310  0.1348 -0.2635  0.7284
  599TIP3    H125992   1.461   2.454   5.270 -0.2619 -0.0845  0.0272
  599TIP3    H225993   1.421   2.596   5.238 -0.9069 -0.0311  1.0122
  600TIP3   OH225994  -3.178   0.831   3.775 -0.5022  0.1172 -0.0131
  600TIP3    H125995  -3.265   0.866   3.793 -0.3806 -0.3491  1.6058
  600TIP3    H225996  -3.192   0.737   3.760 -0.1786 -0.1826  1.4017
  601TIP3   OH225997  -2.500  -0.949   2.936 -0.1443 -0.3926  0.2107
  601TIP3    H125998  -2.461  -1.035   2.950 -2.5575 -1.5751  0.2514
  601TIP3    H225999  -2.571  -0.965   2.874 -3.2415  0.6528  3.1399
  602TIP3   OH226000   2.594  -1.830   3.440 -0.5879 -0.5246  0.3669
  602TIP3    H126001   2.647  -1.904   3.411  0.6043  0.9074 -1.2830
  602TIP3    H226002   2.530  -1.869   3.500  0.2286 -2.8141 -0.1425
  603TIP3   OH226003  -0.288   0.969   3.730 -0.5788  0.6078 -0.1176
  603TIP3    H126004  -0.193   0.978   3.738 -0.5208 -0.4820  0.5493
  603TIP3    H226005  -0.315   0.927   3.812 -1.5576  0.2860 -0.5963
  604TIP3   OH226006  -2.444  -2.713   2.880  0.4056  0.0038  0.0708
  604TIP3    H126007  -2.407  -2.788   2.832  1.0887  0.0811  0.4629
  604TIP3    H226008  -2.378  -2.645   2.872  0.1345  0.3052  0.3876
  605TIP3   OH226009  -2.312  -2.470   5.437 -0.3746  0.4793 -0.3518
  605TIP3    H126010  -2.369  -2.505   5.369  0.3758 -0.6744 -0.4119
  605TIP3    H226011  -2.223  -2.481   5.403 -0.0535  1.0719  0.2719
  606TIP3   OH226012   1.303  -1.552   4.487 -0.3556 -0.4738 -0.2430
  606TIP3    H126013   1.280  -1.637   4.448 -0.0432 -1.1754  1.0439
  606TIP3    H226014   1.222  -1.521   4.526 -0.3684 -0.3748 -0.3465
  607TIP3   OH226015   3.083   1.453   3.078 -0.5460 -0.0815  0.1340
  607TIP3    H126016   2.996   1.413   3.081 -0.3229 -0.5410  0.7174
  607TIP3    H226017   3.082   1.519   3.147 -1.3725  1.9439 -1.7004
  608TIP3   OH226018  -1.714   0.667   5.328  0.6786 -0.4648 -0.4034
  608TIP3    H126019  -1.738   0.584   5.288 -0.3672  0.0298 -0.8215
  608TIP3    H226020  -1.742   0.734   5.265  1.1142  0.2279  0.1180
  609TIP3   OH226021  -2.093  -0.079   3.533  0.1290  0.2945  0.3416
  609TIP3    H126022  -2.168  -0.125   3.495 -0.2513 -0.1565  1.6002
  609TIP3    H226023  -2.069  -0.130   3.610  0.9363  1.1278  0.6674
  610TIP3   OH226024   2.162  -0.021   3.514  0.1585  0.3684  0.1123
  610TIP3    H126025   2.135  -0.022   3.606  0.4878  2.0499  0.2578
  610TIP3    H226026   2.256  -0.041   3.516  0.3157  1.0966  0.2162
  611TIP3   OH226027  -3.285  -1.590   2.527 -0.6060 -0.0198  0.0060
  611TIP3    H126028  -3.254  -1.577   2.437 -0.2959  0.3705  0.1614
  611TIP3    H226029  -3.236  -1.665   2.559 -1.7000 -1.0092 -0.5895
  612TIP3   OH226030   3.157   0.597   2.280  0.3512  0.5273  0.2959
  612TIP3    H126031   3.115   0.639   2.205 -1.8197 -0.4670  0.8651
  612TIP3    H226032   3.207   0.524   2.242 -0.0408  0.5438 -0.2732
  613TIP3   OH226033  -0.083  -3.035   2.433 -0.1702  0.4835  0.2237
  613TIP3    H126034  -0.002  -3.066   2.474  0.2120 -0.3802 -1.1396
  613TIP3    H226035  -0.064  -3.034   2.339 -0.7392  3.2420  0.0405
  614TIP3   OH226036   3.034   1.405   4.372  0.1087 -0.3816 -0.1487
  614TIP3    H126037   3.130   1.401   4.379  0.4095  3.3676  0.0675
  614TIP3    H226038   3.003   1.379   4.459  0.9764 -0.8125  0.0471
  615TIP3   OH226039   2.974   3.296   3.202 -0.1659 -0.5594  0.2505
  615TIP3    H126040   2.959   3.324   3.292 -2.5583  1.7765 -0.7340
  615TIP3    H226041   2.927   3.213   3.195 -1.3312  0.0317  0.7841
  616TIP3   OH226042   0.434   1.253   3.044 -0.5005 -0.3291 -0.9921
  616TIP3    H126043   0.518   1.220   3.011 -0.2305 -1.7094  0.8758
  616TIP3    H226044   0.369   1.197   3.002 -0.1856 -1.8447  0.4288
  617TIP3   OH226045  -2.206   3.325   3.516 -0.0239  0.4933  0.1428
  617TIP3    H126046  -2.152   3.331   3.437 -0.4025  1.5851 -0.0395
  617TIP3    H226047  -2.276   3.264   3.492 -0.0092  0.6401 -0.2864
  618TIP3   OH226048  -0.570   2.978   5.856  0.2557  0.3209  0.2523
  618TIP3    H126049  -0.561   2.895   5.809  0.4269  1.5498 -2.0451
  618TIP3    H226050  -0.664   2.993   5.860  0.2355  0.1519  0.4417
  619TIP3   OH226051  -0.180   0.227   4.246  0.3216 -0.0598 -0.0220
  619TIP3    H126052  -0.236   0.277   4.304  2.7101 -0.3028  2.7782
  619TIP3    H226053  -0.124   0.292   4.204 -0.8439  0.0415 -1.4989
  620TIP3   OH226054   0.748   2.377   2.975  0.1634 -0.1443 -0.0443
  620TIP3    H126055   0.828   2.376   3.029  0.3285 -0.6529 -0.2930
  620TIP3    H226056   0.766   2.313   2.906 -0.3253 -0.0014 -0.3004
  621TIP3   OH226057  -0.602   1.653   3.718  0.1450 -0.2271 -0.1357
  621TIP3    H126058  -0.530   1.616   3.768  0.2945 -1.7174 -1.3856
  621TIP3    H226059  -0.576   1.642   3.627 -0.0330  2.5947 -0.6142
  622TIP3   OH226060   1.129   0.321   3.891 -0.2477  0.0254 -0.0749
  622TIP3    H126061   1.197   0.370   3.845  0.2091  0.6926  1.2447
  622TIP3    H226062   1.175   0.280   3.964 -1.3503  1.1358  1.3095
  623TIP3   OH226063  -1.619   2.230   2.568 -0.1700 -0.1272  0.4114
  623TIP3    H126064  -1.620   2.310   2.620 -2.4868 -0.7682  1.4764
  623TIP3    H226065  -1.660   2.256   2.485 -0.3229 -0.0698  0.5049
  624TIP3   OH226066   2.511  -2.620   2.316 -0.1655  0.2922 -0.0478
  624TIP3    H126067   2.530  -2.686   2.249  1.5906 -0.3587  1.0301
  624TIP3    H226068   2.558  -2.542   2.287 -0.0998  0.2699 -0.0009
  625TIP3   OH226069   0.108   1.117   3.887  0.4140 -0.0530 -0.6070
  625TIP3    H126070   0.104   1.032   3.842 -1.0963  0.6387 -1.8714
  625TIP3    H226071   0.200   1.127   3.912  0.7303 -1.7837 -0.9621
  626TIP3   OH226072   2.912  -2.632   2.820 -0.0509 -0.5935  0.2007
  626TIP3    H126073   2.902  -2.538   2.836 -0.7930 -0.2068 -2.1070
  626TIP3    H226074   2.830  -2.671   2.850  0.9742 -0.8342  2.8966
  627TIP3   OH226075  -1.094   1.352   5.283 -0.1616  0.1988  0.0910
  627TIP3    H126076  -1.007   1.381   5.312 -0.6674 -0.1250  2.0447
  627TIP3    H226077  -1.078   1.271   5.236  0.8602  1.5672 -2.1114
  628TIP3   OH226078  -3.098   1.186   4.180 -0.4646  0.0156 -0.1100
  628TIP3    H126079  -3.008   1.171   4.208 -0.9536 -0.8502  1.1010
  628TIP3    H226080  -3.105   1.143   4.095  0.0167 -0.7512  0.2277
  629TIP3   OH226081  -2.448   2.344   6.035 -0.8194  0.4598 -0.2235
  629TIP3    H126082  -2.396   2.390   5.970 -0.6839 -0.7212 -0.9744
  629TIP3    H226083  -2.492   2.414   6.084  0.0841  1.4068 -0.7215
  630TIP3   OH226084  -1.692   0.535   2.599  0.1339 -0.4136 -1.0887
  630TIP3    H126085  -1.787   0.522   2.593 -0.2169  1.4630 -0.2599
  630TIP3    H226086  -1.680   0.589   2.677  1.7219  0.8473 -2.1558
  631TIP3   OH226087   0.177  -0.151   5.228 -0.1507 -0.0298 -0.2560
  631TIP3    H126088   0.109  -0.108   5.176 -0.6573 -1.7173 -1.0364
  631TIP3    H226089   0.245  -0.084   5.237 -1.9844  1.8190  0.7970
  632TIP3   OH226090  -0.327   1.138   5.081 -0.3800  0.4167 -0.0218
  632TIP3    H126091  -0.298   1.227   5.102 -0.3102  0.1457  1.0468
  632TIP3    H226092  -0.337   1.095   5.166  1.1985 -1.1204 -0.5696
  633TIP3   OH226093  -1.007   3.024   2.681  0.4363  0.2384 -0.0159
  633TIP3    H126094  -1.028   3.035   2.588 -1.6038  0.8029  0.4799
  633TIP3    H226095  -1.005   2.929   2.693 -0.9579  0.1458 -0.3189
  634TIP3   OH226096   2.651  -2.104   4.781  0.3823 -0.2178 -0.3046
  634TIP3    H126097   2.590  -2.177   4.768 -0.2930  0.4793 -1.1619
  634TIP3    H226098   2.648  -2.087   4.875  0.0482 -0.8703 -0.1895
  635TIP3   OH226099   2.241   0.807   2.862  0.7228  0.0400  0.5523
  635TIP3    H126100   2.322   0.761   2.884  0.2471 -0.1506  1.9724
  635TIP3    H226101   2.270   0.896   2.841  1.6215 -0.7549 -2.0327
  636TIP3   OH226102  -0.864  -3.095   4.313 -0.2355 -0.6882 -0.8558
  636TIP3    H126103  -0.897  -3.070   4.399  0.3631  2.3295 -1.4016
  636TIP3    H226104  -0.772  -3.072   4.315 -0.1802 -0.7088 -2.2642
  637TIP3   OH226105   2.738   1.725   4.504  0.0331 -0.5262  0.0772
  637TIP3    H126106   2.761   1.706   4.414 -0.4605 -1.8740  0.2148
  637TIP3    H226107   2.776   1.811   4.521  0.4374 -0.4151 -1.2918
  638TIP3   OH226108  -1.358  -1.161   3.425  0.2101  0.4047 -0.2358
  638TIP3    H126109  -1.423  -1.174   3.494 -0.9166  0.4882 -1.2490
  638TIP3    H226110  -1.373  -1.072   3.394  1.6309  0.8640  0.3183
  639TIP3   OH226111   1.986   2.252   4.857 -0.3819  0.3844 -0.3638
  639TIP3    H126112   2.000   2.287   4.769 -1.6912 -2.7394 -1.9929
  639TIP3    H226113   2.060   2.194   4.872 -1.4727 -1.1579 -0.6481
  640TIP3   OH226114   1.246   1.785   4.399 -0.4634  0.3329  0.3261
  640TIP3    H126115   1.299   1.830   4.464 -1.2232 -0.1554  1.2964
  640TIP3    H226116   1.156   1.793   4.430 -0.6325 -1.9211  0.6172
  641TIP3   OH226117  -3.145  -3.043   3.626 -0.3554 -0.3639 -0.0169
  641TIP3    H126118  -3.100  -3.127   3.617  1.0341  0.2358  0.9764
  641TIP3    H226119  -3.129  -2.998   3.543  2.0768  0.3595  0.7764
  642TIP3   OH226120  -3.209  -0.243   4.571 -0.0901  0.1788 -0.4413
  642TIP3    H126121  -3.280  -0.193   4.532 -0.3721  1.2595  1.3229
  642TIP3    H226122  -3.192  -0.200   4.655  0.4647 -1.9640  0.6411
  643TIP3   OH226123  -2.174  -0.950   2.977 -0.0785 -0.0300  0.2516
  643TIP3    H126124  -2.177  -0.924   3.069  0.1618  0.2589  0.1765
  643TIP3    H226125  -2.253  -1.002   2.965 -2.0313  2.8538 -0.2899
  644TIP3   OH226126   0.764  -0.815   2.603  0.4640  0.0584  0.0514
  644TIP3    H126127   0.822  -0.890   2.611 -0.9339 -1.0921 -0.2437
  644TIP3    H226128   0.818  -0.747   2.563  1.8356 -0.6725  0.6082
  645TIP3   OH226129   0.325   1.763   3.266 -0.0209  0.5934  0.1591
  645TIP3    H126130   0.289   1.701   3.330  1.1763  1.0254  1.3093
  645TIP3    H226131   0.398   1.716   3.226  1.0585  1.3243  1.2259
  646TIP3   OH226132   2.997  -1.422   3.003  0.1780 -0.1792  0.3564
  646TIP3    H126133   2.914  -1.411   2.956  0.6008 -0.7937 -0.5752
  646TIP3    H226134   3.044  -1.340   2.988 -0.7164  0.6418  1.8733
  647TIP3   OH226135   3.236   3.197   3.914  0.3974  0.1335  0.3063
  647TIP3    H126136   3.264   3.182   3.824 -1.5100 -1.1376 -0.1226
  647TIP3    H226137   3.316   3.186   3.966  1.4391  0.4694 -1.1779
  648TIP3   OH226138  -0.963  -0.419   6.047  0.4230  0.1012  0.4683
  648TIP3    H126139  -1.024  -0.367   5.994  0.2271 -1.6190 -1.1069
  648TIP3    H226140  -1.019  -0.464   6.110  0.5528  1.4611  1.5967
  649TIP3   OH226141  -2.836  -0.288   3.296 -0.0717 -0.4017  0.1067
  649TIP3    H126142  -2.783  -0.367   3.305 -0.1623 -0.4133  0.5245
  649TIP3    H226143  -2.884  -0.301   3.214 -0.8901 -1.2655  0.7061
  650TIP3   OH226144  -0.004   1.680   3.450  0.2265  0.3740 -0.2027
  650TIP3    H126145  -0.057   1.679   3.371 -1.7958 -0.3100  1.0644
  650TIP3    H226146   0.061   1.610   3.437 -0.7691 -0.4611 -0.8221
  651TIP3   OH226147   2.405   2.152   5.107  0.2259  0.3592 -0.1873
  651TIP3    H126148   2.473   2.100   5.150 -0.3434 -0.4046 -0.1847
  651TIP3    H226149   2.452   2.204   5.041  0.6898 -1.0746 -1.0328
  652TIP3   OH226150  -1.253  -0.813   4.088 -0.0367 -0.2623  0.1322
  652TIP3    H126151  -1.253  -0.895   4.037 -0.5956  0.1810 -0.5868
  652TIP3    H226152  -1.297  -0.750   4.033 -1.5448 -0.0001  1.5649
  653TIP3   OH226153   1.525   0.008   4.093 -0.2670  0.3517  0.4476
  653TIP3    H126154   1.570   0.077   4.142 -0.3821  1.0670 -0.4479
  653TIP3    H226155   1.589  -0.022   4.029  0.0522 -0.9232  1.3132
  654TIP3   OH226156   1.748  -2.584   5.601  0.7147 -0.4438  0.5287
  654TIP3    H126157   1.837  -2.551   5.616  0.7245 -0.3801  0.3341
  654TIP3    H226158   1.712  -2.597   5.689  1.3932 -1.7682  0.6478
  655TIP3   OH226159  -2.983  -1.027   3.051  0.0455 -0.3254 -0.1031
  655TIP3    H126160  -3.011  -1.117   3.033  1.1329 -0.9629  1.2407
  655TIP3    H226161  -2.951  -1.029   3.141 -1.9637  1.9295  0.7823
  656TIP3   OH226162  -2.236  -1.172   4.881  0.2414 -0.7419  0.2647
  656TIP3    H126163  -2.180  -1.101   4.851  0.4035 -0.3203  1.5111
  656TIP3    H226164  -2.271  -1.211   4.800  0.5394  0.4228 -0.4453
  657TIP3   OH226165  -1.224   0.935   2.111 -0.2034  0.1800 -0.2261
  657TIP3    H126166  -1.263   0.893   2.188  0.1213  0.8867  0.3380
  657TIP3    H226167  -1.180   0.864   2.065  1.5433  0.0795  1.4532
  658TIP3   OH226168   3.138   1.717   5.760  0.4498 -0.1244  0.6811
  658TIP3    H126169   3.047   1.737   5.738  0.1986 -0.6211  1.2582
  658TIP3    H226170   3.180   1.802   5.767  0.3323  0.0845 -0.8156
  659TIP3   OH226171  -3.339   0.286   3.822  0.3992  0.0671 -0.5976
  659TIP3    H126172  -3.408   0.245   3.770  2.2474 -2.4297 -1.2651
  659TIP3    H226173  -3.352   0.252   3.911  1.2040 -1.0966 -0.8995
  660TIP3   OH226174  -0.582   0.285   3.318 -0.0151 -0.3134  0.0396
  660TIP3    H126175  -0.526   0.360   3.337 -1.1846  1.0944 -1.7764
  660TIP3    H226176  -0.570   0.268   3.225  0.6498 -2.8042  0.5179
  661TIP3   OH226177  -0.916  -2.459   5.297 -0.4536 -0.0444 -0.0344
  661TIP3    H126178  -1.001  -2.500   5.280  0.1864 -1.3199 -0.2389
  661TIP3    H226179  -0.871  -2.463   5.213  0.7340 -1.6211  0.6394
  662TIP3   OH226180  -0.598  -0.876   5.013 -0.2551 -0.0963  0.2942
  662TIP3    H126181  -0.546  -0.876   4.933  0.1289  0.8903  0.5303
  662TIP3    H226182  -0.533  -0.872   5.083 -0.6016 -0.6178  0.6595
  663TIP3   OH226183  -1.975  -2.295   2.410 -0.0557 -0.3561  0.1445
  663TIP3    H126184  -1.951  -2.205   2.435  0.2649 -0.0328 -1.2329
  663TIP3    H226185  -1.896  -2.346   2.428  0.9536  0.2725 -2.1305
  664TIP3   OH226186   0.203  -2.599   3.950  0.6486  0.0479  0.3434
  664TIP3    H126187   0.142  -2.572   4.019 -0.6164  0.4554 -0.8915
  664TIP3    H226188   0.248  -2.519   3.925 -0.4099  0.3432 -0.7217
  665TIP3   OH226189  -0.940   2.546   3.987  0.3389 -0.0948 -0.2083
  665TIP3    H126190  -1.026   2.547   4.029 -0.1652 -0.9166 -1.1848
  665TIP3    H226191  -0.903   2.632   4.007  0.5648 -0.7697  2.7565
  666TIP3   OH226192  -2.978  -0.951   4.458 -0.5258  0.2384 -0.5888
  666TIP3    H126193  -2.936  -0.909   4.383 -0.4318 -0.0808 -0.7166
  666TIP3    H226194  -3.002  -1.038   4.427  1.4718 -0.7446  0.3572
  667TIP3   OH226195   3.063   2.203   5.786 -0.6211  0.1724  0.1807
  667TIP3    H126196   3.072   2.199   5.691 -0.7739  2.5465  0.0105
  667TIP3    H226197   2.974   2.234   5.800 -0.0281  1.5777  1.0219
  668TIP3   OH226198   0.420  -1.342   3.473  0.3378 -0.3917  0.0825
  668TIP3    H126199   0.343  -1.292   3.501  0.3027  0.0951 -0.8290
  668TIP3    H226200   0.484  -1.329   3.543  0.2500  0.7730 -0.0225
  669TIP3   OH226201  -0.630  -0.665   5.545  0.3950 -0.0210 -0.0301
  669TIP3    H126202  -0.535  -0.659   5.557  0.4765  1.2217 -1.1036
  669TIP3    H226203  -0.665  -0.585   5.584  0.0027  0.5068 -1.3989
  670TIP3   OH226204   2.838   3.087   2.661 -0.3223 -0.3834 -0.3582
  670TIP3    H126205   2.850   3.039   2.579 -1.1185 -1.6016  0.2010
  670TIP3    H226206   2.786   3.163   2.636 -0.9363 -0.9673 -0.9316
  671TIP3   OH226207  -1.509   1.661   5.382 -0.6930 -0.0236  0.7401
  671TIP3    H126208  -1.503   1.571   5.352 -3.2069 -0.5267  1.4905
  671TIP3    H226209  -1.491   1.657   5.476 -1.5089  0.1003  0.9157
  672TIP3   OH226210  -2.709   0.579   4.686  0.8780 -0.0090 -0.0662
  672TIP3    H126211  -2.778   0.526   4.646  1.3547 -0.6942 -0.0029
  672TIP3    H226212  -2.731   0.581   4.779 -0.2907  1.6757 -0.3421
  673TIP3   OH226213   0.246  -1.744   4.401  0.8523  0.1696 -0.0596
  673TIP3    H126214   0.177  -1.745   4.467  1.1772  1.3231  0.3106
  673TIP3    H226215   0.240  -1.658   4.359 -0.4723 -1.1273 -2.7737
  674TIP3   OH226216   1.038  -1.128   5.265 -0.2922  0.0261  0.0181
  674TIP3    H126217   1.010  -1.039   5.286  1.6919  0.7364 -0.1592
  674TIP3    H226218   1.101  -1.117   5.194  2.2602 -1.1682  1.9402
  675TIP3   OH226219   1.316   0.611   4.628 -0.4540  0.6777  0.1245
  675TIP3    H126220   1.291   0.680   4.690  0.9251  0.6641  0.7247
  675TIP3    H226221   1.234   0.588   4.584 -1.6534  0.1251  2.4851
  676TIP3   OH226222  -1.262   2.797   3.814  0.3544  0.5565  0.0018
  676TIP3    H126223  -1.186   2.799   3.756  1.0286  0.7203  0.8649
  676TIP3    H226224  -1.246   2.721   3.871 -0.7415 -0.1517 -0.6001
  677TIP3   OH226225  -0.399  -1.470   4.057 -0.2559  0.3291 -0.4824
  677TIP3    H126226  -0.385  -1.396   4.116 -1.0231  0.0952 -0.0007
  677TIP3    H226227  -0.320  -1.523   4.067  0.0614  0.7997 -0.4287
  678TIP3   OH226228  -1.699  -2.170   4.780  0.4208  0.3386  0.1681
  678TIP3    H126229  -1.635  -2.192   4.712  0.0694 -0.1328 -0.0220
  678TIP3    H226230  -1.763  -2.241   4.775 -0.1793  0.8662  0.2737
  679TIP3   OH226231  -1.849  -0.041   3.434  0.1200  0.3497 -0.4584
  679TIP3    H126232  -1.838  -0.124   3.389  0.9129 -0.4008  1.0615
  679TIP3    H226233  -1.940  -0.041   3.463  0.7733 -1.2427  1.8326
  680TIP3   OH226234  -2.249   3.350   5.004  0.1138  0.5265  0.2926
  680TIP3    H126235  -2.290   3.387   5.082  0.3980  1.6926 -0.0911
  680TIP3    H226236  -2.199   3.275   5.037  0.1771  0.9623  1.2216
  681TIP3   OH226237  -3.148  -2.484   4.344  0.4542 -0.2510 -0.2692
  681TIP3    H126238  -3.110  -2.557   4.394 -0.0227 -0.5788 -0.3754
  681TIP3    H226239  -3.236  -2.515   4.321  0.9973 -0.5233 -2.1476
  682TIP3   OH226240   3.336   1.207   4.182  0.4109 -0.2497  0.3180
  682TIP3    H126241   3.428   1.221   4.161  0.1807 -0.7362 -1.1400
  682TIP3    H226242   3.315   1.277   4.245  1.4020  0.7823 -0.4491
  683TIP3   OH226243   0.299  -0.574   4.038  0.1663  0.4236 -0.3281
  683TIP3    H126244   0.382  -0.542   4.005  0.6694  0.6527  1.0818
  683TIP3    H226245   0.303  -0.669   4.028  1.2680  0.2826  1.1142
  684TIP3   OH226246  -2.446  -0.163   2.431 -0.5379 -0.4150  0.4988
  684TIP3    H126247  -2.519  -0.123   2.384  0.5771 -0.6574 -1.5431
  684TIP3    H226248  -2.420  -0.237   2.377  1.5427 -0.0192  0.8707
  685TIP3   OH226249   2.441  -0.726   2.299  0.0192 -0.5024  0.1085
  685TIP3    H126250   2.525  -0.708   2.257  0.1870  4.0683  1.8035
  685TIP3    H226251   2.376  -0.705   2.232  0.1022 -3.0202 -0.8623
  686TIP3   OH226252  -1.690   2.652   4.497 -0.1129  0.1815 -0.0545
  686TIP3    H126253  -1.694   2.577   4.556  2.6305 -1.3207 -1.6062
  686TIP3    H226254  -1.636   2.716   4.543  0.4344 -0.2174 -0.1350
  687TIP3   OH226255   0.676   1.967   3.798 -0.1150 -0.1852 -0.0670
  687TIP3    H126256   0.741   2.005   3.739 -0.0135 -2.1734 -1.3552
  687TIP3    H226257   0.679   1.873   3.779 -2.4454 -0.4999  0.7776
  688TIP3   OH226258  -2.961   0.147   2.795 -0.0122 -0.2168 -0.1079
  688TIP3    H126259  -3.003   0.233   2.797  1.9937  0.8142  0.3959
  688TIP3    H226260  -3.013   0.097   2.732 -0.0849  2.0094 -2.0066
  689TIP3   OH226261   0.786   2.917   4.554  0.0422 -0.4413  0.1677
  689TIP3    H126262   0.824   2.848   4.609 -1.4426  0.0967  2.0125
  689TIP3    H226263   0.861   2.963   4.517  1.0869 -1.7016  0.6151
  690TIP3   OH226264   3.226   0.355   4.155 -0.2383  0.0745 -0.0017
  690TIP3    H126265   3.188   0.304   4.083  0.4930  0.0375 -0.3686
  690TIP3    H226266   3.307   0.309   4.177 -0.2065  0.3694  0.5122
  691TIP3   OH226267  -1.125  -2.994   4.711  0.4793  0.0671  0.4446
  691TIP3    H126268  -1.070  -2.942   4.653 -0.3475  0.9968  0.4693
  691TIP3    H226269  -1.170  -3.056   4.653 -0.6048  1.2209  0.0234
  692TIP3   OH226270   1.567  -3.241   3.143  0.3272  0.1688 -0.2476
  692TIP3    H126271   1.540  -3.160   3.099 -0.0233 -0.9880 -2.3397
  692TIP3    H226272   1.651  -3.263   3.104  1.3097  0.4235  1.6286
  693TIP3   OH226273   3.282   1.133   5.288  0.3926 -0.8904 -0.0729
  693TIP3    H126274   3.352   1.121   5.224 -0.5572 -0.1881 -1.2841
  693TIP3    H226275   3.322   1.187   5.357  0.9876 -0.2797 -0.8753
  694TIP3   OH226276  -1.433  -0.700   5.252  0.1002 -0.1668 -0.0691
  694TIP3    H126277  -1.379  -0.624   5.275  2.1401 -0.9522 -1.8751
  694TIP3    H226278  -1.522  -0.674   5.275  1.0430  1.7137  1.8489
  695TIP3   OH226279   0.004  -0.027   4.103  0.3303  0.0956 -0.0038
  695TIP3    H126280   0.046   0.017   4.178  0.5884  2.3107 -1.3340
  695TIP3    H226281   0.070  -0.089   4.072  1.4981  1.3830 -0.2323
  696TIP3   OH226282   2.398  -2.152   3.786 -0.1771  0.0309  0.1442
  696TIP3    H126283   2.352  -2.132   3.868 -1.7360 -2.2978 -0.0443
  696TIP3    H226284   2.429  -2.242   3.799  1.5872  0.4546 -0.9790
  697TIP3   OH226285  -1.656  -2.955   4.379  0.1228 -0.1708 -0.3667
  697TIP3    H126286  -1.617  -2.888   4.434  0.0536 -0.3723 -0.0704
  697TIP3    H226287  -1.604  -2.954   4.299 -0.6817  1.1302 -0.8927
  698TIP3   OH226288  -1.612   1.388   4.252 -0.7123 -0.1849  0.0953
  698TIP3    H126289  -1.643   1.333   4.323  1.9013 -0.7096  0.9311
  698TIP3    H226290  -1.664   1.469   4.259 -1.2400 -0.6533  1.9026
  699TIP3   OH226291  -2.332  -0.342   5.339  0.2559 -0.8287  0.2881
  699TIP3    H126292  -2.287  -0.359   5.256  0.6739  0.3279  0.2576
  699TIP3    H226293  -2.398  -0.411   5.345 -0.7607 -0.1225 -1.7200
  700TIP3   OH226294   1.571   0.752   4.797  0.3485  0.3245 -0.1386
  700TIP3    H126295   1.543   0.832   4.841 -0.1969  0.5167 -0.8185
  700TIP3    H226296   1.551   0.682   4.859 -1.6129  0.4598 -0.5572
  701TIP3   OH226297   0.148  -0.682   3.544  0.1915  0.5224  0.2349
  701TIP3    H126298   0.081  -0.649   3.484  1.5008  1.4751 -0.7516
  701TIP3    H226299   0.131  -0.637   3.627 -1.8020 -1.0066  0.7187
  702TIP3   OH226300   3.246  -1.164   4.658 -0.0887  0.9145  1.2061
  702TIP3    H126301   3.164  -1.120   4.639  0.8161  2.3053  0.3218
  702TIP3    H226302   3.223  -1.256   4.668 -1.7924  1.3324  1.3896
  703TIP3   OH226303   1.259   2.992   5.146  0.1819  0.1935 -0.2497
  703TIP3    H126304   1.284   2.970   5.056  0.4771 -0.8893  0.0756
  703TIP3    H226305   1.274   2.911   5.195 -0.8046  0.5002  0.6055
  704TIP3   OH226306   0.446  -2.151   4.115 -0.6999 -0.2968  0.0025
  704TIP3    H126307   0.389  -2.128   4.041  0.9898  2.9900 -0.4917
  704TIP3    H226308   0.407  -2.106   4.190  0.4166  0.8349 -0.0636
  705TIP3   OH226309   1.869  -1.752   5.749 -0.1576 -0.0827 -0.3086
  705TIP3    H126310   1.845  -1.698   5.673 -0.4503 -0.7732 -0.7145
  705TIP3    H226311   1.799  -1.735   5.812 -1.1364 -1.1749 -1.0400
  706TIP3   OH226312  -2.374  -3.316   3.926  0.3331 -0.1445 -0.4101
  706TIP3    H126313  -2.467  -3.334   3.914 -0.2936  1.6650  1.2437
  706TIP3    H226314  -2.360  -3.232   3.883  0.9417  0.1291  0.3010
  707TIP3   OH226315   0.624  -2.156   4.899 -0.2244  0.9074  0.9975
  707TIP3    H126316   0.549  -2.131   4.845  0.3647  0.9181  0.1614
  707TIP3    H226317   0.688  -2.190   4.836 -0.7588 -2.2740  1.9657
  708TIP3   OH226318   2.920   2.726   5.853 -0.3423  0.1031 -0.3736
  708TIP3    H126319   2.880   2.802   5.895 -0.6066 -1.2309  1.9921
  708TIP3    H226320   2.847   2.678   5.814 -0.5662 -0.3162  0.5326
  709TIP3   OH226321   0.347  -2.022   4.339  0.1379 -0.1409 -0.3978
  709TIP3    H126322   0.316  -1.934   4.360  1.9540  0.4572 -0.0678
  709TIP3    H226323   0.275  -2.080   4.363 -0.6572  1.1582  0.4304
  710TIP3   OH226324  -2.348  -1.486   5.313  0.0287 -0.5483 -0.3208
  710TIP3    H126325  -2.433  -1.523   5.289 -0.0686  0.1193 -1.0368
  710TIP3    H226326  -2.284  -1.538   5.265 -0.0259 -0.5884 -0.3501
  711TIP3   OH226327  -2.721   0.961   4.352 -0.4321 -0.0848 -1.0209
  711TIP3    H126328  -2.763   1.027   4.407  0.1139 -0.0895 -0.5866
  711TIP3    H226329  -2.689   0.895   4.414 -2.4191 -1.6336 -1.5551
  712TIP3   OH226330  -2.045   2.550   4.870 -0.3344  0.2192 -0.6988
  712TIP3    H126331  -2.075   2.564   4.780  0.0794  0.2405 -0.8361
  712TIP3    H226332  -2.022   2.638   4.901 -0.4335  0.2064 -0.5880
  713TIP3   OH226333   1.090   0.322   5.183 -0.2794 -0.0241 -0.4314
  713TIP3    H126334   1.063   0.333   5.092 -1.7001 -0.8093 -0.1345
  713TIP3    H226335   1.014   0.282   5.226  0.6190 -0.3167  0.9448
  714TIP3   OH226336   2.235  -1.678   3.436  0.2754 -0.3414 -0.3378
  714TIP3    H126337   2.283  -1.761   3.433  0.2407 -0.4232  1.0843
  714TIP3    H226338   2.150  -1.699   3.397  0.1747 -1.0351  0.2413
  715TIP3   OH226339  -2.081   1.107   4.361  0.4035  0.0190  0.2610
  715TIP3    H126340  -2.166   1.150   4.359  0.5089  0.2365  0.3623
  715TIP3    H226341  -2.094   1.027   4.411  0.0887 -0.3163 -0.3483
  716TIP3   OH226342   1.552   1.441   2.514  1.0803  0.7962  0.4531
  716TIP3    H126343   1.583   1.392   2.437 -1.9092 -0.4217 -0.1055
  716TIP3    H226344   1.554   1.532   2.486 -1.6108  0.2816 -1.8676
  717TIP3   OH226345   3.223   1.733   4.867 -0.2913 -0.2518  0.1635
  717TIP3    H126346   3.155   1.733   4.934 -0.6490 -1.4094 -0.1633
  717TIP3    H226347   3.175   1.733   4.784 -0.0399 -2.9649 -0.0981
  718TIP3   OH226348  -0.232   1.152   5.399 -0.3431  0.0199  0.5106
  718TIP3    H126349  -0.295   1.080   5.401 -1.5546  1.0101 -0.2327
  718TIP3    H226350  -0.276   1.222   5.448  1.3660 -0.1341  2.3800
  719TIP3   OH226351   1.801  -1.299   5.165 -0.2763  0.2880  0.4859
  719TIP3    H126352   1.801  -1.386   5.125 -1.1510  0.0781  0.9289
  719TIP3    H226353   1.851  -1.245   5.103  0.0470 -0.4630  0.0745
  720TIP3   OH226354  -2.822  -2.285   5.206 -0.0696 -0.0347  0.5120
  720TIP3    H126355  -2.798  -2.193   5.215 -0.2219 -0.0432  1.0364
  720TIP3    H226356  -2.757  -2.332   5.258  0.0868 -0.2353  0.1379
  721TIP3   OH226357  -2.275  -2.649   4.750 -0.5612 -0.0755  0.2092
  721TIP3    H126358  -2.200  -2.633   4.807 -1.5226  0.4424  1.3935
  721TIP3    H226359  -2.281  -2.744   4.743  0.5366 -0.1188 -0.3950
  722TIP3   OH226360  -3.068  -0.592   3.515  0.3025  0.3149 -0.3261
  722TIP3    H126361  -3.158  -0.584   3.484  0.9774  2.4512 -1.9353
  722TIP3    H226362  -3.041  -0.503   3.536  1.2935 -0.5377  2.6144
  723TIP3   OH226363  -0.223  -1.792   1.952  0.0156  0.6156 -0.2228
  723TIP3    H126364  -0.252  -1.702   1.941 -0.1404  0.7036  0.7531
  723TIP3    H226365  -0.191  -1.818   1.866 -1.8761  0.8972 -1.0809
  724TIP3   OH226366   2.887  -0.309   5.193 -0.5239 -0.1912 -0.5455
  724TIP3    H126367   2.817  -0.374   5.195  0.4995 -1.3270  1.5235
  724TIP3    H226368   2.847  -0.231   5.233 -0.9811 -0.4125 -0.5606
  725TIP3   OH226369   1.788  -0.712   5.704  0.0825  0.6814  0.3324
  725TIP3    H126370   1.883  -0.700   5.701  0.4685 -1.9383 -2.0434
  725TIP3    H226371   1.757  -0.678   5.620 -1.4772  3.3545  1.8424
  726TIP3   OH226372  -1.836  -2.510   3.911 -0.1820  0.0495  0.9487
  726TIP3    H126373  -1.892  -2.569   3.960 -0.2086  0.0777  0.9529
  726TIP3    H226374  -1.814  -2.440   3.973 -1.0691  0.6444  0.6122
  727TIP3   OH226375  -1.678   0.034   3.126 -0.2939 -0.4158  0.2592
  727TIP3    H126376  -1.694  -0.056   3.097  0.1144 -0.4564  0.1441
  727TIP3    H226377  -1.585   0.048   3.108  0.0678 -0.5620  1.8829
  728TIP3   OH226378   0.387  -0.027   4.210 -0.3373 -0.1795 -0.2168
  728TIP3    H126379   0.436   0.046   4.247 -1.8483  0.6766  0.1889
  728TIP3    H226380   0.399  -0.020   4.116 -1.1650  1.1495 -0.2477
  729TIP3   OH226381  -2.621   1.065   2.766 -0.0516  0.6430  0.0642
  729TIP3    H126382  -2.554   1.017   2.717 -0.8969  0.1769 -0.6517
  729TIP3    H226383  -2.594   1.056   2.857  0.3837 -0.3048 -0.1437
  730TIP3   OH226384   2.336   1.668   2.235  0.4221 -0.1342 -0.0554
  730TIP3    H126385   2.297   1.756   2.235 -0.0018 -0.3239 -0.4895
  730TIP3    H226386   2.406   1.673   2.169 -0.1652 -0.3707 -0.7032
  731TIP3   OH226387   1.619   2.890   4.996 -0.2887 -0.4482  0.3075
  731TIP3    H126388   1.658   2.885   5.083 -0.5226 -1.3790  0.3646
  731TIP3    H226389   1.634   2.980   4.969 -0.7782  0.0424  1.5763
  732TIP3   OH226390  -3.302  -0.702   4.607 -0.9314 -0.1838  0.0336
  732TIP3    H126391  -3.371  -0.765   4.586 -0.8104 -0.0259 -0.8933
  732TIP3    H226392  -3.334  -0.657   4.686 -1.8894 -0.1163 -0.3751
  733TIP3   OH226393   0.719  -2.655   2.694 -0.3240 -0.4301  0.4902
  733TIP3    H126394   0.666  -2.587   2.651 -0.1278 -0.3763  0.3334
  733TIP3    H226395   0.807  -2.619   2.697 -0.2777 -0.5563  0.6769
  734TIP3   OH226396  -1.491  -0.174   3.352 -0.3476  0.2011 -0.2919
  734TIP3    H126397  -1.410  -0.138   3.388 -0.4591  0.7358 -0.5680
  734TIP3    H226398  -1.491  -0.146   3.260 -1.2180  0.8882 -0.1030
  735TIP3   OH226399   0.490  -0.603   4.431 -0.4694  0.1388 -0.0078
  735TIP3    H126400   0.580  -0.579   4.406 -0.0267 -0.8796  0.5667
  735TIP3    H226401   0.499  -0.685   4.479 -1.9548 -1.4965 -2.3125
  736TIP3   OH226402   1.829  -3.292   4.042 -0.4275  0.3058  0.2053
  736TIP3    H126403   1.857  -3.375   4.003 -2.5257 -1.0419  1.3677
  736TIP3    H226404   1.788  -3.244   3.969 -1.8395 -0.9991  0.0706
  737TIP3   OH226405   2.453  -3.157   4.928 -0.5665  0.2310 -1.1808
  737TIP3    H126406   2.377  -3.165   4.870  0.7926 -1.2642 -2.9142
  737TIP3    H226407   2.447  -3.234   4.985  0.0557 -0.3947 -1.9233
  738TIP3   OH226408  -1.906  -1.953   4.389  0.7063 -0.2354  0.3714
  738TIP3    H126409  -1.997  -1.981   4.386  0.9300 -1.4151  2.5701
  738TIP3    H226410  -1.903  -1.889   4.460  1.4068  0.6556 -0.4332
  739TIP3   OH226411   2.017   2.091   3.377  0.5218 -0.3537  0.0486
  739TIP3    H126412   1.934   2.125   3.344  1.2917  0.4599 -1.1325
  739TIP3    H226413   2.028   2.134   3.462  1.3230  2.2985 -1.2590
  740TIP3   OH226414   3.222   1.984   5.785 -0.5159 -0.1056 -0.5120
  740TIP3    H126415   3.308   2.024   5.783  0.3037 -1.7717 -1.2288
  740TIP3    H226416   3.165   2.049   5.824  1.4006  0.3852  1.6481
  741TIP3   OH226417  -0.763   1.066   3.629  0.6239  0.1162  0.2273
  741TIP3    H126418  -0.679   1.025   3.609  0.6883 -0.1821  1.0773
  741TIP3    H226419  -0.826   0.994   3.626  0.4389  0.2876 -0.1125
  742TIP3   OH226420   1.261  -1.573   4.131 -0.3756 -0.1262 -0.2161
  742TIP3    H126421   1.207  -1.579   4.209 -2.0369  0.2005 -1.2847
  742TIP3    H226422   1.209  -1.613   4.062  1.0556 -0.4387 -1.1713
  743TIP3   OH226423  -0.714  -0.317   5.978  0.0198 -0.2689 -0.4322
  743TIP3    H126424  -0.661  -0.337   6.056 -1.1118 -0.2017  0.3819
  743TIP3    H226425  -0.796  -0.364   5.992  0.3074 -1.3903 -2.2808
  744TIP3   OH226426  -2.213  -1.106   3.897 -0.2033  0.1422  0.4045
  744TIP3    H126427  -2.161  -1.143   3.968  0.1067 -0.4508 -0.1199
  744TIP3    H226428  -2.162  -1.030   3.868 -0.8958  1.0880  1.5552
  745TIP3   OH226429   2.957   3.227   3.956  0.5889 -1.3873 -0.4957
  745TIP3    H126430   2.940   3.312   3.995 -1.9917 -1.7909 -0.5743
  745TIP3    H226431   3.052   3.221   3.952  0.8484  1.1888  0.1236
  746TIP3   OH226432   1.791  -2.536   3.944  0.0541  0.1434 -0.3309
  746TIP3    H126433   1.820  -2.467   4.003 -0.5853  0.3968 -0.3010
  746TIP3    H226434   1.860  -2.602   3.948  1.9491  1.8339 -2.2319
  747TIP3   OH226435   1.726   2.325   4.848 -0.2410  0.1217 -0.0260
  747TIP3    H126436   1.719   2.419   4.862 -1.2391 -0.1000  1.0319
  747TIP3    H226437   1.820   2.307   4.855 -0.2205  0.7567  1.7389
  748TIP3   OH226438   0.258   0.349   5.255 -0.4831  0.0187  0.2262
  748TIP3    H126439   0.301   0.271   5.219 -1.6520 -0.1307 -0.8980
  748TIP3    H226440   0.181   0.315   5.300  0.1720  0.3523  1.6602
  749TIP3   OH226441  -0.811   0.952   5.397  0.3845  0.2555  0.4142
  749TIP3    H126442  -0.790   0.889   5.466  0.5906 -1.7165 -1.3323
  749TIP3    H226443  -0.898   0.924   5.365  0.8947  0.2152 -1.0231
  750TIP3   OH226444   0.468  -0.878   3.902  0.0347 -0.2143  0.2242
  750TIP3    H126445   0.521  -0.955   3.922  0.0943 -0.0971  0.5351
  750TIP3    H226446   0.421  -0.901   3.822  0.6437 -0.2706 -0.1247
  751TIP3   OH226447   0.946  -0.721   5.931 -0.0050  0.8198 -0.0945
  751TIP3    H126448   0.947  -0.625   5.924 -2.2013  1.0437  1.6603
  751TIP3    H226449   1.013  -0.750   5.869  1.9744  3.5459  0.5678
  752TIP3   OH226450   1.504  -0.475   5.484  0.2545  0.3782  0.2725
  752TIP3    H126451   1.494  -0.546   5.548 -1.2975 -1.0700 -1.4602
  752TIP3    H226452   1.589  -0.490   5.443 -0.6685 -1.4483 -1.0987
  753TIP3   OH226453   0.235   1.482   3.739 -0.2034  0.6264  0.0417
  753TIP3    H126454   0.225   1.474   3.644 -0.5151  0.5490  0.0814
  753TIP3    H226455   0.156   1.441   3.775 -0.2857  1.0222  0.3211
  754TIP3   OH226456   0.083   3.060   3.701  0.3220 -0.2843 -0.5035
  754TIP3    H126457   0.089   2.986   3.641 -3.7624 -0.8833 -0.4385
  754TIP3    H226458   0.062   3.135   3.644 -0.3578 -0.1993 -0.1535
  755TIP3   OH226459   0.948  -1.404   5.700  0.0300 -0.6466  0.0430
  755TIP3    H126460   0.962  -1.322   5.652  0.0218 -1.2204 -0.9639
  755TIP3    H226461   0.867  -1.388   5.750 -0.6873 -0.4631 -1.1248
  756TIP3   OH226462   0.466  -0.027   5.840  0.5870  0.2737  0.8976
  756TIP3    H126463   0.480   0.001   5.750  1.3324 -0.6754  0.7047
  756TIP3    H226464   0.476   0.053   5.892 -1.6965  1.2359  0.0230
  757TIP3   OH226465   2.137   0.315   5.308 -0.4530  0.5855 -0.7370
  757TIP3    H126466   2.077   0.260   5.257 -0.2265 -0.3680 -0.0108
  757TIP3    H226467   2.082   0.352   5.377 -0.1777 -0.5051  0.0910
  758TIP3   OH226468   2.903  -0.916   4.366 -0.2801 -0.5750  0.2119
  758TIP3    H126469   2.913  -0.898   4.273  3.0664  0.0836  0.5756
  758TIP3    H226470   2.887  -0.830   4.405 -0.1703 -0.6275  0.3758
  759TIP3   OH226471  -1.756  -2.443   2.472 -0.1314  0.0474  0.5824
  759TIP3    H126472  -1.782  -2.482   2.556  0.4725  0.1203  0.8099
  759TIP3    H226473  -1.663  -2.467   2.463  0.3717  1.7429  0.9171
  760TIP3   OH226474   1.270   2.866   2.771  0.4016 -0.2575  0.1927
  760TIP3    H126475   1.228   2.835   2.690  2.1432  0.5806 -1.0880
  760TIP3    H226476   1.243   2.958   2.778  2.1505  0.3837 -0.8124
  761TIP3   OH226477  -0.470  -0.883   3.540  0.2641 -0.5079 -0.0362
  761TIP3    H126478  -0.454  -0.953   3.476 -1.3224 -0.8628 -0.0791
  761TIP3    H226479  -0.490  -0.807   3.487 -0.2689 -0.6013  0.0307
  762TIP3   OH226480   1.309  -1.070   5.959  0.1823 -0.0246 -0.0034
  762TIP3    H126481   1.294  -1.155   5.919 -1.5280  0.3920 -0.2972
  762TIP3    H226482   1.384  -1.085   6.017 -0.0576 -1.7154 -0.0663
  763TIP3   OH226483   2.142   1.715   5.249 -0.2645  0.0060 -0.1080
  763TIP3    H126484   2.053   1.683   5.233 -0.9448  2.1764 -0.9318
  763TIP3    H226485   2.139   1.751   5.338  0.0559 -0.6571  0.1860
  764TIP3   OH226486  -3.250  -0.109   3.861 -0.3069 -0.6928 -0.3414
  764TIP3    H126487  -3.242  -0.169   3.936 -0.6163 -0.7355 -0.3437
  764TIP3    H226488  -3.163  -0.111   3.821 -0.3260 -1.1782 -0.3690
  765TIP3   OH226489   2.123   2.492   5.157  0.0724 -0.4192  0.0384
  765TIP3    H126490   2.074   2.467   5.236 -0.1821 -1.1580 -0.3403
  765TIP3    H226491   2.069   2.559   5.116 -1.0669 -1.7899 -0.7955
  766TIP3   OH226492   2.674  -3.264   3.784  0.2395 -0.2070  0.2809
  766TIP3    H126493   2.672  -3.205   3.708  1.2645 -0.2658  0.1948
  766TIP3    H226494   2.625  -3.217   3.851  0.4022  0.4149 -0.0227
  767TIP3   OH226495   2.630  -1.875   4.628 -0.4701  0.4359 -0.7972
  767TIP3    H126496   2.711  -1.871   4.577 -0.6423  0.6948 -1.0490
  767TIP3    H226497   2.639  -1.955   4.680  0.3073  0.8772 -0.2294
  768TIP3   OH226498  -1.821   2.159   4.786 -0.2471  0.4736  0.3082
  768TIP3    H126499  -1.752   2.224   4.803  0.0635 -0.0315  0.9703
  768TIP3    H226500  -1.876   2.160   4.864 -0.4876  0.2331  0.1454
  769TIP3   OH226501   2.991  -2.983   5.349  0.0857 -0.0655 -0.7098
  769TIP3    H126502   2.991  -2.911   5.285 -0.5037 -0.4414 -1.1344
  769TIP3    H226503   3.037  -3.054   5.304  0.1848 -0.1387 -0.4905
  770TIP3   OH226504  -1.231  -3.040   3.634 -0.4478 -0.3015 -0.2304
  770TIP3    H126505  -1.326  -3.048   3.639 -0.4898  0.6492  0.7584
  770TIP3    H226506  -1.213  -3.035   3.540 -1.6759  2.5454 -0.4160
  771TIP3   OH226507   1.069   0.509   4.456  0.0246 -0.0337 -0.0124
  771TIP3    H126508   1.027   0.424   4.473  1.2465 -0.9790 -1.5464
  771TIP3    H226509   1.005   0.556   4.403 -0.6605  0.0437  0.8444
  772TIP3   OH226510   0.306  -0.204   5.497  0.2861  0.0533  0.3959
  772TIP3    H126511   0.251  -0.221   5.421 -2.2736  0.1418  2.0939
  772TIP3    H226512   0.373  -0.272   5.495  1.4843  1.1435 -2.8797
  773TIP3   OH226513  -1.717   2.648   4.888  0.2955 -0.0351  0.9403
  773TIP3    H126514  -1.750   2.734   4.860  1.6177  0.4951  0.9297
  773TIP3    H226515  -1.647   2.668   4.950 -0.6435 -1.1633  2.4253
  774TIP3   OH226516   0.656  -0.745   5.309  0.4633  0.0095  0.0342
  774TIP3    H126517   0.597  -0.723   5.382  1.6098 -1.0371  1.3169
  774TIP3    H226518   0.614  -0.706   5.232 -0.8896  0.9743  1.2110
  775TIP3   OH226519   1.561  -3.066   5.082 -0.0442  0.2147  0.5334
  775TIP3    H126520   1.492  -3.102   5.137 -0.8069  1.5411  0.5081
  775TIP3    H226521   1.536  -3.091   4.993  0.4582 -0.7744  0.6594
  776TIP3   OH226522  -1.771   1.999   3.484 -0.2182 -0.1275 -0.5981
  776TIP3    H126523  -1.814   1.940   3.423 -1.7551  0.1993  0.1236
  776TIP3    H226524  -1.816   1.986   3.567  2.2837 -1.0897  0.7405
  777TIP3   OH226525   1.887   1.398   3.979  0.0016  0.1031  0.7319
  777TIP3    H126526   1.828   1.324   3.961 -1.7039  1.5291  0.0915
  777TIP3    H226527   1.851   1.439   4.057 -0.5010  1.5702 -0.2254
  778TIP3   OH226528  -1.132   2.562   4.281  0.1371 -0.1470 -0.9637
  778TIP3    H126529  -1.188   2.597   4.212  0.3705 -0.9316 -1.5664
  778TIP3    H226530  -1.192   2.549   4.355  0.0539  1.5055 -0.7042
  779TIP3   OH226531  -0.158   1.710   4.733  0.2548 -0.9618  0.3937
  779TIP3    H126532  -0.070   1.715   4.771  0.4811 -1.9760  0.0115
  779TIP3    H226533  -0.158   1.777   4.665  1.2131 -1.8926 -0.5581
  780TIP3   OH226534   0.586  -1.008   5.168 -0.1795 -0.2271 -0.2593
  780TIP3    H126535   0.636  -0.935   5.205 -0.2210  0.4230 -1.4380
  780TIP3    H226536   0.647  -1.082   5.168  0.0180 -0.0769  0.4787
  781TIP3   OH226537   2.693   0.429   4.380 -0.1784  0.2829 -0.0834
  781TIP3    H126538   2.719   0.492   4.313 -3.0657  2.1482  0.3683
  781TIP3    H226539   2.727   0.345   4.349  2.3841  1.7275 -1.5525
  782TIP3   OH226540   1.610  -1.184   4.589 -0.2197 -0.0628 -0.3134
  782TIP3    H126541   1.614  -1.265   4.539 -4.5161 -0.2436 -0.7612
  782TIP3    H226542   1.622  -1.115   4.525  1.9696 -0.2436 -0.1706
  783TIP3   OH226543   0.782   1.927   4.280  0.2043 -0.0296 -0.8859
  783TIP3    H126544   0.787   1.871   4.203  2.0630 -0.1621 -0.6991
  783TIP3    H226545   0.838   2.002   4.260 -0.2515  0.5369 -0.1306
  784TIP3   OH226546  -1.008   2.966   3.006  0.1571 -0.5426  0.3977
  784TIP3    H126547  -1.055   3.038   3.048  1.8142 -0.3380  2.0073
  784TIP3    H226548  -1.027   2.890   3.061  0.9815 -0.6397  0.5614
  785TIP3   OH226549   3.039  -2.808   5.143  0.0032  0.2062  0.3622
  785TIP3    H126550   3.052  -2.720   5.180 -0.4938 -0.2403  1.6483
  785TIP3    H226551   3.126  -2.835   5.114  0.6978  0.0671  2.4180
  786TIP3   OH226552  -0.883  -0.328   2.048 -0.2276 -1.1532  0.3916
  786TIP3    H126553  -0.865  -0.299   1.959  1.5745 -1.6827  0.5383
  786TIP3    H226554  -0.882  -0.423   2.043 -1.4819 -1.1917  0.7397
  787TIP3   OH226555  -2.662  -0.768   5.005 -0.8062 -0.0955 -0.3741
  787TIP3    H126556  -2.574  -0.734   5.019 -0.1676 -1.8787  0.3581
  787TIP3    H226557  -2.693  -0.724   4.926  0.3541  1.2688 -0.1115
  788TIP3   OH226558   1.921  -0.909   4.858  0.4249 -0.2931  0.2748
  788TIP3    H126559   1.904  -0.999   4.830  0.8620 -0.1103 -0.6452
  788TIP3    H226560   1.859  -0.893   4.928 -0.3659 -0.9718 -0.2552
  789TIP3   OH226561   2.772   3.332   2.863  0.3171  0.2170 -0.1547
  789TIP3    H126562   2.773   3.335   2.767  1.7120  0.3844 -0.1496
  789TIP3    H226563   2.749   3.241   2.884 -1.7579  0.5828 -0.6045
  790TIP3   OH226564  -0.881  -0.318   4.189 -0.7410  0.4593  0.0522
  790TIP3    H126565  -0.904  -0.373   4.114  0.0093  1.1430 -0.6980
  790TIP3    H226566  -0.907  -0.369   4.265  0.8312 -1.4110 -0.5742
  791TIP3   OH226567  -3.116  -2.054   5.482  0.0788  0.1903 -0.3080
  791TIP3    H126568  -3.043  -2.100   5.525 -0.4115  0.4755  0.8590
  791TIP3    H226569  -3.114  -2.086   5.392 -0.8210 -2.8877  0.6565
  792TIP3   OH226570  -3.282   2.062   5.043  0.2582 -0.1111 -0.0379
  792TIP3    H126571  -3.316   2.036   5.129 -1.1299  3.8051  0.8138
  792TIP3    H226572  -3.203   2.111   5.063  1.6807 -1.7352 -1.3635
  793TIP3   OH226573  -2.871   0.671   2.466 -0.3971 -0.4637  0.8021
  793TIP3    H126574  -2.805   0.638   2.405 -1.8666 -0.1675 -1.0379
  793TIP3    H226575  -2.824   0.679   2.549  1.4353 -1.8194 -0.0190
  794TIP3   OH226576  -2.276  -3.174   3.706 -0.0271  0.0907  0.0462
  794TIP3    H126577  -2.240  -3.211   3.625  1.4296  2.0835 -0.2732
  794TIP3    H226578  -2.370  -3.167   3.689  0.0313 -0.9620 -0.8589
  795TIP3   OH226579   2.624   0.938   4.294  0.3595  0.1558 -0.5002
  795TIP3    H126580   2.606   0.859   4.346 -0.6693 -0.5164 -1.8215
  795TIP3    H226581   2.540   0.984   4.291  0.6681  0.7151 -0.7376
  796TIP3   OH226582   1.570  -3.269   5.660 -0.5467 -0.2676 -0.4606
  796TIP3    H126583   1.666  -3.269   5.661 -0.5267 -0.7883 -1.2019
  796TIP3    H226584   1.545  -3.210   5.730  0.3280  1.4612 -1.5357
  797TIP3   OH226585   2.229   0.589   4.439  0.4214  0.1545 -0.0465
  797TIP3    H126586   2.322   0.606   4.459  0.7018  0.9775 -1.8357
  797TIP3    H226587   2.186   0.590   4.524  2.1097 -0.6634  0.8774
  798TIP3   OH226588  -2.056   0.218   3.757 -0.4529  0.9985  0.0015
  798TIP3    H126589  -2.002   0.153   3.801 -0.6416  2.9150  3.3722
  798TIP3    H226590  -2.004   0.245   3.681  0.5304 -1.4736 -0.2966
  799TIP3   OH226591   2.128   3.115   3.111  0.0564 -0.0745  0.2348
  799TIP3    H126592   2.183   3.069   3.175 -0.1357  0.2459  0.6417
  799TIP3    H226593   2.039   3.085   3.131 -0.1559  0.9435  0.9432
  800TIP3   OH226594  -0.070  -0.937   3.352 -0.0328 -0.3273 -0.2041
  800TIP3    H126595  -0.082  -0.987   3.434 -0.2346 -0.6447 -0.4235
  800TIP3    H226596   0.016  -0.964   3.320  0.2118  0.0901  0.1043
  801TIP3   OH226597  -3.231  -0.478   4.787  0.4736 -0.9908  1.3006
  801TIP3    H126598  -3.215  -0.429   4.706  0.2192 -1.3883  1.0004
  801TIP3    H226599  -3.326  -0.487   4.791  0.2151  1.5875  3.2142
  802TIP3   OH226600  -0.718   2.532   4.667 -0.5194 -0.3315  0.0000
  802TIP3    H126601  -0.783   2.569   4.608 -1.6267 -2.3747 -0.1558
  802TIP3    H226602  -0.658   2.485   4.609 -0.2928 -0.4542  0.3314
  803TIP3   OH226603   0.911   0.922   3.855  0.2335 -0.1885  0.1081
  803TIP3    H126604   0.958   0.853   3.903 -0.2580  0.5180  1.6363
  803TIP3    H226605   0.894   0.990   3.920 -1.5180  0.2746 -0.7768
  804TIP3   OH226606   3.268   3.122   3.242  0.0122  0.1279 -0.0707
  804TIP3    H126607   3.335   3.165   3.189  0.3662  0.1874  0.4149
  804TIP3    H226608   3.218   3.195   3.280  0.4670  0.1111  0.5691
  805TIP3   OH226609   2.305   0.360   3.198 -0.7073 -0.5301 -0.5498
  805TIP3    H126610   2.254   0.284   3.228  0.0222 -0.2610  1.5237
  805TIP3    H226611   2.370   0.322   3.138 -1.7410 -1.2157 -1.2706
  806TIP3   OH226612  -2.364  -1.046   4.428 -0.0913 -0.6177 -0.2438
  806TIP3    H126613  -2.378  -0.957   4.458  1.1438 -0.4744 -0.0369
  806TIP3    H226614  -2.282  -1.073   4.469 -0.7994 -2.1116  0.2818
  807TIP3   OH226615   2.409   0.251   4.496 -0.4442  0.5042 -0.1890
  807TIP3    H126616   2.458   0.295   4.566 -1.5594 -0.1366  1.0498
  807TIP3    H226617   2.317   0.257   4.524 -0.9453  0.5171 -1.7800
  808TIP3   OH226618  -2.364  -2.762   5.616 -0.3864 -0.0504 -0.1803
  808TIP3    H126619  -2.372  -2.676   5.657 -1.0533 -0.8267  1.4181
  808TIP3    H226620  -2.299  -2.750   5.547  1.1256  1.2416  1.3813
  809TIP3   OH226621  -2.383   1.362   4.957 -0.6316 -0.1332 -0.4928
  809TIP3    H126622  -2.436   1.282   4.966 -0.8753  0.0828 -0.0058
  809TIP3    H226623  -2.440   1.432   4.987 -0.6691  0.3268 -1.6037
  810TIP3   OH226624  -1.449   2.452   5.659  0.1175 -0.9670  0.3954
  810TIP3    H126625  -1.494   2.534   5.681  1.0632 -0.4908  0.5898
  810TIP3    H226626  -1.366   2.480   5.621  0.5052 -1.8441  0.5842
  811TIP3   OH226627   2.775  -1.098   4.792 -0.3945 -0.0599  0.3309
  811TIP3    H126628   2.733  -1.141   4.867 -1.1068  0.7899  0.4275
  811TIP3    H226629   2.703  -1.063   4.740  0.1642  1.0850  0.2908
  812TIP3   OH226630   1.936  -0.502   4.989 -0.1489 -0.1028  0.2726
  812TIP3    H126631   1.866  -0.507   5.054  0.2543 -0.3270  0.6906
  812TIP3    H226632   1.933  -0.586   4.945  0.6006 -0.5462  1.0615
  813TIP3   OH226633   1.733  -3.000   5.364  0.5542  0.0821 -0.1897
  813TIP3    H126634   1.820  -2.969   5.339 -0.7135  2.7121 -1.8342
  813TIP3    H226635   1.718  -3.076   5.307  1.5662 -0.1059 -0.2350
  814TIP3   OH226636   1.680  -2.012   5.013  0.1378  0.4196  0.2432
  814TIP3    H126637   1.670  -2.100   4.976 -0.3265  1.1142 -1.4176
  814TIP3    H226638   1.774  -1.994   5.008  0.0368  0.7118 -1.2542
  815TIP3   OH226639  -3.279   2.801   3.310  0.3496  0.6694  0.0194
  815TIP3    H126640  -3.277   2.832   3.220 -0.8566  0.5079 -0.0784
  815TIP3    H226641  -3.369   2.771   3.323  1.2292 -2.1228  0.3354
  816TIP3   OH226642  -2.421  -1.448   4.044  0.5624  0.7067 -0.0786
  816TIP3    H126643  -2.478  -1.455   3.968 -0.7909  2.0476  0.7620
  816TIP3    H226644  -2.334  -1.430   4.008  0.2461 -0.2122 -1.3387
  817TIP3   OH226645  -2.430  -1.839   4.443 -0.3392 -0.1189  0.1569
  817TIP3    H126646  -2.476  -1.923   4.429  0.1681 -0.6575  1.5893
  817TIP3    H226647  -2.472  -1.779   4.381 -1.6865 -1.0717  0.0855
  818TIP3   OH226648  -3.102   3.372   3.858  0.1113 -0.4019 -0.5485
  818TIP3    H126649  -3.148   3.340   3.781 -0.9362 -1.3990  0.4579
  818TIP3    H226650  -3.017   3.328   3.856 -0.6584 -2.0069 -0.1131
  819TIP3   OH226651   1.032   0.673   3.547  0.1389 -0.0810  0.0081
  819TIP3    H126652   0.938   0.674   3.530  0.1605 -2.2040 -0.5725
  819TIP3    H226653   1.070   0.729   3.479 -0.6998  0.9517  0.3684
  820TIP3   OH226654  -2.640   2.691   2.709 -0.2150 -0.2159  0.3708
  820TIP3    H126655  -2.555   2.702   2.752 -0.8894 -1.1537  2.0525
  820TIP3    H226656  -2.625   2.719   2.619  2.3225 -1.9261  0.1554
  821TIP3   OH226657   1.910   3.182   4.546  0.1174 -0.1374  0.2676
  821TIP3    H126658   1.953   3.097   4.552  1.3725  0.5425  1.4651
  821TIP3    H226659   1.843   3.170   4.479 -0.8927 -2.5489  1.5742
  822TIP3   OH226660  -3.252  -3.113   3.073  0.5393  0.3802  0.3944
  822TIP3    H126661  -3.293  -3.041   3.025  0.5436  2.0665  2.7169
  822TIP3    H226662  -3.323  -3.148   3.128  1.2525  0.7109  1.5572
  823TIP3   OH226663   1.531   2.037   2.508  0.1514  0.1575  0.6998
  823TIP3    H126664   1.464   1.971   2.488  0.1853  0.0984  0.7808
  823TIP3    H226665   1.493   2.088   2.579 -1.7968  3.0033 -2.0839
  824TIP3   OH226666   3.355   1.178   1.962 -0.0508 -0.1903  0.2718
  824TIP3    H126667   3.304   1.258   1.976  0.0544  0.4597 -2.4934
  824TIP3    H226668   3.434   1.190   2.015 -1.5049 -0.0113  2.5065
  825TIP3   OH226669   1.433   3.337   4.443 -0.1464 -0.6393  0.3211
  825TIP3    H126670   1.339   3.318   4.454 -0.4546  0.2693 -0.6471
  825TIP3    H226671   1.450   3.411   4.502 -0.0120 -0.8617  0.5634
  826TIP3   OH226672  -0.867   2.964   5.666 -0.0953 -0.2648  0.5695
  826TIP3    H126673  -0.937   2.949   5.730 -1.6715  0.0014 -1.0139
  826TIP3    H226674  -0.870   2.888   5.609  1.5066 -0.6466  0.9593
  827TIP3   OH226675  -1.379   2.749   3.457 -0.2880  0.5945  0.0943
  827TIP3    H126676  -1.316   2.712   3.520 -0.0262  1.5191  0.3954
  827TIP3    H226677  -1.418   2.823   3.503 -2.9296 -0.9799  0.5894
  828TIP3   OH226678   2.181   1.824   4.647 -0.5604  0.1415  0.1702
  828TIP3    H126679   2.244   1.889   4.677  0.7134 -0.9054 -0.1327
  828TIP3    H226680   2.232   1.744   4.636 -1.6955 -0.4404 -1.2621
  829TIP3   OH226681  -2.567  -0.820   3.482 -0.2720  0.2161 -0.2639
  829TIP3    H126682  -2.573  -0.762   3.406 -1.6871  0.0859 -0.2733
  829TIP3    H226683  -2.658  -0.836   3.507  0.1173 -1.4419  0.1703
  830TIP3   OH226684   1.491   1.649   5.760 -0.3632  0.0091  0.6045
  830TIP3    H126685   1.527   1.734   5.785  0.0516 -0.4249  1.5525
  830TIP3    H226686   1.403   1.648   5.798 -0.6044  0.2638  0.0509
  831TIP3   OH226687  -1.274  -0.964   5.527 -0.0141 -0.0406  0.1614
  831TIP3    H126688  -1.247  -1.053   5.552  0.7077  0.5010  1.3499
  831TIP3    H226689  -1.233  -0.907   5.591 -2.0667  1.0204  0.6323
  832TIP3   OH226690   0.563   1.668   3.165  0.2609  0.0987  0.0434
  832TIP3    H126691   0.575   1.607   3.237  0.9177  1.0377  0.7495
  832TIP3    H226692   0.553   1.612   3.088 -2.0845 -0.9871  1.0286
  833TIP3   OH226693   1.669  -1.719   5.217  0.1559  0.7340  0.2087
  833TIP3    H126694   1.643  -1.784   5.151 -2.9936 -0.6959  2.5988
  833TIP3    H226695   1.600  -1.652   5.213  0.9089  1.5735  0.8570
  834TIP3   OH226696   1.294   2.061   2.904  0.1882 -0.4749  0.3604
  834TIP3    H126697   1.232   2.052   2.831  0.8726  0.5597 -0.3840
  834TIP3    H226698   1.379   2.038   2.865  0.5256 -0.1264  0.8849
  835TIP3   OH226699  -2.299  -2.777   5.184  0.3880  0.0862 -0.2387
  835TIP3    H126700  -2.214  -2.751   5.149 -0.3295  0.0496 -2.0747
  835TIP3    H226701  -2.288  -2.869   5.209  1.0086  0.2225  0.0065
  836TIP3   OH226702   2.606   1.907   4.248  0.2255  0.6759 -0.5706
  836TIP3    H126703   2.697   1.915   4.218  0.2267  0.5943 -0.5896
  836TIP3    H226704   2.609   1.936   4.339  0.4888 -0.4249 -0.2185
  837TIP3   OH226705   1.310  -2.783   4.069 -0.5064  0.2924  0.6321
  837TIP3    H126706   1.267  -2.707   4.032  1.4418  0.5421 -1.3202
  837TIP3    H226707   1.287  -2.855   4.010 -0.7974 -0.2544  1.3890
  838TIP3   OH226708  -0.035  -0.627   2.372  0.4765 -0.2871 -0.0511
  838TIP3    H126709  -0.003  -0.621   2.282  1.2754 -0.3576  0.2251
  838TIP3    H226710  -0.129  -0.611   2.364  0.7226  0.9507 -0.7476
  839TIP3   OH226711  -2.522   3.106   4.229 -0.0489  0.8179 -0.0855
  839TIP3    H126712  -2.507   3.190   4.272 -0.6928  0.4436  0.8978
  839TIP3    H226713  -2.474   3.043   4.283 -0.7542  0.3599  0.0101
  840TIP3   OH226714  -2.372   0.841   4.435 -0.5040 -0.1036 -0.5981
  840TIP3    H126715  -2.305   0.774   4.446  0.0972  0.5728  0.0300
  840TIP3    H226716  -2.453   0.793   4.421 -0.4089 -1.0217  1.6026
  841TIP3   OH226717   1.087  -0.018   2.222  0.8838 -0.3051 -0.6861
  841TIP3    H126718   1.139   0.049   2.177  1.9505 -1.0862 -0.6481
  841TIP3    H226719   1.088   0.010   2.314  0.8181 -0.0499 -0.7619
  842TIP3   OH226720  -1.870   0.143   2.981  0.1597 -0.1207 -0.1082
  842TIP3    H126721  -1.812   0.107   3.048 -1.1794  1.6460  2.1916
  842TIP3    H226722  -1.813   0.193   2.923  1.4482 -2.2340 -0.7401
  843TIP3   OH226723  -0.145   3.117   3.199 -0.0608  0.2988  0.0847
  843TIP3    H126724  -0.060   3.101   3.159 -0.3535 -3.7326  0.6058
  843TIP3    H226725  -0.206   3.118   3.125  0.2302  1.4872 -0.1544
  844TIP3   OH226726   2.636  -1.542   3.133 -0.0723  0.6475 -0.1926
  844TIP3    H126727   2.564  -1.596   3.100  0.1823  1.2133 -1.7321
  844TIP3    H226728   2.624  -1.457   3.091  0.5837  1.2513  0.7967
  845TIP3   OH226729   0.424  -2.612   3.197  0.0729 -0.1055 -0.1216
  845TIP3    H126730   0.514  -2.593   3.223  0.4510  0.2450 -1.5698
  845TIP3    H226731   0.402  -2.541   3.136 -1.1588 -0.2416  0.1425
  846TIP3   OH226732   2.828  -0.696   3.135  0.2150  0.7689  0.1535
  846TIP3    H126733   2.768  -0.647   3.079 -3.2900 -1.3284  1.7298
  846TIP3    H226734   2.818  -0.657   3.222  1.1851  0.3318  0.4833
  847TIP3   OH226735   1.162  -2.541   3.508 -0.2071  0.3269  0.1141
  847TIP3    H126736   1.086  -2.494   3.475  0.1342  3.4869  3.2194
  847TIP3    H226737   1.217  -2.557   3.431 -2.1622  1.5327 -1.6229
  848TIP3   OH226738  -0.245  -2.933   3.348 -0.5161  0.0223  0.6561
  848TIP3    H126739  -0.163  -2.885   3.332 -0.8401  0.0410 -1.0972
  848TIP3    H226740  -0.227  -2.984   3.427  0.5705  1.3745  1.3399
  849TIP3   OH226741   2.915   2.933   3.300 -0.1295  0.1057 -0.0716
  849TIP3    H126742   2.967   2.972   3.370 -0.9097  2.6436 -0.7811
  849TIP3    H226743   2.847   2.883   3.346  0.4525  0.2157  0.9374
  850TIP3   OH226744   1.547   1.432   5.615  0.2560 -0.6705  0.1992
  850TIP3    H126745   1.478   1.370   5.640  0.9277 -1.7432 -0.5275
  850TIP3    H226746   1.516   1.516   5.648 -0.1851 -1.5500  2.1634
  851TIP3   OH226747   3.130  -2.058   3.491  0.0900  0.1920 -0.2231
  851TIP3    H126748   3.101  -1.986   3.548  1.5650 -1.2547  2.5577
  851TIP3    H226749   3.219  -2.032   3.464  0.6705 -0.5805  0.8825
  852TIP3   OH226750   2.218  -2.975   4.478 -0.4162 -0.4093  1.1320
  852TIP3    H126751   2.209  -3.046   4.542  3.6509 -2.8953 -0.6914
  852TIP3    H226752   2.146  -2.989   4.417 -1.5461 -0.9197  2.5193
  853TIP3   OH226753   3.315  -0.544   2.250  0.0787 -0.5429 -0.1753
  853TIP3    H126754   3.228  -0.517   2.219  0.4930 -0.4587 -1.2791
  853TIP3    H226755   3.304  -0.552   2.345 -1.3115 -1.1930 -0.3663
  854TIP3   OH226756  -2.998  -2.559   2.779  0.0090  0.0309  0.1576
  854TIP3    H126757  -2.919  -2.554   2.724 -0.1141  0.5950  0.0263
  854TIP3    H226758  -3.060  -2.610   2.727  0.3124 -0.4985  0.2998
  855TIP3   OH226759  -1.982   2.842   4.767 -0.1251 -0.8637 -0.5074
  855TIP3    H126760  -2.069   2.879   4.780  0.7790  2.0293 -1.7599
  855TIP3    H226761  -1.951   2.822   4.855 -1.2034  0.2627  0.1735
  856TIP3   OH226762  -0.784   3.244   4.770  0.1373  0.3739 -0.1420
  856TIP3    H126763  -0.853   3.188   4.803  1.2035 -1.7970 -1.3917
  856TIP3    H226764  -0.782   3.318   4.831 -0.3844 -1.6256  2.4679
  857TIP3   OH226765   1.382  -2.264   4.251  0.0769  0.6892 -0.8931
  857TIP3    H126766   1.350  -2.237   4.165 -1.0352 -0.1402 -0.7600
  857TIP3    H226767   1.474  -2.240   4.250 -0.4742  3.0878 -1.3284
  858TIP3   OH226768  -2.632  -0.482   3.319  0.4487 -0.6973 -0.1406
  858TIP3    H126769  -2.576  -0.502   3.393  1.4474 -0.6971 -0.8695
  858TIP3    H226770  -2.573  -0.479   3.244 -0.3557  0.4100 -0.7738
  859TIP3   OH226771   1.538   2.063   3.285 -0.1495 -0.1781  0.0955
  859TIP3    H126772   1.577   1.997   3.342  0.9243 -0.8425 -1.3428
  859TIP3    H226773   1.454   2.083   3.325  0.2428 -1.1665  1.4802
  860TIP3   OH226774   2.259  -2.519   3.008  0.2345 -0.5849  0.5089
  860TIP3    H126775   2.242  -2.448   3.070  0.1815  1.8725 -2.1414
  860TIP3    H226776   2.173  -2.544   2.974  0.4477 -0.1373 -0.3877
  861TIP3   OH226777  -2.217  -3.063   5.269  0.1102  0.1980 -0.3753
  861TIP3    H126778  -2.208  -3.153   5.302  0.2753 -0.2801 -1.6492
  861TIP3    H226779  -2.158  -3.060   5.193  0.9125  1.7197  0.2731
  862TIP3   OH226780   1.049   2.875   5.986  0.3428 -0.8478 -0.3671
  862TIP3    H126781   0.967   2.849   6.027 -0.2022  0.0792 -0.8405
  862TIP3    H226782   1.056   2.818   5.909 -0.6539  0.1077 -1.1917
  863TIP3   OH226783  -0.891  -1.285   3.907  0.4690  0.0711  0.7414
  863TIP3    H126784  -0.934  -1.336   3.976  0.6049  0.0774  0.8324
  863TIP3    H226785  -0.890  -1.195   3.942  0.3672  0.1072  0.6489
  864TIP3   OH226786   0.215   1.943   4.841  0.1543 -0.0729 -0.5343
  864TIP3    H126787   0.303   1.913   4.860  0.1643  0.3351  0.0920
  864TIP3    H226788   0.227   2.024   4.792  0.1578  0.9650  1.1064
  865TIP3   OH226789   3.267   3.174   5.444 -0.0043  0.1522  0.0059
  865TIP3    H126790   3.308   3.145   5.525 -3.4469  1.3939  2.4217
  865TIP3    H226791   3.229   3.094   5.406  0.4044 -0.2284  0.3936
  866TIP3   OH226792  -2.013  -2.770   5.692 -0.1864  0.6040 -0.3347
  866TIP3    H126793  -2.081  -2.703   5.700  1.3734  2.1383  1.0191
  866TIP3    H226794  -2.025  -2.806   5.604 -0.1905  3.7627 -1.7827
  867TIP3   OH226795   0.412  -1.163   2.301 -0.5033  0.9231 -0.0718
  867TIP3    H126796   0.461  -1.118   2.232 -1.6024  1.3692 -0.5836
  867TIP3    H226797   0.361  -1.230   2.255  1.7711 -1.5938  0.7424
  868TIP3   OH226798  -1.479   0.252   3.665  0.4771  0.6204 -0.1984
  868TIP3    H126799  -1.497   0.289   3.579  1.0332  2.9656  0.6168
  868TIP3    H226800  -1.516   0.315   3.727 -0.3950 -1.2688  1.3195
  869TIP3   OH226801  -1.699   2.690   3.647  0.2636 -0.3501  0.4914
  869TIP3    H126802  -1.775   2.746   3.663  0.9482  0.5868  0.5544
  869TIP3    H226803  -1.648   2.695   3.728  1.6394  1.0513 -0.4103
  870TIP3   OH226804  -0.050  -2.453   2.083 -0.2270 -0.3347  0.4546
  870TIP3    H126805   0.045  -2.438   2.078 -0.5758  1.8421 -1.5110
  870TIP3    H226806  -0.085  -2.372   2.118 -1.3476 -1.4124  1.9260
  871TIP3   OH226807   2.258  -3.220   4.280 -0.2650 -0.8083  0.4442
  871TIP3    H126808   2.205  -3.235   4.358 -1.1421  2.0111  0.4955
  871TIP3    H226809   2.224  -3.282   4.216 -2.3779 -0.3509  1.0636
  872TIP3   OH226810  -2.223  -1.895   5.334 -0.3558 -0.4435  0.9044
  872TIP3    H126811  -2.279  -1.832   5.380 -1.8562 -0.8145 -0.3558
  872TIP3    H226812  -2.249  -1.980   5.370  1.9878 -0.4328  2.9453
  873TIP3   OH226813   2.378   1.514   5.304  0.0543  0.0196 -0.1461
  873TIP3    H126814   2.390   1.560   5.221  3.0081  2.6239  1.4995
  873TIP3    H226815   2.318   1.571   5.354  2.6694  1.6126  1.4058
  874TIP3   OH226816  -2.220  -1.388   5.528  0.3464  0.0238  0.1868
  874TIP3    H126817  -2.143  -1.351   5.485 -0.2219  1.3716  0.2791
  874TIP3    H226818  -2.278  -1.413   5.457 -0.1100  1.1932  0.1282
  875TIP3   OH226819   1.153  -1.958   5.620  0.0736  0.0201 -0.1201
  875TIP3    H126820   1.235  -2.007   5.616 -0.3548 -0.7162 -0.2409
  875TIP3    H226821   1.110  -1.978   5.537 -0.6340 -0.3600  0.3259
  876TIP3   OH226822  -0.787   1.425   2.793 -0.1433  0.2834  0.3095
  876TIP3    H126823  -0.782   1.518   2.768 -2.5852  0.2385 -0.6284
  876TIP3    H226824  -0.720   1.382   2.740  1.7809  1.6097  1.5509
  877TIP3   OH226825  -0.537  -0.418   3.815 -0.0910 -0.0189  0.9345
  877TIP3    H126826  -0.568  -0.481   3.881  0.3666 -0.1230  1.0554
  877TIP3    H226827  -0.554  -0.462   3.731 -2.2946  0.8293  0.8681
  878TIP3   OH226828   0.558   1.399   5.872 -0.4922 -0.3965  0.0290
  878TIP3    H126829   0.558   1.311   5.836  3.0376  0.0924 -1.5736
  878TIP3    H226830   0.588   1.388   5.962 -1.3272 -0.9178  0.2513
  879TIP3   OH226831   2.402  -0.235   2.674 -0.0536  0.1621  0.5037
  879TIP3    H126832   2.313  -0.223   2.639 -0.0543 -0.8123  0.1207
  879TIP3    H226833   2.406  -0.329   2.694  1.2089  0.0187 -0.3643
  880TIP3   OH226834  -2.165   2.961   5.586  0.2710 -0.0959  0.4808
  880TIP3    H126835  -2.228   2.998   5.525  0.3731  0.8626  0.9474
  880TIP3    H226836  -2.191   2.996   5.672  1.3272  0.1693  0.7045
  881TIP3   OH226837  -2.854   1.002   3.205 -0.0426 -0.1849 -0.1924
  881TIP3    H126838  -2.879   0.914   3.231 -1.1361 -0.5640 -2.3078
  881TIP3    H226839  -2.854   1.052   3.286 -1.7227 -1.5966  0.7335
  882TIP3   OH226840  -1.387   0.510   4.747  0.4726  0.0208 -0.1354
  882TIP3    H126841  -1.444   0.515   4.823  0.6881 -2.2324  0.2456
  882TIP3    H226842  -1.446   0.496   4.673  0.4335 -0.6844  0.0292
  883TIP3   OH226843   1.818   1.058   5.009 -0.6884 -0.3629  0.6223
  883TIP3    H126844   1.775   1.076   4.926  1.0693  0.4113 -0.1822
  883TIP3    H226845   1.805   1.138   5.061  0.4736  0.2514  0.0260
  884TIP3   OH226846   3.027   1.861   2.611 -0.4495  0.4076 -0.7649
  884TIP3    H126847   3.100   1.884   2.553 -0.6240  1.5051 -0.5652
  884TIP3    H226848   3.057   1.780   2.655  0.9355  1.1657 -0.2255
  885TIP3   OH226849   1.915   0.718   4.636  0.1898 -0.1961  1.0334
  885TIP3    H126850   1.921   0.689   4.727 -1.3396  1.5919  1.7752
  885TIP3    H226851   1.976   0.661   4.589  0.9121 -1.2843  3.1299
  886TIP3   OH226852  -0.281   1.133   3.374 -0.5875 -0.9174 -0.5497
  886TIP3    H126853  -0.215   1.138   3.444  0.7166 -1.8015 -1.6765
  886TIP3    H226854  -0.346   1.199   3.399  0.6660 -0.0605  0.6498
  887TIP3   OH226855   0.866   3.159   5.111  0.0978  0.2125 -0.0152
  887TIP3    H126856   0.796   3.219   5.135  0.9842  0.8199  1.2257
  887TIP3    H226857   0.823   3.087   5.065 -1.3351  0.5193  0.8068
  888TIP3   OH226858  -2.173   0.208   4.324  0.3736  0.1662 -0.0801
  888TIP3    H126859  -2.153   0.201   4.418 -0.8048 -0.6339  0.1273
  888TIP3    H226860  -2.114   0.276   4.293  1.9317 -0.6644  0.9091
  889TIP3   OH226861   2.950   2.907   4.025 -0.0909 -0.9262  0.2892
  889TIP3    H126862   3.040   2.911   4.056  0.0671 -0.1098 -0.2517
  889TIP3    H226863   2.907   2.984   4.064 -0.5777 -1.3561  0.6157
  890TIP3   OH226864   0.183   2.221   5.483 -0.3735 -0.0978 -0.3321
  890TIP3    H126865   0.129   2.300   5.476  0.6917  0.6106 -0.8867
  890TIP3    H226866   0.191   2.190   5.393  0.2495 -0.1094 -0.2781
  891TIP3   OH226867  -0.476  -1.882   4.032 -0.4164 -0.2183 -0.1706
  891TIP3    H126868  -0.521  -1.817   4.086  0.3904 -0.5239  0.8988
  891TIP3    H226869  -0.384  -1.856   4.035 -0.1144 -1.2767  0.0807
  892TIP3   OH226870  -2.177   0.523   4.778  0.4079  0.4549 -0.7857
  892TIP3    H126871  -2.125   0.600   4.801 -0.5827  1.0586 -0.4656
  892TIP3    H226872  -2.268   0.555   4.780  0.0252 -0.5711 -1.2762
  893TIP3   OH226873  -2.026   3.338   3.313 -0.1005 -0.7482 -0.2753
  893TIP3    H126874  -1.978   3.255   3.311 -0.9389 -1.2396 -2.0749
  893TIP3    H226875  -2.009   3.377   3.227  2.0599  2.0539  1.2488
  894TIP3   OH226876   0.966  -3.064   5.620  1.0600 -0.4014  0.1626
  894TIP3    H126877   0.882  -3.097   5.587  0.7406 -0.3999  0.9492
  894TIP3    H226878   0.962  -2.970   5.603  1.7929 -0.6844 -1.6975
  895TIP3   OH226879  -0.823  -2.548   2.913 -0.0046  0.1002 -0.1850
  895TIP3    H126880  -0.800  -2.545   3.006  0.1168 -1.5025 -0.1417
  895TIP3    H226881  -0.769  -2.618   2.877 -1.7841 -0.9546 -0.9334
  896TIP3   OH226882   2.019  -0.534   3.668  0.4467 -0.0192 -0.1726
  896TIP3    H126883   2.105  -0.526   3.627 -0.0684 -0.8403 -1.4793
  896TIP3    H226884   1.957  -0.505   3.601 -0.2881  0.8715  0.8612
  897TIP3   OH226885   0.201  -0.903   3.734  0.3170  0.1656 -0.0597
  897TIP3    H126886   0.166  -0.817   3.713 -0.6607 -0.3685 -0.6737
  897TIP3    H226887   0.246  -0.931   3.654  0.7484  0.1568  0.1816
  898TIP3   OH226888   1.824   2.534   3.266  0.0429  0.4001  0.1829
  898TIP3    H126889   1.734   2.521   3.235 -0.9436  1.2692  2.4439
  898TIP3    H226890   1.820   2.614   3.318  1.6218 -0.7538  2.2023
  899TIP3   OH226891   3.235  -2.767   3.311 -0.4876 -0.0628 -0.0998
  899TIP3    H126892   3.245  -2.853   3.352 -1.4524 -0.2871 -0.2994
  899TIP3    H226893   3.144  -2.744   3.328 -0.7851  0.0559 -1.7011
  900TIP3   OH226894  -1.464  -1.271   3.667  0.4850  0.4727  0.2548
  900TIP3    H126895  -1.539  -1.331   3.669  0.6346  0.2146 -1.0728
  900TIP3    H226896  -1.390  -1.325   3.694  0.4819  0.2570 -0.1531
  901TIP3   OH226897  -0.319  -2.232   3.644  0.5558 -0.0601  0.1442
  901TIP3    H126898  -0.392  -2.277   3.687  1.1724  0.5471  1.9284
  901TIP3    H226899  -0.254  -2.301   3.631  1.2631  0.1043  2.3337
  902TIP3   OH226900   0.378  -1.188   3.733 -0.0906 -0.0245 -0.1254
  902TIP3    H126901   0.470  -1.201   3.706 -0.3239  0.4575 -1.2067
  902TIP3    H226902   0.358  -1.099   3.705  0.1077  1.1539  3.1269
  903TIP3   OH226903   0.471  -1.030   4.903  0.2698 -0.3194  0.1898
  903TIP3    H126904   0.513  -1.033   4.989 -0.2544 -2.5912  0.4451
  903TIP3    H226905   0.544  -1.025   4.841  0.7948 -1.0673  0.7249
  904TIP3   OH226906  -0.816   1.531   4.055  0.1202 -0.2938  0.3786
  904TIP3    H126907  -0.900   1.499   4.087 -0.5835  0.4540 -0.6619
  904TIP3    H226908  -0.829   1.541   3.961  1.4523 -0.3923  0.1692
  905TIP3   OH226909  -0.911   2.191   3.138 -0.2571  0.2340 -0.3202
  905TIP3    H126910  -0.920   2.286   3.145 -0.2787  0.2585 -0.6533
  905TIP3    H226911  -0.984   2.164   3.081 -0.9683 -0.1230  0.7197
  906TIP3   OH226912   0.927  -2.214   5.318 -0.8317  0.5023  0.2919
  906TIP3    H126913   0.918  -2.176   5.231 -1.5378  2.4551  1.1534
  906TIP3    H226914   0.952  -2.305   5.303 -0.9446  0.8019 -1.9311
  907TIP3   OH226915  -0.851  -3.095   3.789  0.1342 -0.1225  0.5060
  907TIP3    H126916  -0.906  -3.022   3.760  0.3175 -0.3038 -0.3265
  907TIP3    H226917  -0.810  -3.127   3.709 -0.5216 -1.6244  0.7475
  908TIP3   OH226918  -2.551   1.763   3.909 -0.5156 -0.0052  0.3545
  908TIP3    H126919  -2.467   1.776   3.865 -0.6378 -0.8506 -0.1579
  908TIP3    H226920  -2.617   1.792   3.846 -0.6537 -0.4056  0.3123
  909TIP3   OH226921  -1.826   0.814   5.090  0.1492 -0.0225  0.1689
  909TIP3    H126922  -1.790   0.903   5.089  0.5860 -0.2036 -0.0610
  909TIP3    H226923  -1.833   0.790   4.997 -0.5469  0.0019  0.2075
  910TIP3   OH226924   2.522   0.318   5.069  0.4472 -0.0132  0.5140
  910TIP3    H126925   2.564   0.342   4.986  0.0150  0.1067  0.3290
  910TIP3    H226926   2.503   0.225   5.059 -1.8224  0.4944 -0.5215
  911TIP3   OH226927   2.636   2.301   4.015  0.4712 -0.2141  0.0485
  911TIP3    H126928   2.611   2.284   4.105  1.0424  2.4944  0.8354
  911TIP3    H226929   2.553   2.306   3.967  0.0141  0.4113  0.8807
  912TIP3   OH226930   1.267  -1.646   2.775 -0.0634  0.4668  0.7063
  912TIP3    H126931   1.277  -1.692   2.858  0.2503  2.6792  1.9502
  912TIP3    H226932   1.357  -1.638   2.742 -0.2070 -0.6068 -0.0064
  913TIP3   OH226933   2.081  -0.023   2.953  0.2543 -0.9766  0.1398
  913TIP3    H126934   2.028  -0.090   2.996  0.4001 -1.3201 -0.2113
  913TIP3    H226935   2.077  -0.045   2.860 -0.2744 -0.0938 -0.0593
  914TIP3   OH226936   0.611   1.850   4.049 -0.0780 -0.3875 -0.1333
  914TIP3    H126937   0.596   1.876   3.959  0.8779  0.2021 -0.1325
  914TIP3    H226938   0.593   1.756   4.050  0.8457 -0.5923 -1.1583
  915TIP3   OH226939   1.889   3.014   3.141  0.2236 -0.0609  0.0433
  915TIP3    H126940   1.888   2.950   3.212 -0.3690 -1.5699 -1.2645
  915TIP3    H226941   1.801   3.008   3.102  0.5963  0.5688 -0.9445
  916TIP3   OH226942  -1.562  -0.723   3.748  0.0088 -0.1718 -0.9455
  916TIP3    H126943  -1.651  -0.694   3.726  0.6994  1.8550 -1.3338
  916TIP3    H226944  -1.514  -0.715   3.666  0.4938 -1.5687 -0.8135
  917TIP3   OH226945  -0.956   2.761   2.681  0.0256 -0.5415  0.0201
  917TIP3    H126946  -0.978   2.681   2.729  0.3771 -1.2465 -0.9487
  917TIP3    H226947  -0.998   2.749   2.596  0.4163  0.1326 -0.2712
  918TIP3   OH226948  -3.295  -2.791   4.651  0.1686 -0.6510 -0.4440
  918TIP3    H126949  -3.319  -2.703   4.622 -0.7254 -0.7623 -0.0924
  918TIP3    H226950  -3.375  -2.825   4.692 -0.2575 -2.4904 -2.6010
  919TIP3   OH226951  -1.305  -2.937   2.542 -0.6508  0.2520  0.5450
  919TIP3    H126952  -1.264  -2.974   2.621  0.1097  0.0628  0.0797
  919TIP3    H226953  -1.253  -2.973   2.470 -1.8135 -0.1960 -0.0960
  920TIP3   OH226954  -2.630  -0.988   2.686  0.4951  0.5856 -0.0089
  920TIP3    H126955  -2.636  -0.957   2.596  1.5181  1.4705  0.2121
  920TIP3    H226956  -2.720  -0.987   2.718  0.0132 -0.4510 -1.2354
  921TIP3   OH226957  -2.888  -2.565   3.908  0.2457 -0.2702 -0.0343
  921TIP3    H126958  -2.876  -2.474   3.881  1.2833 -0.6223 -0.8158
  921TIP3    H226959  -2.922  -2.559   3.998  0.6872  0.8798  0.0734
  922TIP3   OH226960  -0.741  -0.214   4.545  0.7705 -0.0993  0.3584
  922TIP3    H126961  -0.681  -0.201   4.619  1.8783 -0.3392 -0.4715
  922TIP3    H226962  -0.701  -0.164   4.473 -0.2027  0.0041 -0.1259
  923TIP3   OH226963  -1.157   0.333   4.728 -0.2764  0.2323 -0.5956
  923TIP3    H126964  -1.187   0.252   4.686 -0.5732  1.1535 -2.2642
  923TIP3    H226965  -1.236   0.388   4.731  0.4143  1.3420 -1.7477
  924TIP3   OH226966   0.914  -1.738   3.308 -0.0601 -0.0948 -0.3827
  924TIP3    H126967   0.947  -1.781   3.230 -1.1814  1.6138 -1.8636
  924TIP3    H226968   0.989  -1.691   3.343  0.6019 -1.3626 -0.0241
  925TIP3   OH226969  -0.091  -0.658   4.649  0.4258  0.3542 -0.6484
  925TIP3    H126970  -0.008  -0.613   4.663 -0.0151  0.7669  0.8089
  925TIP3    H226971  -0.069  -0.731   4.592  2.1175 -0.4604  0.9424
  926TIP3   OH226972   0.548  -2.002   3.723 -0.1827 -0.4881  0.1718
  926TIP3    H126973   0.640  -1.977   3.718 -0.4912  0.4697 -1.0613
  926TIP3    H226974   0.509  -1.968   3.643 -2.1390  1.2912  1.7547
  927TIP3   OH226975   2.813   0.282   2.959  0.3391  0.2598  0.0823
  927TIP3    H126976   2.800   0.367   2.916  0.8940  0.4763  0.3364
  927TIP3    H226977   2.741   0.228   2.927 -0.5636  1.0987  0.6210
  928TIP3   OH226978   2.503   0.596   2.906  0.0864  0.4090 -0.1960
  928TIP3    H126979   2.527   0.542   2.832 -0.4290  1.8547 -1.4718
  928TIP3    H226980   2.578   0.655   2.918  0.1789  0.1637  0.4464
  929TIP3   OH226981   1.311  -1.181   5.394 -0.4471  0.5183 -0.5749
  929TIP3    H126982   1.254  -1.251   5.363 -1.5751  1.2281 -0.1829
  929TIP3    H226983   1.399  -1.213   5.378 -0.9530 -0.4405 -1.5934
  930TIP3   OH226984  -0.776   1.257   3.905 -0.9540 -0.0117 -0.9046
  930TIP3    H126985  -0.852   1.285   3.955  0.0063  0.2794  0.4774
  930TIP3    H226986  -0.766   1.164   3.927  0.2256  0.4188  0.5494
  931TIP3   OH226987  -0.690  -3.217   4.917 -0.4016 -0.2386  0.3872
  931TIP3    H126988  -0.613  -3.254   4.875 -2.3910 -3.1970 -1.0251
  931TIP3    H226989  -0.665  -3.204   5.008  1.7162 -1.1516 -0.0297
  932TIP3   OH226990   1.346   2.846   4.240 -0.0030  0.1479 -0.5078
  932TIP3    H126991   1.409   2.904   4.198 -1.0376  0.7133 -1.3361
  932TIP3    H226992   1.283   2.905   4.281 -0.4742 -0.3855 -0.4519
  933TIP3   OH226993   1.034   2.993   3.099  0.7354 -0.1250 -0.3397
  933TIP3    H126994   1.094   3.048   3.049  0.8419  0.8396  0.7891
  933TIP3    H226995   1.057   2.903   3.075  2.0600  0.2492 -0.5566
  934TIP3   OH226996   2.081  -0.233   4.144 -0.4274  0.3243 -0.3181
  934TIP3    H126997   2.035  -0.255   4.063  0.8795  0.7216 -1.2032
  934TIP3    H226998   2.128  -0.152   4.123 -0.6710  0.8628  1.0956
  935TIP3   OH226999  -1.604  -2.643   2.848  0.1311 -0.1506  0.7746
  935TIP3    H127000  -1.675  -2.643   2.785  0.9575  1.2060 -0.2227
  935TIP3    H227001  -1.524  -2.641   2.794  0.8961 -0.3802  1.8629
  936TIP3   OH227002   1.532  -1.292   5.189 -0.3024 -1.3333  0.1584
  936TIP3    H127003   1.620  -1.267   5.218 -0.3653  0.3055 -0.9206
  936TIP3    H227004   1.504  -1.359   5.252  0.7506 -0.1261  2.0215
  937TIP3   OH227005  -1.163  -2.600   3.927 -0.1414 -0.3794 -0.5951
  937TIP3    H127006  -1.154  -2.600   3.831  0.5551 -1.3550 -0.5442
  937TIP3    H227007  -1.155  -2.692   3.951 -0.3164 -0.1357  0.4074
  938TIP3   OH227008  -0.095   2.514   4.767 -0.6143  0.2967  0.6183
  938TIP3    H127009  -0.047   2.499   4.848  2.3658 -2.4675 -1.4035
  938TIP3    H227010  -0.129   2.428   4.742 -0.9390  0.9353 -1.3487
  939TIP3   OH227011  -1.069   2.826   4.431 -0.1422  0.4644  0.6142
  939TIP3    H127012  -1.075   2.903   4.375 -0.3974  0.7178  0.9880
  939TIP3    H227013  -1.155   2.819   4.472 -0.0210  0.1641  0.8220
  940TIP3   OH227014  -0.606   2.624   4.034 -0.0497 -0.4383  0.4988
  940TIP3    H127015  -0.587   2.554   3.972 -0.6646 -0.9574  0.8923
  940TIP3    H227016  -0.529   2.682   4.028  0.9339 -1.6509  0.9008
  941TIP3   OH227017   0.687   1.782   5.259 -0.6973 -0.3479  0.6825
  941TIP3    H127018   0.629   1.855   5.238  0.1220  0.0201 -0.3975
  941TIP3    H227019   0.724   1.804   5.344 -0.3116  0.6190  0.2829
  942TIP3   OH227020   0.840  -0.202   5.653 -0.4291  0.2730 -0.1012
  942TIP3    H127021   0.887  -0.228   5.733  1.8787 -2.5510 -2.1552
  942TIP3    H227022   0.836  -0.107   5.657 -0.4352  0.2492  3.3419
  943TIP3   OH227023   2.195   1.338   2.119 -0.5252  0.9547  0.2598
  943TIP3    H127024   2.107   1.302   2.122 -0.3491  0.5857  1.0692
  943TIP3    H227025   2.184   1.423   2.076 -1.0256  0.2233 -1.1312
  944TIP3   OH227026   0.618   1.620   2.671 -0.1040 -0.0144 -0.5815
  944TIP3    H127027   0.592   1.707   2.642 -0.8634 -0.2001 -0.4816
  944TIP3    H227028   0.690   1.596   2.612  1.9507  1.7151  1.0393
  945TIP3   OH227029   1.760   0.751   3.991  0.2765  0.0195 -0.3032
  945TIP3    H127030   1.684   0.782   4.041  0.3324 -1.5202  0.8127
  945TIP3    H227031   1.761   0.807   3.913 -0.3630  1.8922  0.9497
  946TIP3   OH227032   2.643  -1.344   3.638  0.1431  0.7176  0.5653
  946TIP3    H127033   2.659  -1.257   3.675 -0.4105  1.5473 -1.0629
  946TIP3    H227034   2.689  -1.343   3.554 -0.1811 -0.4469  0.3583
  947TIP3   OH227035   2.526  -0.308   5.592 -0.2359  0.3749  0.2201
  947TIP3    H127036   2.441  -0.315   5.550 -0.1332 -2.2454  0.2890
  947TIP3    H227037   2.541  -0.214   5.601 -3.3968  0.9181  0.8286
  948TIP3   OH227038  -0.099  -0.936   4.549 -0.1869 -0.3116 -0.5937
  948TIP3    H127039  -0.131  -0.995   4.481 -3.5272  0.9022 -0.2936
  948TIP3    H227040  -0.097  -0.989   4.628 -1.1441 -0.5803 -0.7348
  949TIP3   OH227041   2.319  -0.608   5.577  0.2783 -0.0231 -0.3969
  949TIP3    H127042   2.303  -0.516   5.598 -1.0018 -0.1825 -0.5736
  949TIP3    H227043   2.392  -0.607   5.515 -0.6262  0.9966 -1.4924
  950TIP3   OH227044   1.977   1.236   3.278  0.1326  0.3526  0.1565
  950TIP3    H127045   2.033   1.225   3.355  0.7176  1.1889 -0.1376
  950TIP3    H227046   1.943   1.325   3.285 -0.0130  0.3489 -0.4247
  951TIP3   OH227047  -0.707   3.155   3.489 -0.7191  0.6957 -0.6810
  951TIP3    H127048  -0.701   3.207   3.569  1.1963 -0.1864 -0.1933
  951TIP3    H227049  -0.682   3.067   3.516  0.4849  0.4803 -2.3452
  952TIP3   OH227050   2.422   2.944   3.829 -0.0652 -0.9223  0.2448
  952TIP3    H127051   2.464   2.982   3.907  0.0717 -1.6274  0.5228
  952TIP3    H227052   2.474   2.867   3.809 -1.6228 -2.2295  1.0243
  953TIP3   OH227053   0.310  -2.375   4.961 -0.3344 -0.1009 -0.1673
  953TIP3    H127054   0.307  -2.357   4.867 -0.4545  1.2052  0.0730
  953TIP3    H227055   0.243  -2.317   4.998 -1.3242 -1.6519  0.5708
  954TIP3   OH227056   1.941  -0.940   4.162 -0.1271 -0.4129  0.4694
  954TIP3    H127057   1.890  -0.992   4.099  0.0224 -0.3970  0.3329
  954TIP3    H227058   1.953  -0.999   4.237  2.1312 -1.4896 -0.6359
  955TIP3   OH227059  -0.695  -2.026   5.174 -0.7434 -0.1566 -0.3862
  955TIP3    H127060  -0.622  -1.996   5.228 -0.0304 -1.4830 -0.5759
  955TIP3    H227061  -0.738  -2.092   5.228 -0.5231 -0.9005 -1.1100
  956TIP3   OH227062  -0.708   0.429   5.640  0.1195  0.1765 -0.1886
  956TIP3    H127063  -0.633   0.406   5.695  0.2575 -0.0038 -0.4533
  956TIP3    H227064  -0.713   0.359   5.575 -1.4622 -0.9170  0.9945
  957TIP3   OH227065  -2.802   3.341   4.776  0.4834  0.0904  0.8582
  957TIP3    H127066  -2.766   3.353   4.864  1.3966 -1.4228  0.7220
  957TIP3    H227067  -2.880   3.287   4.788 -0.8027  1.8806  0.9555
  958TIP3   OH227068   0.325  -2.083   2.533  0.0380  0.0125  0.0417
  958TIP3    H127069   0.348  -2.176   2.523  0.9739  0.1830  0.4964
  958TIP3    H227070   0.409  -2.039   2.545 -0.1856  1.2517 -2.3946
  959TIP3   OH227071  -1.579   1.433   3.600  0.3458  0.0101 -0.3371
  959TIP3    H127072  -1.636   1.479   3.538  0.9588  0.0883 -0.8437
  959TIP3    H227073  -1.634   1.362   3.634 -0.9656  1.6735  1.2375
  960TIP3   OH227074  -0.545   2.107   3.761 -0.7381  0.1194 -0.2701
  960TIP3    H127075  -0.632   2.066   3.768 -1.5593  1.6820 -0.9014
  960TIP3    H227076  -0.486   2.034   3.739 -1.4609 -1.3693  2.2938
  961TIP3   OH227077   0.797  -0.311   5.248 -0.4189 -0.3236 -0.2808
  961TIP3    H127078   0.765  -0.365   5.176 -1.7303 -0.9378  0.7357
  961TIP3    H227079   0.720  -0.292   5.300  0.3314  1.0046  0.4054
  962TIP3   OH227080  -0.340  -2.558   2.527 -0.1854 -0.0564  0.0981
  962TIP3    H127081  -0.346  -2.469   2.493  1.1017 -0.2435 -0.6602
  962TIP3    H227082  -0.408  -2.606   2.480 -0.8009  0.4674  0.4175
  963TIP3   OH227083  -3.304  -2.238   4.063  0.2003 -0.2167  0.3683
  963TIP3    H127084  -3.361  -2.162   4.075  0.9311  0.3781  0.1263
  963TIP3    H227085  -3.295  -2.275   4.150  0.0398  0.1182  0.5303
  964TIP3   OH227086   1.945  -0.356   2.358 -0.1033  0.3244  0.5123
  964TIP3    H127087   2.030  -0.313   2.358  0.8111 -1.2841 -1.8291
  964TIP3    H227088   1.963  -0.444   2.390 -1.1968  0.3816  1.3566
  965TIP3   OH227089  -0.158  -2.956   2.925 -0.3949  0.9679 -0.1497
  965TIP3    H127090  -0.065  -2.959   2.902 -0.0287 -0.7045  1.3039
  965TIP3    H227091  -0.203  -2.940   2.842  1.1274  0.8037 -1.0469
  966TIP3   OH227092   2.156  -0.353   3.481  0.2109  0.0319 -0.1361
  966TIP3    H127093   2.228  -0.298   3.511  0.5670 -0.2629 -0.4368
  966TIP3    H227094   2.175  -0.369   3.389 -0.8894  0.9554 -0.5419
  967TIP3   OH227095  -0.223   1.766   4.329  0.1970  0.3471 -0.3102
  967TIP3    H127096  -0.175   1.846   4.351  1.0213 -0.4599  0.9503
  967TIP3    H227097  -0.157   1.696   4.335 -0.7808 -0.5930 -0.1234
  968TIP3   OH227098   3.308   2.286   4.148  0.1725  0.1632  0.2599
  968TIP3    H127099   3.248   2.215   4.170  0.1779 -0.0184 -0.2872
  968TIP3    H227100   3.254   2.349   4.100  0.0785  0.7229  1.0731
  969TIP3   OH227101   1.052  -0.072   3.277  0.2265 -0.2304 -0.0628
  969TIP3    H127102   1.041  -0.094   3.370  1.5628 -1.8444 -0.2336
  969TIP3    H227103   1.124  -0.128   3.248  1.3499  1.8450 -1.5387
  970TIP3   OH227104   2.013   1.331   5.314  0.2777 -0.3798 -0.0554
  970TIP3    H127105   2.026   1.315   5.408  0.7877 -1.4941 -0.3068
  970TIP3    H227106   1.995   1.425   5.309 -0.1014 -0.3645  1.1901
  971TIP3   OH227107  -1.750  -2.026   3.739 -0.4404  0.5902 -0.5547
  971TIP3    H127108  -1.806  -1.992   3.809 -0.5574  1.9097 -1.2583
  971TIP3    H227109  -1.749  -1.957   3.673  0.5118 -0.1936 -1.4013
  972TIP3   OH227110   0.950   3.088   5.865 -0.8400 -0.5613 -0.0382
  972TIP3    H127111   0.948   3.161   5.927  0.8335  0.4022 -1.0361
  972TIP3    H227112   0.997   3.019   5.912  0.1159  0.0396 -0.0723
  973TIP3   OH227113   0.265  -2.450   2.194 -0.4742 -0.1431  0.2608
  973TIP3    H127114   0.242  -2.365   2.231  0.1892 -0.0263  0.4192
  973TIP3    H227115   0.353  -2.468   2.227 -0.7766 -1.0959  0.5801
  974TIP3   OH227116  -0.903  -2.214   3.565 -0.4831 -0.6718  0.2456
  974TIP3    H127117  -0.970  -2.155   3.531  1.2031  0.4679 -1.2947
  974TIP3    H227118  -0.917  -2.215   3.659  1.4818  5.1120  0.9838
  975TIP3   OH227119  -2.808   2.299   5.566 -0.0527 -0.2349 -0.1626
  975TIP3    H127120  -2.782   2.358   5.636 -0.3685  0.0355 -0.2722
  975TIP3    H227121  -2.793   2.211   5.602 -0.9710 -0.1177  0.5521
  976TIP3   OH227122  -2.391  -0.832   5.583  0.3072  0.1586  0.1795
  976TIP3    H127123  -2.469  -0.821   5.637  0.7636  1.9391  0.5397
  976TIP3    H227124  -2.373  -0.926   5.586 -1.7203 -0.2693  0.1986
  977TIP3   OH227125  -2.694   1.173   5.427  0.0217 -0.1213 -0.1832
  977TIP3    H127126  -2.753   1.245   5.448  0.1206  0.5811 -2.1395
  977TIP3    H227127  -2.714   1.151   5.336  1.5335 -1.0817 -0.3171
  978TIP3   OH227128  -2.754  -2.886   2.699  0.1983  0.1452  0.1098
  978TIP3    H127129  -2.750  -2.842   2.614 -1.4022 -0.4372 -0.2886
  978TIP3    H227130  -2.663  -2.910   2.717  0.2934 -2.5350 -2.9768
  979TIP3   OH227131  -0.386  -0.111   3.000  0.5699  0.3941 -0.1692
  979TIP3    H127132  -0.471  -0.078   3.027  0.7254  1.3721 -0.8387
  979TIP3    H227133  -0.374  -0.080   2.911  1.7623  0.5467  0.0188
  980TIP3   OH227134  -1.492   2.430   3.438  0.2168 -0.6475 -0.0166
  980TIP3    H127135  -1.550   2.504   3.418 -0.3985 -1.3903 -1.0750
  980TIP3    H227136  -1.471   2.441   3.530 -2.8922 -1.1770  0.8837
  981TIP3   OH227137   2.904   0.709   3.690 -0.5865 -0.2619 -0.3338
  981TIP3    H127138   2.999   0.724   3.686 -0.6702 -0.0678 -2.6262
  981TIP3    H227139   2.896   0.613   3.691 -0.3816 -0.3083  1.5576
  982TIP3   OH227140   0.794  -1.715   5.305 -0.6578 -0.4926 -0.2298
  982TIP3    H127141   0.742  -1.683   5.231 -0.8450 -0.2780 -0.0067
  982TIP3    H227142   0.781  -1.810   5.304 -1.7116 -0.3716  0.3047
  983TIP3   OH227143  -1.468   3.160   3.186  0.4452 -0.1688 -0.5625
  983TIP3    H127144  -1.496   3.165   3.278 -0.2934  0.3070 -0.8057
  983TIP3    H227145  -1.547   3.178   3.136  0.9864  0.2305 -1.2903
  984TIP3   OH227146   2.702   3.209   3.890 -0.0006 -0.2083  0.2770
  984TIP3    H127147   2.688   3.295   3.849 -0.6530 -0.3270  0.2411
  984TIP3    H227148   2.790   3.214   3.926  0.0145  0.4347  0.1638
  985TIP3   OH227149   3.129   0.793   5.171 -0.2284 -0.0227  0.6087
  985TIP3    H127150   3.062   0.727   5.186 -0.6648  0.4315  0.6973
  985TIP3    H227151   3.111   0.860   5.237  0.1412  0.2303  0.4527
  986TIP3   OH227152   1.892  -1.714   2.994 -0.7261  0.5739 -0.1736
  986TIP3    H127153   1.924  -1.800   2.967  0.2405  0.5987  0.8440
  986TIP3    H227154   1.814  -1.700   2.939 -2.2395 -1.9011  1.1111
  987TIP3   OH227155  -0.157   3.328   4.807  0.0527 -0.2173  0.1446
  987TIP3    H127156  -0.164   3.412   4.852  1.7214  0.0254  0.0220
  987TIP3    H227157  -0.229   3.276   4.841 -0.7712  1.1261  0.5179
  988TIP3   OH227158   0.770   1.915   3.301 -0.1428  0.0528  0.2494
  988TIP3    H127159   0.806   1.828   3.285 -0.1709  0.0550  0.1729
  988TIP3    H227160   0.832   1.975   3.261  0.4097  0.1324  1.2016
  989TIP3   OH227161   3.174   1.355   4.990  0.7935 -0.2164  0.4500
  989TIP3    H127162   3.112   1.428   4.988 -0.1520 -1.0040 -0.4990
  989TIP3    H227163   3.122   1.281   5.022  1.4833 -0.6900  0.4930
  990TIP3   OH227164  -0.215  -1.808   2.360  0.3558  0.0101 -0.1748
  990TIP3    H127165  -0.294  -1.754   2.366 -0.1768 -0.4678 -2.1358
  990TIP3    H227166  -0.165  -1.768   2.289 -0.3578 -2.3593 -2.1410
  991TIP3   OH227167  -2.804  -1.637   3.122  0.5085 -0.2560 -0.4351
  991TIP3    H127168  -2.766  -1.551   3.136 -2.7219  0.9588  1.8724
  991TIP3    H227169  -2.819  -1.641   3.027  1.3970  1.3570 -0.6821
  992TIP3   OH227170   2.664   3.039   4.268  0.2736 -0.2678  0.4272
  992TIP3    H127171   2.758   3.050   4.254  0.0337  0.0734 -1.0942
  992TIP3    H227172   2.649   3.074   4.356  1.4287  0.5404  0.3256
  993TIP3   OH227173   2.159   2.115   4.999 -0.1333 -0.2371  0.1257
  993TIP3    H127174   2.239   2.148   5.041 -0.4380  1.1301 -0.2888
  993TIP3    H227175   2.162   2.021   5.012  0.3607  0.0053  2.1905
  994TIP3   OH227176   1.065  -2.983   2.740 -0.6333 -0.2335 -0.2508
  994TIP3    H127177   1.085  -2.893   2.765 -1.2047 -0.0585 -0.3983
  994TIP3    H227178   1.136  -3.009   2.681 -0.4508  0.1086 -0.1800
  995TIP3   OH227179  -2.353   0.831   4.153 -0.3729  0.1189 -0.3879
  995TIP3    H127180  -2.329   0.890   4.223 -0.3732  0.5161 -0.7168
  995TIP3    H227181  -2.413   0.882   4.098 -0.0234 -0.0328 -0.9204
  996TIP3   OH227182   1.845  -0.001   5.218  0.1189  0.1229 -0.3767
  996TIP3    H127183   1.856   0.080   5.266  2.3346 -1.0418  1.2644
  996TIP3    H227184   1.888   0.014   5.134  1.4815  0.3529  0.3358
  997TIP3   OH227185   3.157   0.407   3.069  0.1271 -0.6542 -0.3616
  997TIP3    H127186   3.136   0.492   3.033 -0.2737  0.1268  1.5633
  997TIP3    H227187   3.101   0.345   3.022 -1.7723  0.5468  0.2405
  998TIP3   OH227188   0.678  -2.275   4.053 -0.1418 -0.1167  0.4926
  998TIP3    H127189   0.591  -2.259   4.091 -0.8234 -1.9420 -0.1431
  998TIP3    H227190   0.660  -2.294   3.961  1.1879  1.4872 -0.1386
  999TIP3   OH227191  -1.061   2.501   5.155 -0.1282 -0.3231 -0.0529
  999TIP3    H127192  -1.018   2.464   5.078  1.1578  0.3327  0.3122
  999TIP3    H227193  -1.148   2.527   5.124 -0.6509 -2.5057 -0.5971
 1000TIP3   OH227194  -3.313   0.094   3.169  0.4083 -0.1550 -0.0522
 1000TIP3    H127195  -3.384   0.030   3.163 -0.3353  0.7107 -0.6630
 1000TIP3    H227196  -3.345   0.159   3.231 -0.0518  1.1049 -1.5591
 1001TIP3   OH227197  -3.133  -0.819   3.009 -0.1193 -0.8096  0.0714
 1001TIP3    H127198  -3.077  -0.896   3.017  1.3090  0.2747  1.1181
 1001TIP3    H227199  -3.120  -0.771   3.090  0.6040  1.5371 -1.3359
 1002TIP3   OH227200  -2.154   2.638   3.768  0.0236 -0.0559 -0.5857
 1002TIP3    H127201  -2.173   2.553   3.729  0.4098 -0.0036 -0.9007
 1002TIP3    H227202  -2.192   2.702   3.707  0.8424  0.0356 -1.0202
 1003TIP3   OH227203  -1.721  -2.126   5.451  0.0310 -0.5129 -0.5851
 1003TIP3    H127204  -1.784  -2.189   5.485 -1.6876  0.3858 -1.9677
 1003TIP3    H227205  -1.743  -2.043   5.494  0.0354 -0.1259 -1.2971
 1004TIP3   OH227206  -1.002   3.011   5.337  0.9672  0.1639 -0.2421
 1004TIP3    H127207  -0.923   3.066   5.343  1.8662 -1.0908 -0.1637
 1004TIP3    H227208  -1.026   3.015   5.245  0.8122  0.9668 -0.1732
 1005TIP3   OH227209   2.855   0.086   3.660  0.2189 -0.2803  0.2158
 1005TIP3    H127210   2.906   0.030   3.602  1.6269 -0.0095  1.1379
 1005TIP3    H227211   2.868   0.048   3.747  0.3245  0.8570  0.7113
 1006TIP3   OH227212  -3.076   1.778   3.934  0.2970  0.3643 -0.1669
 1006TIP3    H127213  -3.004   1.821   3.979  0.3211  0.5479 -0.3776
 1006TIP3    H227214  -3.155   1.822   3.967  0.2546 -0.0687  0.3153
 1007TIP3   OH227215   1.204  -2.466   4.902  0.2803  0.0767 -0.0981
 1007TIP3    H127216   1.186  -2.421   4.819  0.5274  1.6860  0.6836
 1007TIP3    H227217   1.236  -2.397   4.960 -0.5741 -0.8698  1.5648
 1008TIP3   OH227218   3.135  -2.451   3.414 -0.8439  0.7220  0.1960
 1008TIP3    H127219   3.226  -2.429   3.393 -0.1761 -2.3888 -0.7141
 1008TIP3    H227220   3.128  -2.437   3.509  0.1478  2.2760  0.0700
 1009TIP3   OH227221  -2.144   3.155   5.162 -0.4278  0.6189 -0.1990
 1009TIP3    H127222  -2.081   3.084   5.153 -0.5269  0.6550 -1.3328
 1009TIP3    H227223  -2.121   3.198   5.245 -0.3975 -0.7469  0.5161
 1010TIP3   OH227224  -1.175   0.070   4.101  0.2169  0.5254  0.1908
 1010TIP3    H127225  -1.098   0.023   4.133 -1.5542 -1.4776  1.8769
 1010TIP3    H227226  -1.165   0.159   4.134  2.5268  0.7957 -1.0284
 1011TIP3   OH227227   0.896   1.495   2.869 -0.0533  0.4787  0.1114
 1011TIP3    H127228   0.973   1.446   2.897 -1.2259 -0.5497  1.7191
 1011TIP3    H227229   0.879   1.463   2.780 -0.7000 -2.0550  1.0528
 1012TIP3   OH227230   0.372   0.046   5.211 -0.0221 -0.1129 -0.0056
 1012TIP3    H127231   0.467   0.046   5.200  0.0277 -0.7631  0.3619
 1012TIP3    H227232   0.337   0.067   5.125  0.4408 -0.5992 -0.3154
 1013TIP3   OH227233   2.316  -0.105   4.046 -0.3265 -0.5116 -0.4918
 1013TIP3    H127234   2.268  -0.023   4.057  1.4664  0.9816 -2.7551
 1013TIP3    H227235   2.266  -0.153   3.979 -1.1523 -1.1149  0.5359
 1014TIP3   OH227236  -3.180   2.646   3.030  0.5878  0.2465  0.2740
 1014TIP3    H127237  -3.120   2.574   3.050 -0.0240 -0.1505  0.7152
 1014TIP3    H227238  -3.256   2.603   2.989 -0.1822  0.5271  1.3744
 1015TIP3   OH227239   1.621  -2.073   4.279 -0.4742 -0.1787  0.5090
 1015TIP3    H127240   1.635  -2.004   4.345 -0.6020  0.1400  0.2092
 1015TIP3    H227241   1.689  -2.057   4.213 -0.0816 -0.7550  0.7685
 1016TIP3   OH227242   0.526   0.569   2.915  0.0214  0.6473 -0.0135
 1016TIP3    H127243   0.447   0.532   2.875  0.1998 -0.5332  0.6628
 1016TIP3    H227244   0.497   0.599   3.002  0.4184 -0.3313  0.4724
 1017TIP3   OH227245   0.945   0.883   5.204  0.8913  0.3942  0.2032
 1017TIP3    H127246   0.853   0.906   5.213  1.1359  1.2983  0.4676
 1017TIP3    H227247   0.978   0.878   5.294  0.7102 -1.6928  0.2181
 1018TIP3   OH227248  -2.908   0.514   5.159  0.2960  0.1533 -0.1729
 1018TIP3    H127249  -2.849   0.539   5.087 -0.6948 -0.3659 -1.1921
 1018TIP3    H227250  -2.994   0.547   5.132 -0.2495 -0.7844  0.3799
 1019TIP3   OH227251   2.195  -1.258   2.632  0.3130 -0.3155  0.9420
 1019TIP3    H127252   2.145  -1.314   2.573 -0.5030 -0.4485  1.7247
 1019TIP3    H227253   2.176  -1.169   2.603  0.8422 -0.4046  0.2964
 1020TIP3   OH227254  -0.135  -3.222   3.014 -0.3101 -0.8783  0.3399
 1020TIP3    H127255  -0.129  -3.132   2.982 -1.5063 -0.7899  0.3126
 1020TIP3    H227256  -0.226  -3.248   2.995  0.3603 -2.5512 -0.8708
 1021TIP3   OH227257   3.264   0.970   2.725 -0.2684  0.2231 -0.2739
 1021TIP3    H127258   3.272   0.928   2.810  0.4381 -0.1358 -0.5028
 1021TIP3    H227259   3.295   0.903   2.663  0.8634  1.0561 -0.6487
 1022TIP3   OH227260   2.124  -2.035   4.295  0.1102 -0.3259 -0.5673
 1022TIP3    H127261   2.173  -2.101   4.246  1.7991 -0.2371  0.9170
 1022TIP3    H227262   2.084  -1.980   4.227  1.5575 -0.7758 -1.8407
 1023TIP3   OH227263   1.154   2.671   4.577  0.0871 -0.1170  0.5725
 1023TIP3    H127264   1.082   2.715   4.623  0.1279  0.4603  0.1011
 1023TIP3    H227265   1.114   2.595   4.536 -0.5646  0.9358 -0.8209
 1024TIP3   OH227266   2.278  -0.809   3.333 -0.4697 -0.3312 -0.0005
 1024TIP3    H127267   2.266  -0.871   3.406 -2.9005  0.6305  0.5242
 1024TIP3    H227268   2.356  -0.840   3.288  0.6774 -1.4518  2.5425
 1025TIP3   OH227269  -0.534  -1.207   5.351 -0.2757  0.3676  0.7517
 1025TIP3    H127270  -0.475  -1.248   5.415 -0.5978 -1.4483 -0.0469
 1025TIP3    H227271  -0.478  -1.145   5.304  1.8234 -2.9701 -1.6146
 1026TIP3   OH227272  -1.980  -0.768   2.676 -0.5294  1.0235  0.8614
 1026TIP3    H127273  -2.071  -0.794   2.666 -0.3990  0.6354  0.6531
 1026TIP3    H227274  -1.963  -0.713   2.600 -0.0860 -0.3705 -0.0958
 1027TIP3   OH227275  -3.241   1.686   5.049  0.4435  0.6579 -0.0907
 1027TIP3    H127276  -3.206   1.702   4.961 -0.4776  0.6654 -0.4649
 1027TIP3    H227277  -3.333   1.710   5.043  0.3517  0.5822  0.8633
 1028TIP3   OH227278  -1.617   3.297   5.737 -0.3453 -0.4995 -0.1567
 1028TIP3    H127279  -1.602   3.292   5.831  1.0879  2.2756 -0.1464
 1028TIP3    H227280  -1.546   3.244   5.699  0.5689  0.3420  0.3154
 1029TIP3   OH227281   1.286   3.102   5.463 -0.0991 -0.0226  0.1219
 1029TIP3    H127282   1.222   3.075   5.397  1.0763 -0.4802 -0.8724
 1029TIP3    H227283   1.233   3.139   5.534 -1.5113 -1.2391 -0.2442
 1030TIP3   OH227284  -2.030   0.456   5.257  0.0221 -0.0078  0.0782
 1030TIP3    H127285  -2.056   0.398   5.328  2.8288  0.0423  1.2871
 1030TIP3    H227286  -1.995   0.398   5.190  1.8248  0.1425  0.8328
 1031TIP3   OH227287   1.200  -1.477   5.017 -0.2057 -0.0234  0.5960
 1031TIP3    H127288   1.238  -1.397   4.982 -0.2584  0.1191  0.8629
 1031TIP3    H227289   1.264  -1.545   4.995 -0.1572  0.0902  0.3759
 1032TIP3   OH227290   1.718   0.218   4.113 -0.2633 -0.2125 -0.3710
 1032TIP3    H127291   1.729   0.309   4.141  0.7441 -0.2629 -0.5866
 1032TIP3    H227292   1.691   0.223   4.021  1.2112 -0.1521 -0.8174
 1033TIP3   OH227293  -1.556   2.958   3.545  0.5514 -0.2654 -0.2852
 1033TIP3    H127294  -1.570   3.044   3.507  2.4821  0.5008  0.5979
 1033TIP3    H227295  -1.644   2.922   3.558 -0.4177  2.3290  1.0090
 1034TIP3   OH227296   2.837   0.551   4.879 -0.2645 -0.2776 -0.1333
 1034TIP3    H127297   2.867   0.563   4.789  0.9248 -0.9396  0.1655
 1034TIP3    H227298   2.914   0.521   4.927 -1.3565 -1.9295  0.6864
 1035TIP3   OH227299  -2.929   2.249   5.911  0.0048 -0.2775 -0.4766
 1035TIP3    H127300  -2.863   2.285   5.851  0.6433 -1.5834 -0.5890
 1035TIP3    H227301  -3.013   2.278   5.875  0.4908  1.7959 -0.0810
 1036TIP3   OH227302  -1.150  -2.662   5.354  0.0174  0.1973  0.7244
 1036TIP3    H127303  -1.197  -2.744   5.338 -0.8858  1.1002 -1.5665
 1036TIP3    H227304  -1.179  -2.603   5.285  2.1139  1.8581  1.1471
 1037TIP3   OH227305   0.275   2.821   4.326  0.3728  0.4727 -0.3190
 1037TIP3    H127306   0.330   2.899   4.325  0.2680  0.5485 -0.2198
 1037TIP3    H227307   0.241   2.815   4.236 -1.6207  1.9815  0.2436
 1038TIP3   OH227308  -0.296   2.587   3.579 -0.1458 -0.0828  0.2560
 1038TIP3    H127309  -0.261   2.522   3.640 -1.1286 -1.4956 -0.6065
 1038TIP3    H227310  -0.232   2.591   3.508 -0.6568 -1.0465 -0.2762
 1039TIP3   OH227311   1.926  -3.211   3.471 -0.0048 -0.3924 -0.4030
 1039TIP3    H127312   1.966  -3.292   3.438 -0.0734 -1.3862  1.7672
 1039TIP3    H227313   1.835  -3.216   3.441  0.5205  0.0233 -2.1734
 1040TIP3   OH227314   1.235   2.456   3.601  0.4729 -0.7856  0.3472
 1040TIP3    H127315   1.262   2.377   3.554  1.2348 -0.1331 -0.3311
 1040TIP3    H227316   1.299   2.466   3.671  0.9069 -0.2864 -0.1104
 1041TIP3   OH227317  -1.611  -1.450   3.337 -0.1401 -0.2919  0.6991
 1041TIP3    H127318  -1.684  -1.503   3.304 -0.4980  1.8451 -2.4035
 1041TIP3    H227319  -1.654  -1.376   3.381  0.0937  0.6645 -0.6199
 1042TIP3   OH227320  -1.628  -0.141   5.066 -0.8500 -0.1054 -0.0913
 1042TIP3    H127321  -1.653  -0.222   5.111  0.5632 -0.4843  0.0740
 1042TIP3    H227322  -1.609  -0.168   4.976  1.3591 -0.3544  0.3809
 1043TIP3   OH227323   3.302   1.428   4.406  0.0601 -0.3823 -0.1161
 1043TIP3    H127324   3.291   1.467   4.492  1.3022 -0.4235  0.0830
 1043TIP3    H227325   3.383   1.376   4.413  1.4550  1.3862 -1.9212
 1044TIP3   OH227326  -1.681  -2.682   5.719 -0.3720  0.2026  0.4091
 1044TIP3    H127327  -1.653  -2.596   5.688 -1.6239  0.2932 -0.5670
 1044TIP3    H227328  -1.687  -2.673   5.814  1.9416  0.4192  0.5929
 1045TIP3   OH227329  -2.393   2.340   3.119 -0.3045  0.3445 -0.6960
 1045TIP3    H127330  -2.357   2.252   3.119 -0.6259  0.1869  0.7755
 1045TIP3    H227331  -2.318   2.396   3.140 -0.3823  0.2854 -0.2645
 1046TIP3   OH227332   1.626  -3.138   3.913 -0.1122 -0.0287  0.6043
 1046TIP3    H127333   1.565  -3.204   3.880 -1.0057  1.1842 -0.2643
 1046TIP3    H227334   1.578  -3.091   3.981  0.7144 -0.6234  1.6172
 1047TIP3   OH227335  -0.193   0.713   5.342 -0.1087 -0.3750 -0.3990
 1047TIP3    H127336  -0.214   0.619   5.348 -2.0588  0.0324 -0.1970
 1047TIP3    H227337  -0.271   0.757   5.377  0.6833  1.3318 -0.7000
 1048TIP3   OH227338   3.038  -0.220   2.814  0.3298 -0.2047  0.5784
 1048TIP3    H127339   3.017  -0.127   2.806 -0.4858 -0.4424 -0.2738
 1048TIP3    H227340   3.029  -0.254   2.725 -1.3392 -1.4774  1.1773
 1049TIP3   OH227341  -1.988  -1.966   3.568  0.3983 -0.6665 -0.1425
 1049TIP3    H127342  -1.987  -1.948   3.662  2.0511  0.2732 -0.2982
 1049TIP3    H227343  -1.909  -1.925   3.535 -1.7123  1.8603 -2.5026
 1050TIP3   OH227344   1.816   2.812   3.349 -0.6294  0.5343  0.0249
 1050TIP3    H127345   1.722   2.810   3.331 -1.0199  3.2789  1.2992
 1050TIP3    H227346   1.822   2.826   3.443  1.1863 -2.7490  0.5504
 1051TIP3   OH227347   0.023   2.337   5.744  0.5693 -0.7252  0.2869
 1051TIP3    H127348   0.026   2.275   5.816  0.0158  2.0012  2.8492
 1051TIP3    H227349  -0.028   2.293   5.676  1.3406 -3.5189  1.3849
 1052TIP3   OH227350  -0.865   2.492   3.120 -0.4762  0.7946 -0.0657
 1052TIP3    H127351  -0.832   2.531   3.040  1.4943  0.4703  0.5290
 1052TIP3    H227352  -0.798   2.511   3.186  0.2601 -2.7345  0.4545
 1053TIP3   OH227353   2.029  -0.296   3.839 -0.4809 -0.3674  0.1108
 1053TIP3    H127354   1.971  -0.241   3.786  1.1820  0.5410 -0.8435
 1053TIP3    H227355   2.023  -0.382   3.799  0.1154  0.1151 -1.0492
 1054TIP3   OH227356   2.996  -3.255   5.052 -0.0984  0.5268  0.2199
 1054TIP3    H127357   3.063  -3.296   5.107  0.2701 -0.6974 -1.1009
 1054TIP3    H227358   2.943  -3.204   5.114  0.7830 -0.1441  1.5865
 1055TIP3   OH227359   2.261  -1.954   3.395 -0.1634 -0.5736  0.1314
 1055TIP3    H127360   2.332  -1.982   3.453 -1.7565 -2.1527  1.4358
 1055TIP3    H227361   2.187  -2.008   3.420 -2.0536  1.4701 -0.7147
 1056TIP3   OH227362  -2.328  -1.939   3.035 -0.8453  0.1087  0.2042
 1056TIP3    H127363  -2.340  -1.989   2.955  0.2479 -0.4053  0.3419
 1056TIP3    H227364  -2.414  -1.937   3.076 -0.9152 -1.7951  0.2532
 1057TIP3   OH227365  -0.507   1.333   4.968 -0.4344 -0.1792  0.3217
 1057TIP3    H127366  -0.483   1.244   4.994  0.6508  0.1767  0.6049
 1057TIP3    H227367  -0.584   1.354   5.021 -1.5997 -1.4481 -0.7898
 1058TIP3   OH227368   1.757   2.189   3.652 -0.5582 -0.0741 -0.1613
 1058TIP3    H127369   1.766   2.191   3.557 -0.8138 -2.3601 -0.3071
 1058TIP3    H227370   1.662   2.193   3.667 -0.5680 -0.5778 -0.0668
 1059TIP3   OH227371   1.860   2.956   3.594  0.1697  0.0124 -0.4146
 1059TIP3    H127372   1.861   2.956   3.690  0.9400  1.0573 -0.4017
 1059TIP3    H227373   1.953   2.955   3.569 -0.0104  0.3834 -1.1313
 1060TIP3   OH227374   0.743   3.080   5.682 -0.1511 -0.2203 -0.2805
 1060TIP3    H127375   0.819   3.105   5.734 -0.1101  0.0522 -0.4668
 1060TIP3    H227376   0.779   3.037   5.605 -0.1588  0.2706 -0.5663
 1061TIP3   OH227377   0.635   3.161   3.263 -0.3723 -0.3745  0.0692
 1061TIP3    H127378   0.628   3.234   3.324  0.8828 -0.4127  0.2810
 1061TIP3    H227379   0.548   3.155   3.223 -0.3108  1.7245 -0.5164
 1062TIP3   OH227380  -1.507  -0.442   3.400 -0.3596  0.0074  0.2037
 1062TIP3    H127381  -1.497  -0.347   3.390  0.3593  0.1689  2.1114
 1062TIP3    H227382  -1.597  -0.453   3.432 -0.0924  0.1674  1.0455
 1063TIP3   OH227383   3.186  -0.012   3.331  0.3197  0.4035  0.2576
 1063TIP3    H127384   3.269  -0.049   3.363 -0.7786 -0.7190  1.9400
 1063TIP3    H227385   3.198   0.083   3.338  1.3099  0.2435  0.8771
 1064TIP3   OH227386  -2.926  -2.189   2.264  0.1410 -0.0560  0.9004
 1064TIP3    H127387  -2.856  -2.164   2.203  0.4711 -0.7340  0.9940
 1064TIP3    H227388  -2.910  -2.281   2.282 -0.7502 -0.2033  0.9714
 1065TIP3   OH227389   0.058  -3.110   4.239  0.2232  0.5905 -0.2914
 1065TIP3    H127390   0.028  -3.056   4.166  1.4921 -0.2309 -1.4726
 1065TIP3    H227391  -0.015  -3.170   4.256 -0.9724  2.2432  0.6631
 1066TIP3   OH227392  -3.102  -0.661   5.465 -0.5389 -0.5453 -0.2985
 1066TIP3    H127393  -3.186  -0.674   5.421 -0.5143 -2.9035  0.2207
 1066TIP3    H227394  -3.038  -0.657   5.393 -0.8737 -0.9466 -0.6242
 1067TIP3   OH227395  -2.595  -0.501   4.720 -0.1164 -0.7810  0.1317
 1067TIP3    H127396  -2.689  -0.515   4.735  0.5377 -3.3778  3.0983
 1067TIP3    H227397  -2.565  -0.458   4.799  1.0652  1.3750 -1.4022
 1068TIP3   OH227398   1.175   1.917   5.066 -0.1800 -0.6111 -0.4911
 1068TIP3    H127399   1.081   1.916   5.050 -0.2206 -1.6842 -0.2785
 1068TIP3    H227400   1.183   1.911   5.162  0.1017 -0.1442 -0.4838
 1069TIP3   OH227401  -1.344   2.386   4.993  0.0290  0.4809 -0.6917
 1069TIP3    H127402  -1.375   2.373   5.083 -1.4120  2.3294 -0.8792
 1069TIP3    H227403  -1.271   2.324   4.985 -0.8811 -0.9573  1.1792
 1070TIP3   OH227404   2.468   2.410   5.343 -0.1246 -0.5739  0.1342
 1070TIP3    H127405   2.474   2.494   5.388 -1.6028  0.5949 -1.6881
 1070TIP3    H227406   2.559   2.387   5.322  0.4533 -0.3763  2.1856
 1071TIP3   OH227407   1.346   0.461   5.520  0.8625  0.3213 -0.0624
 1071TIP3    H127408   1.329   0.405   5.596  0.1278  0.2242 -0.2881
 1071TIP3    H227409   1.330   0.405   5.444  2.2866  0.2160 -0.2989
 1072TIP3   OH227410   1.826   1.442   3.355 -0.1954  0.1648  0.1779
 1072TIP3    H127411   1.813   1.424   3.448 -2.2072 -2.3496 -0.4796
 1072TIP3    H227412   1.845   1.536   3.352  1.1478  0.1246  3.1836
 1073TIP3   OH227413   1.028  -1.074   2.255 -0.0434 -0.6224 -0.5033
 1073TIP3    H127414   0.936  -1.066   2.228 -0.5260  0.4756  1.3020
 1073TIP3    H227415   1.031  -1.157   2.303  0.0033 -0.8400 -0.8775
 1074TIP3   OH227416  -1.741   1.021   2.769 -0.0933  0.4041  0.1474
 1074TIP3    H127417  -1.716   1.112   2.787  0.9482  0.3426 -0.8904
 1074TIP3    H227418  -1.739   1.014   2.674 -1.8026 -0.2763  0.1351
 1075TIP3   OH227419  -2.848   2.531   2.854 -0.4738  0.3087 -0.3096
 1075TIP3    H127420  -2.899   2.510   2.776 -0.3717  1.5690 -0.7397
 1075TIP3    H227421  -2.787   2.599   2.825 -0.5097  0.8749  0.8924
 1076TIP3   OH227422   0.626  -2.633   5.145  0.3126  0.9023 -0.0183
 1076TIP3    H127423   0.551  -2.691   5.131  0.6696  0.5767 -0.5974
 1076TIP3    H227424   0.626  -2.575   5.069  1.5651 -0.1139 -0.8305
 1077TIP3   OH227425  -0.155  -1.983   3.453 -0.4870 -0.1528  0.3289
 1077TIP3    H127426  -0.205  -2.041   3.510  1.8545 -0.6546  2.0255
 1077TIP3    H227427  -0.103  -2.041   3.398 -0.6213  0.3602 -0.3595
 1078TIP3   OH227428   2.279  -0.692   4.565  0.4481  0.1507 -0.6447
 1078TIP3    H127429   2.322  -0.624   4.616 -2.2435  1.9083 -0.5191
 1078TIP3    H227430   2.215  -0.730   4.625 -0.7158  0.1712 -1.8348
 1079TIP3   OH227431   0.920  -0.037   4.509 -1.4526 -0.1029 -0.1740
 1079TIP3    H127432   0.988  -0.089   4.467 -0.8295  0.8357 -0.3570
 1079TIP3    H227433   0.852  -0.100   4.532 -0.2399 -1.1678  0.6127
 1080TIP3   OH227434   1.022  -2.219   3.452 -0.2176 -0.2102 -0.0527
 1080TIP3    H127435   0.957  -2.148   3.447 -0.2670 -0.1908  0.8372
 1080TIP3    H227436   0.971  -2.299   3.443 -0.3276 -0.1842  0.3424
 1081TIP3   OH227437  -0.337   3.244   1.963 -0.0189 -0.1413 -0.3011
 1081TIP3    H127438  -0.242   3.233   1.960 -0.1035 -0.7419 -1.4680
 1081TIP3    H227439  -0.372   3.161   1.931 -1.1567 -1.8273  4.5010
 1082TIP3   OH227440  -1.459  -1.618   5.684 -0.3751  0.1764 -0.1541
 1082TIP3    H127441  -1.458  -1.698   5.736 -0.9883 -0.0193 -0.4376
 1082TIP3    H227442  -1.403  -1.638   5.609  1.4557  0.8468  0.9632
 1083TIP3   OH227443   1.771  -3.120   4.707  0.1568  0.0687  0.6430
 1083TIP3    H127444   1.725  -3.052   4.756  0.0462  0.1005  0.4964
 1083TIP3    H227445   1.714  -3.196   4.713 -1.0593  0.7261 -1.4463
 1084TIP3   OH227446   1.727   2.276   4.223  0.6530 -0.2949 -0.3853
 1084TIP3    H127447   1.669   2.200   4.223  0.6405 -0.3632  2.0346
 1084TIP3    H227448   1.814   2.240   4.203  0.1745 -0.4003 -2.5578
 1085TIP3   OH227449  -0.017  -2.738   4.649  0.4325  0.0825  0.2467
 1085TIP3    H127450  -0.008  -2.707   4.558 -1.1605  0.4685  0.2006
 1085TIP3    H227451   0.001  -2.831   4.644  0.0563  0.0411 -0.5371
 1086TIP3   OH227452   1.813   2.141   3.030  0.1151  0.2233  0.2285
 1086TIP3    H127453   1.800   2.049   3.050  0.4908  0.0989 -0.0784
 1086TIP3    H227454   1.892   2.166   3.079  0.3041  0.2471 -0.0826
 1087TIP3   OH227455  -1.329   1.280   4.297  0.5407 -1.1237  1.2318
 1087TIP3    H127456  -1.419   1.310   4.284  0.6414 -1.0418  0.7036
 1087TIP3    H227457  -1.287   1.352   4.345 -0.0172 -1.7192  2.6639
 1088TIP3   OH227458   2.904   2.015   4.186 -0.1108 -0.0865 -0.4029
 1088TIP3    H127459   2.904   1.927   4.149 -0.1029  0.7098 -2.4737
 1088TIP3    H227460   2.909   2.073   4.109 -0.9531  1.7340  0.8333
 1089TIP3   OH227461   2.610   3.360   4.688  0.3855 -0.4082 -0.1635
 1089TIP3    H127462   2.521   3.378   4.716  0.4025  0.8880 -0.8598
 1089TIP3    H227463   2.665   3.390   4.761  0.3082  0.5383 -0.4688
 1090TIP3   OH227464  -1.266  -0.749   2.825  0.4191 -0.5988 -0.2134
 1090TIP3    H127465  -1.262  -0.789   2.912  1.8902  0.1453  0.0815
 1090TIP3    H227466  -1.199  -0.795   2.774  2.4306  1.6652  0.2429
 1091TIP3   OH227467  -3.076  -2.062   4.670 -0.0625 -0.5524 -0.1256
 1091TIP3    H127468  -2.991  -2.046   4.629 -0.2411  0.7346 -0.0376
 1091TIP3    H227469  -3.119  -2.125   4.613  0.2410  0.1688 -1.1774
 1092TIP3   OH227470  -2.210   0.638   4.427 -0.3980 -0.2249 -0.2279
 1092TIP3    H127471  -2.199   0.621   4.334  0.0406  0.8973 -0.4060
 1092TIP3    H227472  -2.182   0.558   4.470 -0.1096 -0.5752 -1.0465
 1093TIP3   OH227473  -1.404  -3.223   5.207  0.5763  0.2333  0.1789
 1093TIP3    H127474  -1.369  -3.218   5.118  0.5988  0.5626  0.2026
 1093TIP3    H227475  -1.328  -3.242   5.262  0.8639  1.6646  0.3177
 1094TIP3   OH227476   2.457  -0.862   4.077 -0.1767 -0.4123  0.2590
 1094TIP3    H127477   2.365  -0.883   4.063 -0.0147 -0.9263 -0.0470
 1094TIP3    H227478   2.458  -0.767   4.093 -0.6185 -0.1834 -0.9930
 1095TIP3   OH227479  -3.254  -3.166   4.321 -0.3306 -0.6439  0.6117
 1095TIP3    H127480  -3.311  -3.089   4.329 -0.5957 -0.7241 -0.4693
 1095TIP3    H227481  -3.285  -3.212   4.244 -0.2971 -1.9651  1.3664
 1096TIP3   OH227482   0.052   0.704   4.714 -0.5542 -0.7161 -0.9446
 1096TIP3    H127483   0.129   0.649   4.697 -0.2159 -0.2169 -1.0403
 1096TIP3    H227484  -0.022   0.646   4.698 -0.2411 -2.0810  1.8946
 1097TIP3   OH227485  -2.858  -2.299   3.805 -0.8040 -0.0839  0.1388
 1097TIP3    H127486  -2.833  -2.209   3.787 -0.8707 -0.2321 -0.7136
 1097TIP3    H227487  -2.785  -2.352   3.773 -2.1258 -0.5221 -2.4331
 1098TIP3   OH227488   0.544  -2.656   4.699  0.2395  0.3482 -0.0021
 1098TIP3    H127489   0.627  -2.702   4.703  0.7954  1.3262 -0.0375
 1098TIP3    H227490   0.479  -2.725   4.681  1.1175 -0.3269 -0.6864
 1099TIP3   OH227491   0.335  -3.161   4.100 -0.2262  0.3608 -0.3179
 1099TIP3    H127492   0.326  -3.165   4.195 -0.0554 -0.2688 -0.3282
 1099TIP3    H227493   0.281  -3.232   4.067 -0.0350  0.3776 -0.6783
 1100TIP3   OH227494   3.134   0.064   5.201  0.1931  0.4913  0.1086
 1100TIP3    H127495   3.211   0.039   5.251 -0.4671 -1.5812  0.1904
 1100TIP3    H227496   3.078   0.109   5.264 -0.5774 -1.9766  1.3286
 1101TIP3   OH227497  -0.434   0.294   4.626  0.1754 -0.1877  0.0094
 1101TIP3    H127498  -0.417   0.358   4.696  1.9149 -0.9064  0.2923
 1101TIP3    H227499  -0.525   0.266   4.641 -0.1333  1.1259  0.7586
 1102TIP3   OH227500   0.332  -3.148   4.388 -0.2511  0.8793 -0.2380
 1102TIP3    H127501   0.279  -3.068   4.383 -2.2094 -0.3184  0.0221
 1102TIP3    H227502   0.320  -3.178   4.478  1.6647  1.0155  0.1105
 1103TIP3   OH227503   2.348  -1.290   4.932 -0.0992 -0.2561 -0.1283
 1103TIP3    H127504   2.357  -1.236   4.853 -0.0834 -0.0446  0.0153
 1103TIP3    H227505   2.290  -1.361   4.906  0.5991 -0.6679 -0.5752
 1104TIP3   OH227506  -1.251  -3.268   4.236 -0.1883  0.5617 -0.1181
 1104TIP3    H127507  -1.345  -3.266   4.255 -0.1018  1.4239  0.2567
 1104TIP3    H227508  -1.229  -3.178   4.212  0.3246  0.1270 -1.3597
 1105TIP3   OH227509  -1.075   1.155   3.596 -0.2371 -0.3630  0.1442
 1105TIP3    H127510  -1.054   1.091   3.665 -0.8571  0.3817  1.0469
 1105TIP3    H227511  -1.031   1.235   3.624  1.1937 -0.5583 -1.3797
 1106TIP3   OH227512   1.595   2.886   3.611 -0.0126  0.1248  0.4071
 1106TIP3    H127513   1.526   2.923   3.555 -0.9806 -1.5865  0.3789
 1106TIP3    H227514   1.676   2.923   3.577 -0.7230  0.3504 -1.1433
 1107TIP3   OH227515  -0.044   1.968   3.328  0.3512 -0.0248 -0.4415
 1107TIP3    H127516  -0.017   1.935   3.414 -0.9980  0.4242  0.1757
 1107TIP3    H227517  -0.095   1.896   3.290 -0.5925  0.4352 -0.0835
 1108TIP3   OH227518   2.550  -2.709   5.738 -0.3170  0.3867 -0.3251
 1108TIP3    H127519   2.491  -2.723   5.665 -0.6279  0.0587 -0.0136
 1108TIP3    H227520   2.638  -2.724   5.701 -0.5612 -1.4244 -0.2588
 1109TIP3   OH227521   1.600  -0.586   3.632 -0.0363  0.2413  0.4000
 1109TIP3    H127522   1.588  -0.498   3.666  0.0320  0.2840  0.3137
 1109TIP3    H227523   1.612  -0.641   3.709 -0.4582  0.2498  0.4746
 1110TIP3   OH227524   1.610  -2.326   2.451  0.2575 -0.3878  0.0791
 1110TIP3    H127525   1.652  -2.377   2.382 -0.6064 -1.1528  0.1012
 1110TIP3    H227526   1.525  -2.368   2.464  0.7179 -0.7718  2.1896
 1111TIP3   OH227527   0.564  -1.985   4.528 -0.7475 -0.3854  0.0432
 1111TIP3    H127528   0.490  -2.025   4.483 -1.6803 -0.4089  1.5072
 1111TIP3    H227529   0.526  -1.947   4.608  0.8197 -0.4320  0.8638
 1112TIP3   OH227530   1.257  -0.427   5.590 -0.5114  0.0562 -0.0062
 1112TIP3    H127531   1.251  -0.488   5.664 -2.7654  1.1463  0.8421
 1112TIP3    H227532   1.350  -0.421   5.570  0.1309 -0.6913  2.4288
 1113TIP3   OH227533   2.551   0.042   3.141  0.1485  0.0323  0.1961
 1113TIP3    H127534   2.480  -0.011   3.104 -0.7494  0.0135  1.8422
 1113TIP3    H227535   2.627  -0.017   3.141 -0.0370 -0.2273 -0.8078
 1114TIP3   OH227536  -2.271  -3.054   2.922 -0.2504  0.1182 -0.1805
 1114TIP3    H127537  -2.206  -3.028   2.988 -0.6539  1.9805 -0.4800
 1114TIP3    H227538  -2.269  -3.150   2.924  0.8283  0.1336  1.4599
 1115TIP3   OH227539   2.227   1.931   2.244  0.0253 -0.2707 -0.0097
 1115TIP3    H127540   2.144   1.924   2.197  0.5761 -2.5996 -0.7952
 1115TIP3    H227541   2.236   2.024   2.265 -1.8259  0.3288 -1.6353
 1116TIP3   OH227542   0.182   2.240   3.663 -0.3783  0.1028 -0.1219
 1116TIP3    H127543   0.117   2.172   3.683 -0.2832 -0.0417 -0.3058
 1116TIP3    H227544   0.237   2.202   3.596 -0.0716  0.2081  0.0674
 1117TIP3   OH227545  -1.657  -2.942   5.739 -1.2818 -0.2467  0.5168
 1117TIP3    H127546  -1.741  -2.976   5.707 -1.1744  0.1395 -0.1770
 1117TIP3    H227547  -1.654  -2.852   5.708 -0.7433 -0.1632  0.8076
 1118TIP3   OH227548  -2.238  -2.918   4.742 -0.1206  0.0984  0.1900
 1118TIP3    H127549  -2.218  -3.011   4.752 -0.7187  0.0211  0.7038
 1118TIP3    H227550  -2.277  -2.893   4.825  0.7495  1.0031  0.3311
 1119TIP3   OH227551   1.715   0.697   2.594  0.1580 -0.0743 -0.5048
 1119TIP3    H127552   1.670   0.770   2.551 -2.7564 -1.1108  0.5121
 1119TIP3    H227553   1.731   0.634   2.524  0.1223  0.3571 -0.9092
 1120TIP3   OH227554  -2.418  -2.877   4.928 -0.3013 -0.0623  0.5683
 1120TIP3    H127555  -2.497  -2.867   4.874  1.0812  2.2477 -1.2557
 1120TIP3    H227556  -2.427  -2.811   4.996  0.3871  0.8444 -0.1829
 1121TIP3   OH227557   2.700   1.272   4.912  0.3098 -0.8664  0.1257
 1121TIP3    H127558   2.751   1.352   4.924 -0.1643 -0.3525 -1.1489
 1121TIP3    H227559   2.621   1.300   4.866 -0.4321 -1.8900  0.7119
 1122TIP3   OH227560   1.391  -0.416   3.453  0.2081  0.2678 -0.0284
 1122TIP3    H127561   1.443  -0.420   3.534  0.0116  3.9747  0.4206
 1122TIP3    H227562   1.416  -0.333   3.412 -0.9836 -0.6880 -2.9449
 1123TIP3   OH227563  -1.642  -0.600   4.377  0.4401 -0.0098 -0.7319
 1123TIP3    H127564  -1.566  -0.579   4.322  0.0450 -0.2983 -1.4081
 1123TIP3    H227565  -1.651  -0.525   4.435  1.8823 -0.4469  0.0956
 1124TIP3   OH227566  -2.023  -2.409   3.160  0.1128  0.4075  0.6452
 1124TIP3    H127567  -1.985  -2.367   3.237  0.4316 -0.3953  0.9352
 1124TIP3    H227568  -2.056  -2.336   3.107  1.0807  1.0481  0.9003
 1125TIP3   OH227569  -2.196  -0.493   3.510 -0.0292 -0.2755 -0.2102
 1125TIP3    H127570  -2.218  -0.400   3.507  1.3097  0.0717 -0.2558
 1125TIP3    H227571  -2.127  -0.499   3.576  0.9538 -0.9729 -1.2582
 1126TIP3   OH227572  -0.386   2.943   3.733 -0.0609  0.0855 -0.0755
 1126TIP3    H127573  -0.317   2.876   3.732 -0.8494 -0.8158  1.4415
 1126TIP3    H227574  -0.467   2.894   3.722 -0.6809  0.7257  1.3589
 1127TIP3   OH227575  -2.287   2.840   3.581  0.5901 -0.2054  0.6851
 1127TIP3    H127576  -2.316   2.909   3.640  0.2211 -1.0129  1.4772
 1127TIP3    H227577  -2.368   2.796   3.553  0.7453  0.2522 -0.5538
 1128TIP3   OH227578  -0.070  -1.326   1.625  0.5674 -0.0996 -0.1996
 1128TIP3    H127579  -0.079  -1.384   1.700  0.8734 -1.3000 -1.0466
 1128TIP3    H227580   0.024  -1.322   1.609  0.5850  1.0294  0.1357
 1129TIP3   OH227581   1.835  -0.213   3.657  0.5951  0.0690 -0.4903
 1129TIP3    H127582   1.865  -0.274   3.590  0.4783  0.3404 -0.7916
 1129TIP3    H227583   1.840  -0.127   3.615 -1.1472  0.0788 -0.7513
 1130TIP3   OH227584   1.939  -0.001   4.453  0.7015 -0.3877  0.3390
 1130TIP3    H127585   1.912  -0.062   4.521 -4.1267  0.7090 -0.1788
 1130TIP3    H227586   1.955   0.081   4.499  0.9731 -0.5036  0.4536
 1131TIP3   OH227587   1.230  -2.191   5.028 -0.4040  0.1895  0.0582
 1131TIP3    H127588   1.259  -2.171   5.117  1.7661  1.4492 -0.8510
 1131TIP3    H227589   1.259  -2.116   4.976  0.6521 -1.6105 -2.1249
 1132TIP3   OH227590   1.712   2.430   3.943 -0.2954 -0.7229  0.2849
 1132TIP3    H127591   1.676   2.495   3.883  0.6343 -0.5148 -0.0602
 1132TIP3    H227592   1.641   2.411   4.004 -0.0999  1.8082  1.4080
 1133TIP3   OH227593  -2.200   2.415   4.198  0.2682  0.3514  0.7997
 1133TIP3    H127594  -2.172   2.483   4.259 -1.9450  0.4004  1.8290
 1133TIP3    H227595  -2.232   2.463   4.121 -0.1535  0.4261  1.0222
 1134TIP3   OH227596   2.940   1.357   4.617  0.1399 -0.0104 -0.3567
 1134TIP3    H127597   3.006   1.314   4.673  0.8911  0.9262 -0.4871
 1134TIP3    H227598   2.861   1.306   4.630 -0.1070  0.9090  2.6414
 1135TIP3   OH227599   1.351  -0.407   5.111  0.4276  0.2839  0.2106
 1135TIP3    H127600   1.377  -0.496   5.133  0.1955  0.5741  1.7505
 1135TIP3    H227601   1.317  -0.370   5.193 -0.2153  1.5301 -0.5758
 1136TIP3   OH227602  -0.627   2.999   4.053  0.4900 -0.8669 -0.2518
 1136TIP3    H127603  -0.650   2.977   3.963 -0.2528  1.5895 -0.7490
 1136TIP3    H227604  -0.702   3.050   4.085  1.6593  0.1264  1.0109
 1137TIP3   OH227605  -0.676   1.141   5.261 -0.4341 -0.4175 -0.0307
 1137TIP3    H127606  -0.712   1.070   5.315  0.3946 -4.0023 -3.7041
 1137TIP3    H227607  -0.581   1.131   5.268 -0.3112 -0.2452 -1.1934
 1138TIP3   OH227608  -0.003   1.044   4.538  0.2172 -0.4513 -0.5932
 1138TIP3    H127609   0.080   0.995   4.539  0.9600  0.7438 -1.0101
 1138TIP3    H227610   0.001   1.094   4.456 -0.6815  0.0250 -0.3520
 1139TIP3   OH227611  -1.128  -2.760   4.546  0.4629  0.8316  0.0249
 1139TIP3    H127612  -1.168  -2.730   4.628  1.7183 -0.1377  1.0388
 1139TIP3    H227613  -1.040  -2.722   4.547  1.4824 -1.4006  0.5229
 1140TIP3   OH227614   0.149  -3.179   3.015 -0.1814  0.1984  0.4382
 1140TIP3    H127615   0.069  -3.232   3.004 -0.2907  0.5564 -0.6280
 1140TIP3    H227616   0.172  -3.189   3.107 -1.3655 -0.0462  0.7222
 1141TIP3   OH227617   2.312  -1.236   2.864  0.1130  0.1255  0.2331
 1141TIP3    H127618   2.376  -1.307   2.857  0.4402  0.3821  0.5414
 1141TIP3    H227619   2.257  -1.245   2.787  2.4420  1.8002 -1.7494
 1142TIP3   OH227620  -0.550  -2.996   2.041  0.2779 -0.0873  0.0074
 1142TIP3    H127621  -0.502  -2.924   1.999  4.2559 -2.7002 -0.5113
 1142TIP3    H227622  -0.560  -2.968   2.132  2.8310  0.7796  0.1283
 1143TIP3   OH227623   1.578   2.087   4.890 -0.2649  0.5790  0.5670
 1143TIP3    H127624   1.586   2.058   4.800 -0.2247  1.3768  0.3092
 1143TIP3    H227625   1.606   2.179   4.889 -2.9489  1.5050  0.8277
 1144TIP3   OH227626   1.606  -0.950   5.237 -0.6865 -0.5157 -0.2181
 1144TIP3    H127627   1.632  -1.033   5.277  1.8555 -0.3554 -1.3761
 1144TIP3    H227628   1.548  -0.909   5.301  0.3399 -1.8829  1.6519
 1145TIP3   OH227629   0.919   0.164   5.315  0.2084  0.0624 -0.0445
 1145TIP3    H127630   0.887   0.143   5.403  0.0937  1.0883  0.1793
 1145TIP3    H227631   0.946   0.080   5.278  1.8035 -0.1985  1.5697
 1146TIP3   OH227632  -2.145   1.217   4.961 -0.0185  0.1956  0.1688
 1146TIP3    H127633  -2.140   1.125   4.935  2.8211  0.2934 -0.0386
 1146TIP3    H227634  -2.236   1.242   4.945 -0.6852 -2.3416 -0.5236
 1147TIP3   OH227635  -1.389   0.843   2.768  0.3212  0.0886 -0.4883
 1147TIP3    H127636  -1.343   0.836   2.684  0.8207 -0.0010 -0.2124
 1147TIP3    H227637  -1.453   0.912   2.754  1.3215  1.0337 -0.5365
 1148TIP3   OH227638   1.480  -0.715   4.954 -0.5035 -0.2889 -0.6009
 1148TIP3    H127639   1.488  -0.760   5.038 -0.0058 -1.1457 -1.0999
 1148TIP3    H227640   1.443  -0.780   4.895 -1.8002  0.6034 -0.8224
 1149TIP3   OH227641  -0.460  -2.642   4.090  0.1981  0.1788 -0.5412
 1149TIP3    H127642  -0.398  -2.650   4.162  1.1291 -3.0140 -1.4896
 1149TIP3    H227643  -0.545  -2.658   4.130  0.3126  1.5412  0.2960
 1150TIP3   OH227644  -1.391   1.154   5.271  0.1435  0.0338  0.1900
 1150TIP3    H127645  -1.351   1.087   5.216 -0.4959 -1.2457  1.2222
 1150TIP3    H227646  -1.339   1.152   5.352 -0.1219  0.5163  0.3758
 1151TIP3   OH227647   0.003   0.034   5.545 -0.2242  0.8273 -0.2174
 1151TIP3    H127648   0.044  -0.030   5.603  2.2005 -0.2057 -2.8454
 1151TIP3    H227649   0.056   0.113   5.554  0.8114  0.3384 -1.6720
 1152TIP3   OH227650   0.762   0.567   2.396 -0.2173 -0.2215  0.5310
 1152TIP3    H127651   0.686   0.586   2.451 -0.8860  0.8164 -0.7013
 1152TIP3    H227652   0.833   0.621   2.432 -0.5764  0.2475  0.5326
 1153TIP3   OH227653  -1.112   2.813   4.840 -0.2399 -0.8553 -0.5330
 1153TIP3    H127654  -1.143   2.773   4.921 -0.4830 -0.2824 -0.3430
 1153TIP3    H227655  -1.028   2.770   4.823 -0.5268 -1.4884 -0.3639
 1154TIP3   OH227656  -2.737   1.183   2.558  0.0875 -0.8307 -0.5717
 1154TIP3    H127657  -2.708   1.140   2.638 -1.3195  0.1653  0.5419
 1154TIP3    H227658  -2.742   1.276   2.581  0.2888 -0.4306 -2.0304
 1155TIP3   OH227659   3.307   2.855   3.025  0.0860  0.1785 -0.3356
 1155TIP3    H127660   3.230   2.817   3.066  0.8767 -1.1548 -0.0103
 1155TIP3    H227661   3.356   2.780   2.992  2.0920  0.8267  0.9808
 1156TIP3   OH227662  -0.832   2.670   2.085 -0.2816 -0.1430 -0.7533
 1156TIP3    H127663  -0.858   2.724   2.159 -0.1761  0.0199 -0.8337
 1156TIP3    H227664  -0.788   2.595   2.124  0.7253  0.4657 -0.6938
 1157TIP3   OH227665  -2.371   1.651   3.574 -0.0185  0.2543  0.1795
 1157TIP3    H127666  -2.436   1.636   3.505  2.1793  2.8431 -2.7606
 1157TIP3    H227667  -2.338   1.563   3.595 -1.9299 -0.7753 -0.8703
 1158TIP3   OH227668  -2.588  -1.576   5.261 -0.0109 -0.0631 -0.3028
 1158TIP3    H127669  -2.620  -1.645   5.203  1.4498  1.2696 -2.8682
 1158TIP3    H227670  -2.667  -1.537   5.298 -0.9217 -1.9202 -0.1863
 1159TIP3   OH227671   1.993  -3.143   5.618  0.8158  0.3175  0.2220
 1159TIP3    H127672   2.011  -3.170   5.528  0.6374  1.1523 -0.0792
 1159TIP3    H227673   2.071  -3.168   5.667  0.5351 -0.9914  0.0287
 1160TIP3   OH227674   1.467  -2.557   5.046  0.5578 -0.0836 -0.7743
 1160TIP3    H127675   1.417  -2.531   4.969 -1.1401 -1.6170 -0.2635
 1160TIP3    H227676   1.558  -2.551   5.019  0.0684  1.2411 -2.2755
 1161TIP3   OH227677  -2.884  -2.745   5.415 -0.0318 -0.9824 -0.2071
 1161TIP3    H127678  -2.873  -2.661   5.460 -0.8368 -1.0654  0.1591
 1161TIP3    H227679  -2.858  -2.728   5.325 -1.6594  0.0665 -0.5117
 1162TIP3   OH227680  -3.263  -2.719   3.568  0.2216 -0.2881 -0.0989
 1162TIP3    H127681  -3.278  -2.700   3.476  0.7325  0.8789  0.0397
 1162TIP3    H227682  -3.168  -2.709   3.580  0.0453  0.5439  0.7398
 1163TIP3   OH227683   3.285  -3.314   4.898  0.1018  0.3150  0.6251
 1163TIP3    H127684   3.273  -3.351   4.986 -0.9230 -0.4716  0.1732
 1163TIP3    H227685   3.374  -3.340   4.874  0.4728  0.7196  1.5086
 1164TIP3   OH227686   2.510   3.121   4.063  0.1839  0.3122  0.0628
 1164TIP3    H127687   2.559   3.074   4.131  1.8993  0.4017 -1.0425
 1164TIP3    H227688   2.576   3.142   3.997 -1.1884  1.3707 -1.0243
 1165TIP3   OH227689  -2.789   1.232   4.465 -0.0684  0.9308  0.3467
 1165TIP3    H127690  -2.738   1.241   4.546  0.6855 -0.9324  0.1151
 1165TIP3    H227691  -2.817   1.322   4.445  1.2897  1.6988  1.6590
 1166TIP3   OH227692  -2.337   0.361   3.258  0.3284 -0.0026  0.6714
 1166TIP3    H127693  -2.302   0.451   3.257  0.6295 -0.1189 -0.7663
 1166TIP3    H227694  -2.289   0.318   3.329  3.4131 -0.2168 -1.3153
 1167TIP3   OH227695  -0.479  -3.132   5.561  0.5235  0.2666 -0.2173
 1167TIP3    H127696  -0.404  -3.191   5.562  0.7834  0.6051  0.2379
 1167TIP3    H227697  -0.543  -3.173   5.618  1.4857  1.4262  1.7932
 1168TIP3   OH227698  -1.986  -0.757   5.860  0.1919 -0.1821  0.4893
 1168TIP3    H127699  -1.901  -0.801   5.851  0.4030 -0.4109  2.9005
 1168TIP3    H227700  -2.050  -0.829   5.861  0.0465 -0.0744 -0.3285
 1169TIP3   OH227701  -1.557  -1.167   3.089 -0.2743 -0.1793  0.0515
 1169TIP3    H127702  -1.580  -1.119   3.168 -2.0810  0.5999 -0.8860
 1169TIP3    H227703  -1.518  -1.101   3.031  0.5913 -0.6389  0.0885
 1170TIP3   OH227704   0.535   0.925   5.816  0.6668  0.2558 -0.0315
 1170TIP3    H127705   0.599   0.951   5.882  0.6005  0.0141  0.1304
 1170TIP3    H227706   0.476   1.001   5.808  1.4963  0.8295 -0.8330
 1171TIP3   OH227707  -2.483   2.413   5.483 -0.0338 -0.2965 -0.3789
 1171TIP3    H127708  -2.531   2.337   5.517  1.0556 -1.5650 -1.5719
 1171TIP3    H227709  -2.393   2.381   5.470  0.7990  1.5838  0.3464
 1172TIP3   OH227710   2.911   1.845   3.315 -0.0053 -0.6620 -0.6005
 1172TIP3    H127711   2.959   1.886   3.244  0.4142 -1.4839 -0.8106
 1172TIP3    H227712   2.947   1.884   3.395  0.4272 -0.6566 -0.7947
 1173TIP3   OH227713  -2.211   2.131   4.689  0.3168  0.4083 -0.2193
 1173TIP3    H127714  -2.222   2.037   4.700  1.4279  0.3355  0.4272
 1173TIP3    H227715  -2.172   2.141   4.602 -1.4682  0.4298 -1.0655
 1174TIP3   OH227716   1.614   1.300   5.397 -0.4555  0.0786  0.5039
 1174TIP3    H127717   1.526   1.262   5.393 -1.2730  1.6170  2.3616
 1174TIP3    H227718   1.608   1.367   5.464  1.5607  1.7952 -0.8970
 1175TIP3   OH227719  -0.729  -0.729   4.813 -0.7909  0.2652  0.5563
 1175TIP3    H127720  -0.689  -0.784   4.881 -0.3868  1.8883  1.7026
 1175TIP3    H227721  -0.669  -0.655   4.804 -3.0497  2.3880  1.7327
 1176TIP3   OH227722   2.221   1.122   4.583 -0.0481  0.7649  0.4516
 1176TIP3    H127723   2.230   1.090   4.673  2.8390  0.9138  0.3077
 1176TIP3    H227724   2.218   1.042   4.530  1.7917  0.6294  0.4837
 1177TIP3   OH227725   1.193  -0.038   5.384  0.6810 -0.4111  0.2193
 1177TIP3    H127726   1.124  -0.097   5.415 -0.6263  0.9879  0.0902
 1177TIP3    H227727   1.267  -0.096   5.366 -0.0840 -1.8398  1.3843
 1178TIP3   OH227728  -2.916  -0.517   3.941  0.2469 -0.1878  0.1573
 1178TIP3    H127729  -2.862  -0.475   3.875  1.5192 -0.3822  1.0363
 1178TIP3    H227730  -2.863  -0.513   4.021 -0.3919 -1.7716  0.6928
 1179TIP3   OH227731   0.422   0.420   3.769 -0.3184  0.7046 -0.3642
 1179TIP3    H127732   0.498   0.401   3.715 -0.4382  0.8969 -0.6045
 1179TIP3    H227733   0.385   0.500   3.731 -0.5896  0.6604 -0.1973
 1180TIP3   OH227734   0.653   2.936   3.758  0.2415 -0.0963 -0.0025
 1180TIP3    H127735   0.631   2.990   3.834 -1.5995 -0.5876 -0.1317
 1180TIP3    H227736   0.621   2.986   3.683  0.9344 -0.1728 -0.3533
 1181TIP3   OH227737   0.514   0.347   4.014 -0.1014 -0.5424 -0.1570
 1181TIP3    H127738   0.445   0.282   4.004 -1.3447  0.5589  0.8752
 1181TIP3    H227739   0.486   0.421   3.962 -0.1536  0.2464  0.9595
 1182TIP3   OH227740   0.890   2.900   5.532 -0.2679 -0.1063  0.3023
 1182TIP3    H127741   0.949   2.878   5.604  0.7359  2.1520  0.2485
 1182TIP3    H227742   0.947   2.939   5.466 -1.2514 -1.5988 -1.5380
 1183TIP3   OH227743  -2.367  -0.612   3.197  0.9069  0.0348  0.3897
 1183TIP3    H127744  -2.427  -0.679   3.164 -0.4223  0.6007  1.5420
 1183TIP3    H227745  -2.283  -0.632   3.156 -0.0866 -0.7124 -1.3886
 1184TIP3   OH227746  -0.071   3.090   2.673  0.3484 -0.4550 -0.5231
 1184TIP3    H127747  -0.052   3.173   2.628 -1.3611  1.6554  2.2663
 1184TIP3    H227748  -0.132   3.045   2.616  0.1671  0.9030 -1.4655
 1185TIP3   OH227749  -3.046  -0.456   2.582 -0.5175  0.2503  0.3438
 1185TIP3    H127750  -3.096  -0.458   2.501  1.1867 -0.1119 -0.7569
 1185TIP3    H227751  -3.043  -0.547   2.611  0.5343  0.0739 -0.2806
 1186TIP3   OH227752   2.305   1.602   3.659 -0.2834 -0.0281  0.1483
 1186TIP3    H127753   2.390   1.624   3.698  0.1595 -1.4673  0.0351
 1186TIP3    H227754   2.249   1.580   3.734 -0.4537  0.5233  0.1912
 1187TIP3   OH227755   1.234  -0.881   5.375  0.2541  0.1581  0.1151
 1187TIP3    H127756   1.182  -0.828   5.436 -0.9485 -0.3116 -0.4710
 1187TIP3    H227757   1.224  -0.971   5.406 -0.4275 -0.0952 -0.7818
 1188TIP3   OH227758   1.194   0.511   3.677  0.1030  0.0797  0.0066
 1188TIP3    H127759   1.237   0.581   3.728 -0.6777  0.5019  0.1032
 1188TIP3    H227760   1.117   0.553   3.639 -0.4300 -0.7586  0.1392
 1189TIP3   OH227761  -0.762   2.862   3.219 -0.1884  0.0506 -0.1989
 1189TIP3    H127762  -0.856   2.859   3.202 -0.3665 -2.2931  0.8335
 1189TIP3    H227763  -0.733   2.771   3.214  1.1740  0.0869  3.7795
 1190TIP3   OH227764  -2.354  -1.101   5.597 -0.2602  0.2958  0.2825
 1190TIP3    H127765  -2.403  -1.076   5.519 -0.9376 -0.9063  0.2833
 1190TIP3    H227766  -2.302  -1.176   5.569  0.5705  0.7319  0.6356
 1191TIP3   OH227767   1.023  -1.188   2.783  0.0300 -0.5208  0.7384
 1191TIP3    H127768   1.094  -1.221   2.728  0.5902 -1.0041  1.7398
 1191TIP3    H227769   0.958  -1.154   2.720  0.9383 -0.4696 -0.1937
 1192TIP3   OH227770   2.993   2.242   1.667  0.0228  0.6431  0.1308
 1192TIP3    H127771   2.944   2.279   1.741  0.7856  0.9389  0.4948
 1192TIP3    H227772   2.956   2.286   1.590 -0.8794  0.2255  0.3138
 1193TIP3   OH227773   3.105  -2.632   4.528  0.2796  0.0192  0.0529
 1193TIP3    H127774   3.113  -2.726   4.546 -2.5955 -0.5273 -0.8677
 1193TIP3    H227775   3.141  -2.621   4.440 -1.4039 -0.7312 -0.7736
 1194TIP3   OH227776  -2.194  -0.501   3.013  0.1682  0.5009  0.3739
 1194TIP3    H127777  -2.189  -0.406   3.006  0.7857  0.4832  0.5301
 1194TIP3    H227778  -2.246  -0.528   2.937 -0.0244  0.9604  0.3402
 1195TIP3   OH227779  -2.167   0.992   5.515 -0.5774 -0.2190 -0.1096
 1195TIP3    H127780  -2.260   1.012   5.525 -0.4028 -0.0922  1.5073
 1195TIP3    H227781  -2.126   1.078   5.501 -0.8406 -0.4115 -2.4685
 1196TIP3   OH227782   1.763   0.385   3.337  0.5755  0.2226 -0.2602
 1196TIP3    H127783   1.816   0.318   3.292 -0.5684 -0.9237  0.0279
 1196TIP3    H227784   1.817   0.464   3.335  1.2373 -0.2153 -2.2199
 1197TIP3   OH227785  -1.056   1.924   4.842 -0.2381 -0.0631 -0.2551
 1197TIP3    H127786  -1.060   1.981   4.765  0.5316  0.3558 -0.0003
 1197TIP3    H227787  -1.140   1.937   4.887  1.2384  3.8372  1.8535
 1198TIP3   OH227788   2.424  -3.222   3.447 -0.5599 -0.2328 -0.4289
 1198TIP3    H127789   2.333  -3.211   3.420 -0.4588 -0.8212 -1.0335
 1198TIP3    H227790   2.420  -3.245   3.539 -0.9717  0.6986 -0.2023
 1199TIP3   OH227791   0.047  -1.259   2.381  0.5789  0.3399 -0.6851
 1199TIP3    H127792   0.081  -1.243   2.469  1.3362 -1.1742 -0.6667
 1199TIP3    H227793   0.121  -1.296   2.333 -1.4631 -6.2724  0.2399
 1200TIP3   OH227794   0.457   2.570   4.617 -0.2933  0.0504  0.9740
 1200TIP3    H127795   0.383   2.545   4.561 -0.1538  1.7326 -0.0542
 1200TIP3    H227796   0.483   2.489   4.661 -1.1766 -1.0917 -0.5141
 1201TIP3   OH227797   0.553  -1.433   2.816 -0.4399  0.1172  0.0813
 1201TIP3    H127798   0.483  -1.421   2.753 -0.4972  2.0052  0.4252
 1201TIP3    H227799   0.509  -1.454   2.898 -0.6753  1.6685  0.3825
 1202TIP3   OH227800   3.269   2.412   5.842 -0.1983 -0.2185 -0.7086
 1202TIP3    H127801   3.207   2.340   5.830  1.1295 -1.1148 -2.6924
 1202TIP3    H227802   3.233   2.484   5.790 -0.2245 -0.3194 -0.8302
 1203TIP3   OH227803   2.948   0.961   5.614  0.1929 -0.4764 -0.1565
 1203TIP3    H127804   2.990   0.881   5.585  1.1937  0.2226 -0.6724
 1203TIP3    H227805   2.895   0.934   5.690  0.7996 -1.5390 -0.0940
 1204TIP3   OH227806  -2.734   2.964   4.129 -0.3511 -0.6295  0.0073
 1204TIP3    H127807  -2.653   3.001   4.164 -1.7050  2.6643  0.0377
 1204TIP3    H227808  -2.733   2.872   4.156  2.8800 -0.4712  0.7882
 1205TIP3   OH227809  -2.252   1.073   3.779 -0.6781 -0.2694  0.5363
 1205TIP3    H127810  -2.297   1.156   3.759  0.3494  0.1434 -0.1184
 1205TIP3    H227811  -2.316   1.023   3.830 -2.0078  0.1664 -0.6453
 1206TIP3   OH227812  -0.101  -0.131   5.129  0.2209 -0.0128 -0.0207
 1206TIP3    H127813  -0.164  -0.121   5.201 -0.5504 -1.4524 -0.4600
 1206TIP3    H227814  -0.054  -0.212   5.149  3.0045  1.6926  1.0345
 1207TIP3   OH227815  -1.583  -1.366   4.314  0.1770  0.2027 -0.8856
 1207TIP3    H127816  -1.491  -1.369   4.340 -0.2339 -0.7072  0.5271
 1207TIP3    H227817  -1.632  -1.388   4.393 -1.2596  0.4447 -1.6672
 1208TIP3   OH227818  -1.960  -2.725   4.127  0.0673 -0.3246 -0.4967
 1208TIP3    H127819  -1.953  -2.780   4.050 -1.1765 -0.3513 -0.6051
 1208TIP3    H227820  -1.958  -2.785   4.201  0.0856 -0.3883 -0.5504
 1209TIP3   OH227821   3.273  -1.431   4.614  0.0425 -0.6170  0.0824
 1209TIP3    H127822   3.323  -1.397   4.540 -0.6790  0.2182 -0.0443
 1209TIP3    H227823   3.311  -1.517   4.632  0.5903 -0.5891 -0.8949
 1210TIP3   OH227824  -0.190  -0.043   3.871 -0.3994 -0.0159  0.4637
 1210TIP3    H127825  -0.133  -0.084   3.806 -2.3670 -2.1547 -0.0452
 1210TIP3    H227826  -0.139  -0.045   3.952  0.1213 -2.3221  0.1517
 1211TIP3   OH227827  -1.533   1.012   2.056 -0.1634 -0.5570  0.3455
 1211TIP3    H127828  -1.442   0.997   2.031  0.1985  0.4312  1.0030
 1211TIP3    H227829  -1.585   0.970   1.988  0.7846 -0.3710 -0.5006
 1212TIP3   OH227830  -1.660  -2.953   4.818 -0.6556  0.4432  0.3270
 1212TIP3    H127831  -1.713  -2.941   4.740  0.0854  0.9988 -0.1025
 1212TIP3    H227832  -1.570  -2.935   4.790  0.0212 -1.9766  0.6605
 1213TIP3   OH227833  -1.789   3.219   5.521  0.4413 -0.8070 -0.3963
 1213TIP3    H127834  -1.745   3.251   5.443 -0.1313 -1.8106 -1.1576
 1213TIP3    H227835  -1.738   3.254   5.594  0.3817  1.0073 -1.1729
 1214TIP3   OH227836   1.213   1.198   4.443 -0.2188  0.2184  0.1326
 1214TIP3    H127837   1.170   1.272   4.486 -0.3449  0.6125 -0.6603
 1214TIP3    H227838   1.212   1.128   4.509 -3.7712 -0.4309 -0.4124
 1215TIP3   OH227839  -1.238  -0.373   3.253 -0.1301 -0.2434 -0.5706
 1215TIP3    H127840  -1.331  -0.396   3.250  0.5788 -3.4770 -2.2983
 1215TIP3    H227841  -1.216  -0.354   3.162  0.5715  2.5716  0.0891
 1216TIP3   OH227842   0.039   0.799   5.209  0.4551  0.3719  0.3336
 1216TIP3    H127843  -0.034   0.766   5.261 -0.9344 -0.8115 -2.1705
 1216TIP3    H227844   0.036   0.894   5.219  0.8556  0.1542  3.0793
 1217TIP3   OH227845   1.304   1.244   5.430 -0.1000  0.1242  0.2383
 1217TIP3    H127846   1.260   1.200   5.502  0.8486  1.0050  1.4143
 1217TIP3    H227847   1.253   1.324   5.415  0.1888  0.3691  0.5375
 1218TIP3   OH227848   0.536  -2.978   4.657  0.1174 -0.3141  0.3084
 1218TIP3    H127849   0.555  -3.057   4.607  0.1293 -0.0909 -0.0478
 1218TIP3    H227850   0.582  -2.908   4.610 -0.2647 -0.0259  0.3529
 1219TIP3   OH227851   1.147  -3.181   3.951  1.0051 -0.3599  0.7847
 1219TIP3    H127852   1.121  -3.257   4.004 -1.3713  1.0600  1.8336
 1219TIP3    H227853   1.082  -3.178   3.880 -0.3855  1.8574  2.0240
 1220TIP3   OH227854  -0.749  -2.529   5.512 -0.0236  0.1401  0.3619
 1220TIP3    H127855  -0.816  -2.562   5.571  0.4399 -0.8877  0.3283
 1220TIP3    H227856  -0.798  -2.504   5.433 -0.5725  1.0176  0.9566
 1221TIP3   OH227857   1.129  -1.531   2.536 -0.1293 -0.0994  0.3935
 1221TIP3    H127858   1.190  -1.576   2.594  1.5416 -1.0095 -1.9405
 1221TIP3    H227859   1.085  -1.601   2.488  0.5018  0.6413 -1.3339
 1222TIP3   OH227860   3.102  -1.440   5.525  0.4835  0.1308 -0.6863
 1222TIP3    H127861   3.110  -1.453   5.620 -1.5661 -0.2294 -0.5239
 1222TIP3    H227862   3.141  -1.354   5.510  1.9516 -0.3228  0.2752
 1223TIP3   OH227863  -3.206  -1.749   5.211  0.0537 -0.0695 -0.7011
 1223TIP3    H127864  -3.143  -1.820   5.196 -0.7626 -0.5630 -1.9293
 1223TIP3    H227865  -3.197  -1.692   5.135 -1.0252 -0.1964 -0.9449
 1224TIP3   OH227866  -1.305   0.667   4.246  0.3301 -0.3945  0.1916
 1224TIP3    H127867  -1.370   0.706   4.305 -1.0266 -2.7032  0.3523
 1224TIP3    H227868  -1.224   0.667   4.296 -0.0796  0.4385  0.8815
 1225TIP3   OH227869  -2.163   1.880   3.814  0.4171  0.0415  0.4703
 1225TIP3    H127870  -2.113   1.849   3.889  0.2638  0.5810  0.8033
 1225TIP3    H227871  -2.198   1.965   3.842  0.8045  0.5004 -0.4034
 1226TIP3   OH227872   2.478   0.342   2.996  0.1058  0.1231  0.5906
 1226TIP3    H127873   2.484   0.430   2.957 -1.1204 -0.3561 -0.7826
 1226TIP3    H227874   2.531   0.287   2.938  0.6591 -0.0995  1.2991
 1227TIP3   OH227875   2.341   1.281   2.607 -0.2579  0.4937 -0.3032
 1227TIP3    H127876   2.431   1.305   2.631 -1.4293  2.0989  3.2464
 1227TIP3    H227877   2.314   1.348   2.545  0.2351  1.5722  0.6119
 1228TIP3   OH227878   2.662  -2.684   5.114  0.0931  0.1778 -0.0760
 1228TIP3    H127879   2.693  -2.743   5.182  0.1133  0.1061 -0.1464
 1228TIP3    H227880   2.715  -2.704   5.037  0.0376  0.2240 -0.1263
 1229TIP3   OH227881  -2.336  -0.749   2.539  0.0505 -0.4685 -0.6476
 1229TIP3    H127882  -2.326  -0.753   2.635  0.2743 -0.9552 -0.6905
 1229TIP3    H227883  -2.299  -0.664   2.516 -0.1164 -0.2929 -0.2883
 1230TIP3   OH227884  -3.033   2.886   5.459 -0.5383  0.1713 -0.5438
 1230TIP3    H127885  -3.041   2.865   5.366  0.8967  0.9853 -0.8809
 1230TIP3    H227886  -3.008   2.803   5.500  0.7825  0.2377 -1.1930
 1231TIP3   OH227887  -3.018  -1.406   5.760 -0.2228  0.1951  0.2524
 1231TIP3    H127888  -3.032  -1.315   5.786 -0.7898  0.0070  0.6354
 1231TIP3    H227889  -2.925  -1.423   5.778 -0.3848  0.3541  1.2995
 1232TIP3   OH227890   1.089   1.014   4.996  0.2674  0.2775 -0.0332
 1232TIP3    H127891   1.104   0.932   4.948  0.0967  0.2562 -0.0502
 1232TIP3    H227892   1.039   0.987   5.073  0.1605  0.3737 -0.0689
 1233TIP3   OH227893  -0.694   1.705   2.713  0.4054 -0.3891  0.2191
 1233TIP3    H127894  -0.601   1.720   2.696  0.4077  0.7215  1.0720
 1233TIP3    H227895  -0.739   1.767   2.656  0.2684  0.2224  0.9642
 1234TIP3   OH227896   1.898   0.138   3.884  0.4878 -0.1807 -0.1984
 1234TIP3    H127897   1.824   0.077   3.885 -0.1566  0.3277 -3.4985
 1234TIP3    H227898   1.859   0.223   3.904  0.0334  0.1128 -2.0860
 1235TIP3   OH227899   0.152   1.159   5.713  0.0643  0.2429 -0.2198
 1235TIP3    H127900   0.194   1.239   5.682  0.8542  0.1823  0.6810
 1235TIP3    H227901   0.063   1.187   5.737  0.3697  0.8838  0.2025
 1236TIP3   OH227902   0.869  -1.437   3.451  0.1436  0.2195  0.1564
 1236TIP3    H127903   0.814  -1.514   3.465 -0.5842  0.6261 -0.4290
 1236TIP3    H227904   0.955  -1.473   3.429  0.0316 -0.4183  0.7169
 1237TIP3   OH227905   3.017  -3.097   4.827  0.0624  0.0319  0.2221
 1237TIP3    H127906   3.033  -3.189   4.847 -2.0003 -0.3876  0.2128
 1237TIP3    H227907   2.977  -3.062   4.907 -2.2576 -0.0029 -0.8262
 1238TIP3   OH227908   0.118   0.112   4.480  0.1399 -0.5657 -0.0499
 1238TIP3    H127909   0.142   0.020   4.466 -2.9341 -1.2265 -1.9743
 1238TIP3    H227910   0.104   0.146   4.391  0.0458  1.4405  0.6870
 1239TIP3   OH227911   0.244   2.605   3.451 -0.0942  0.3089 -0.1339
 1239TIP3    H127912   0.285   2.651   3.378  1.3896  0.0965  0.5060
 1239TIP3    H227913   0.318   2.561   3.495 -1.0271 -0.0493  1.1242
 1240TIP3   OH227914  -1.250   0.837   3.412 -0.3157  0.5712 -0.1237
 1240TIP3    H127915  -1.189   0.765   3.429 -0.5718  0.6780  1.4794
 1240TIP3    H227916  -1.250   0.848   3.317  2.2927  0.6724 -0.1716
 1241TIP3   OH227917   2.399  -2.934   3.061  0.3559 -0.2981 -0.1968
 1241TIP3    H127918   2.359  -2.870   3.119 -0.4360 -1.0422  0.0919
 1241TIP3    H227919   2.342  -2.935   2.984 -0.0008 -1.1117  0.0704
 1242TIP3   OH227920  -3.054   0.678   2.831 -0.0800 -0.2719  0.2662
 1242TIP3    H127921  -2.989   0.747   2.816 -0.5424  0.2355  0.5759
 1242TIP3    H227922  -3.002   0.601   2.856  0.6292 -0.7189 -2.2674
 1243TIP3   OH227923   0.019  -2.286   4.897  0.3616 -0.2152 -0.2142
 1243TIP3    H127924   0.028  -2.374   4.861  0.6783  0.1812 -1.1260
 1243TIP3    H227925  -0.027  -2.299   4.980 -0.0531 -1.1835 -0.5811
 1244TIP3   OH227926  -3.072   1.100   3.393  0.1138  0.4863 -0.3768
 1244TIP3    H127927  -3.111   1.020   3.359  2.2979 -0.5795 -0.5809
 1244TIP3    H227928  -3.144   1.162   3.400 -1.1612 -0.6170 -2.8637
 1245TIP3   OH227929  -2.614   0.475   2.686  0.2623 -0.2333  0.4382
 1245TIP3    H127930  -2.633   0.388   2.721 -1.8050 -0.5668 -1.3574
 1245TIP3    H227931  -2.546   0.460   2.621  0.5598 -0.3372  0.7652
 1246TIP3   OH227932  -0.411   1.528   3.870 -0.1006 -0.1631  0.2848
 1246TIP3    H127933  -0.339   1.475   3.905 -0.4963 -1.4992 -0.8151
 1246TIP3    H227934  -0.469   1.542   3.944  0.3547 -0.7032  0.7570
 1247TIP3   OH227935  -1.330  -1.571   2.735 -0.1556 -0.1086  0.2020
 1247TIP3    H127936  -1.242  -1.533   2.737 -1.1853  2.5034  2.3607
 1247TIP3    H227937  -1.370  -1.535   2.656  0.0568  0.4743  0.3508
 1248TIP3   OH227938  -0.817  -1.314   2.304  0.1607 -0.1687 -0.5462
 1248TIP3    H127939  -0.729  -1.337   2.333  0.5802  0.6587 -1.1504
 1248TIP3    H227940  -0.805  -1.254   2.231 -0.8662  1.7645  0.7450
 1249TIP3   OH227941  -0.949  -0.039   4.212  0.6847  0.0676  0.3095
 1249TIP3    H127942  -0.918  -0.044   4.302 -0.5962 -1.0274  0.7239
 1249TIP3    H227943  -0.951  -0.130   4.182 -2.3391 -0.0307  0.4618
 1250TIP3   OH227944   2.719   2.491   4.770  0.4201  0.1698 -0.2364
 1250TIP3    H127945   2.651   2.517   4.708  1.4683  1.0893 -1.0280
 1250TIP3    H227946   2.677   2.498   4.856 -1.2679 -1.7933 -0.8186
 1251TIP3   OH227947  -2.127  -2.265   5.268 -0.5740 -0.5036 -0.4248
 1251TIP3    H127948  -2.199  -2.292   5.212 -0.7313 -0.2199 -0.3619
 1251TIP3    H227949  -2.091  -2.187   5.224 -0.9820 -0.0112  0.1013
 1252TIP3   OH227950  -2.416  -2.360   3.394 -0.0496 -0.0162 -0.3852
 1252TIP3    H127951  -2.491  -2.417   3.374  1.0124 -1.5137 -0.2008
 1252TIP3    H227952  -2.346  -2.391   3.337  0.7552  0.7034  0.1933
 1253TIP3   OH227953  -1.458  -2.946   2.969 -0.3299 -0.2076 -0.4749
 1253TIP3    H127954  -1.496  -3.032   2.952  0.0854 -0.7550  1.2097
 1253TIP3    H227955  -1.530  -2.894   3.004  0.1232 -0.8728  1.5488
 1254TIP3   OH227956  -2.369   0.508   5.074  0.3953  0.1767  0.4087
 1254TIP3    H127957  -2.279   0.539   5.088 -0.1988  1.9991  0.4269
 1254TIP3    H227958  -2.359   0.432   5.017  1.8923  0.9867 -0.4720
 1255TIP3   OH227959   0.861   0.834   2.674 -0.9521  0.4275 -0.2983
 1255TIP3    H127960   0.772   0.799   2.675 -0.5178 -0.8939 -2.0568
 1255TIP3    H227961   0.893   0.813   2.586  1.3328  0.2422  0.5283
 1256TIP3   OH227962   2.462   3.052   2.453 -0.3584  0.1262 -0.1838
 1256TIP3    H127963   2.374   3.037   2.418  0.2160  1.2284 -2.2298
 1256TIP3    H227964   2.459   3.141   2.488 -0.0479  0.1929 -0.3213
 1257TIP3   OH227965   3.063  -0.733   5.440  0.0378  0.4159 -0.1550
 1257TIP3    H127966   3.028  -0.822   5.444  0.6218  0.0664 -2.0353
 1257TIP3    H227967   3.002  -0.686   5.384  0.4318  0.8585 -0.2170
 1258TIP3   OH227968   3.063   2.997   2.961 -0.3874  0.4830 -0.6897
 1258TIP3    H127969   3.120   3.025   3.032 -1.8850  0.2109  0.6568
 1258TIP3    H227970   3.032   3.078   2.921  0.1038  0.6381 -0.7689
 1259TIP3   OH227971  -3.086  -2.008   3.383  0.3309  0.5501  0.1656
 1259TIP3    H127972  -3.006  -1.962   3.357  0.1897  0.2533 -0.8584
 1259TIP3    H227973  -3.057  -2.096   3.406  0.5548  1.0204  1.7890
 1260TIP3   OH227974  -2.443  -1.410   4.603 -0.0586  0.3993  0.5514
 1260TIP3    H127975  -2.479  -1.398   4.515 -0.0372  1.5846  0.6994
 1260TIP3    H227976  -2.470  -1.499   4.626 -0.2621  0.1505 -0.5571
 1261TIP3   OH227977  -2.360  -0.206   2.700 -0.3139 -0.0407 -0.1150
 1261TIP3    H127978  -2.358  -0.201   2.605 -1.4707  0.9894 -0.1126
 1261TIP3    H227979  -2.452  -0.193   2.723 -0.3902 -2.2238  1.0718
 1262TIP3   OH227980  -2.746   3.241   3.300  0.0008  0.0301 -0.2122
 1262TIP3    H127981  -2.819   3.224   3.240  0.3910 -1.7989 -0.2326
 1262TIP3    H227982  -2.724   3.333   3.285 -0.9148  0.0415 -1.7409
 1263TIP3   OH227983  -2.261  -2.693   4.325  0.4117 -0.1312 -0.1230
 1263TIP3    H127984  -2.294  -2.738   4.247  1.2154 -0.3500 -0.3415
 1263TIP3    H227985  -2.338  -2.650   4.361 -0.0989 -0.5487 -0.6823
 1264TIP3   OH227986   2.408  -0.255   4.715 -0.2398  0.2999 -0.1000
 1264TIP3    H127987   2.434  -0.347   4.714  0.8017  0.5824 -0.6638
 1264TIP3    H227988   2.486  -0.208   4.744 -0.6737  1.0385 -0.0868
 1265TIP3   OH227989  -1.891  -0.201   2.715 -0.2379  0.4678  0.0514
 1265TIP3    H127990  -1.894  -0.288   2.755 -1.1256 -0.7897 -2.5405
 1265TIP3    H227991  -1.813  -0.202   2.660 -1.0913  0.6871 -1.2161
 1266TIP3   OH227992  -1.775   2.401   3.273 -0.4616 -0.3820 -0.0578
 1266TIP3    H127993  -1.724   2.477   3.302  1.1264 -2.1944  2.3336
 1266TIP3    H227994  -1.775   2.342   3.349 -3.2529 -1.9878 -1.1677
 1267TIP3   OH227995  -2.529   1.079   3.509 -0.4347  0.2165 -0.6174
 1267TIP3    H127996  -2.593   1.024   3.554 -1.2168  1.8512  0.3622
 1267TIP3    H227997  -2.476   1.116   3.580  0.0266  0.7841 -1.2502
 1268TIP3   OH227998   0.122  -0.572   3.068 -0.1160 -0.1071  0.0888
 1268TIP3    H127999   0.073  -0.574   2.986  0.1159  1.8078 -0.1354
 1268TIP3    H228000   0.212  -0.552   3.043  0.1333 -0.3667  0.7416
 1269TIP3   OH228001   2.285   2.045   3.182  0.0211 -0.7266  0.9548
 1269TIP3    H128002   2.207   2.099   3.191  0.5355  0.0552  0.9098
 1269TIP3    H228003   2.342   2.074   3.254  1.0616  0.1379 -0.1613
 1270TIP3   OH228004   1.525  -0.477   2.394  0.3265  0.3576  0.4682
 1270TIP3    H128005   1.521  -0.393   2.348  0.1233  1.0258  1.6712
 1270TIP3    H228006   1.517  -0.542   2.325 -0.7662  1.3419 -0.3731
 1271TIP3   OH228007   0.608   1.013   3.052  0.4537  0.0487  0.1559
 1271TIP3    H128008   0.565   0.928   3.064 -1.5234  0.5491 -2.4726
 1271TIP3    H228009   0.677   0.996   2.988 -0.1824  0.4672 -0.6503
 1272TIP3   OH228010   2.020  -0.736   3.855 -0.2412  0.1802  0.0627
 1272TIP3    H128011   2.034  -0.808   3.794  2.5573  0.3133  0.4052
 1272TIP3    H228012   2.019  -0.657   3.801  2.9960  0.3731  0.0840
 1273TIP3   OH228013  -1.820  -1.590   3.243  0.1422  0.2540  0.4836
 1273TIP3    H128014  -1.896  -1.603   3.300  0.8153 -1.2584  1.0934
 1273TIP3    H228015  -1.805  -1.675   3.203  0.2166  1.0912 -1.3303
 1274TIP3   OH228016   2.529   0.369   4.767 -0.1266  0.4230  0.3613
 1274TIP3    H128017   2.510   0.276   4.783  0.9102  0.1284 -0.0362
 1274TIP3    H228018   2.621   0.370   4.740 -0.4790  1.4238 -0.8712
 1275TIP3   OH228019  -2.416   1.805   2.931  0.5166  0.0928  0.7120
 1275TIP3    H128020  -2.480   1.876   2.946 -1.4306 -0.8542 -2.1351
 1275TIP3    H228021  -2.447   1.733   2.986  1.2243  0.7432  1.9812
 1276TIP3   OH228022   0.173  -0.104   4.344 -0.1834 -0.2458  0.1488
 1276TIP3    H128023   0.250  -0.068   4.300 -0.6694  1.1377  0.3887
 1276TIP3    H228024   0.161  -0.190   4.304  1.1165 -0.2331 -0.3251
 1277TIP3   OH228025   1.793  -2.957   3.168  0.6254  0.0100 -0.7120
 1277TIP3    H128026   1.734  -2.941   3.241  1.3217  1.4063 -0.4226
 1277TIP3    H228027   1.770  -3.045   3.138 -0.1623 -0.3104  0.7189
 1278TIP3   OH228028  -1.378  -2.661   2.657  0.3080 -0.0752  0.1650
 1278TIP3    H128029  -1.288  -2.660   2.689  0.9679  1.1987 -1.6102
 1278TIP3    H228030  -1.379  -2.729   2.590 -0.0460 -0.0145  0.1062
 1279TIP3   OH228031   0.684  -2.164   5.673 -0.2702  0.2202 -0.1230
 1279TIP3    H128032   0.728  -2.085   5.643 -0.9990  0.7058  0.0483
 1279TIP3    H228033   0.755  -2.224   5.698  0.3002  0.5604 -0.8912
 1280TIP3   OH228034   2.016   2.758   5.045 -0.0383 -0.2405  0.4087
 1280TIP3    H128035   2.053   2.797   4.966 -0.9013 -0.8168 -0.2997
 1280TIP3    H228036   1.994   2.834   5.101 -0.7940  0.2658 -0.5425
 1281TIP3   OH228037  -0.058   2.060   2.437  0.2139  0.6955 -0.6245
 1281TIP3    H128038   0.019   2.067   2.381  0.3410  1.4360 -0.3663
 1281TIP3    H228039  -0.085   2.151   2.452 -0.0241  0.4946  0.2242
 1282TIP3   OH228040  -2.621   0.695   4.468  0.0964 -0.4449  0.3028
 1282TIP3    H128041  -2.627   0.611   4.423 -1.7355 -0.0459 -0.2902
 1282TIP3    H228042  -2.653   0.677   4.556  0.2734 -0.4933  0.3568
 1283TIP3   OH228043  -3.251   3.031   4.867  0.1766 -0.1533 -0.5426
 1283TIP3    H128044  -3.230   3.019   4.960  0.8905  1.6668 -0.4306
 1283TIP3    H228045  -3.342   3.002   4.859 -0.2505  0.6518  0.9825
 1284TIP3   OH228046   2.149  -1.596   2.980 -0.1526 -0.0257 -0.1449
 1284TIP3    H128047   2.070  -1.643   3.009  0.4107 -0.3078  0.9742
 1284TIP3    H228048   2.115  -1.527   2.923 -1.2098 -0.1746  0.2699
 1285TIP3   OH228049   2.249   3.027   5.278  0.1935  0.3827 -0.3891
 1285TIP3    H128050   2.159   3.010   5.303  0.5236  0.4881  0.9353
 1285TIP3    H228051   2.272   2.954   5.221 -0.1469 -0.6845  0.7949
 1286TIP3   OH228052  -2.954  -1.135   5.830  1.1882 -0.3973  0.1012
 1286TIP3    H128053  -2.968  -1.134   5.925  0.1471 -2.1203  0.0217
 1286TIP3    H228054  -3.014  -1.069   5.797 -0.0237 -1.2331  0.5249
 1287TIP3   OH228055  -2.567   2.549   5.248  0.4378 -0.4071 -0.5904
 1287TIP3    H128056  -2.509   2.625   5.250  0.7810 -0.6140  2.7650
 1287TIP3    H228057  -2.551   2.504   5.331 -2.8551 -1.7806 -0.5308
 1288TIP3   OH228058   2.369   3.338   3.949 -0.2079 -0.1462  0.0730
 1288TIP3    H128059   2.291   3.308   3.994 -0.1212 -0.0162  0.3136
 1288TIP3    H228060   2.434   3.270   3.966 -0.5732 -0.8029 -1.0410
 1289TIP3   OH228061  -1.627   1.151   4.391  0.0531  0.1754  0.2615
 1289TIP3    H128062  -1.651   1.068   4.349 -0.3928  0.3749  0.1207
 1289TIP3    H228063  -1.548   1.130   4.441 -0.9275 -0.7361  1.4952
 1290TIP3   OH228064   0.525   2.562   5.796 -0.0268  0.1849 -0.1082
 1290TIP3    H128065   0.474   2.635   5.761 -0.4891 -0.5448 -1.0005
 1290TIP3    H228066   0.461   2.491   5.808  0.5884 -0.4026 -0.2386
 1291TIP3   OH228067   0.358  -0.356   4.992 -0.4175 -0.4186  0.1223
 1291TIP3    H128068   0.302  -0.279   4.998 -1.0555 -0.8746  0.1160
 1291TIP3    H228069   0.298  -0.430   5.000  0.1185 -0.9231 -0.4316
 1292TIP3   OH228070   0.318  -1.482   4.178 -0.4303 -0.2282 -0.2368
 1292TIP3    H128071   0.395  -1.540   4.180 -1.1175 -1.1446  1.8961
 1292TIP3    H228072   0.348  -1.405   4.129  1.4935 -1.0265 -0.4213
 1293TIP3   OH228073   1.833  -1.014   2.673  0.3517 -0.0252 -0.0346
 1293TIP3    H128074   1.743  -0.982   2.670  0.6375  1.1869  2.0876
 1293TIP3    H228075   1.824  -1.108   2.691 -0.4893  0.0455 -0.0389
 1294TIP3   OH228076   0.409   2.011   3.830  0.3174 -0.1478 -0.4543
 1294TIP3    H128077   0.366   1.936   3.790  0.2778 -0.4797  0.2057
 1294TIP3    H228078   0.500   2.005   3.800  0.4873 -0.8810  0.1971
 1295TIP3   OH228079   1.231  -2.180   4.054  0.0344  0.0833 -0.1794
 1295TIP3    H128080   1.142  -2.195   4.019 -0.1842  1.4395 -0.2594
 1295TIP3    H228081   1.272  -2.124   3.989  1.5813 -1.9003 -1.0126
 1296TIP3   OH228082  -1.303   1.638   4.933  0.3277  0.0656 -0.2251
 1296TIP3    H128083  -1.333   1.729   4.925 -0.3705 -0.3093 -2.5776
 1296TIP3    H228084  -1.374   1.586   4.897  1.1563 -1.3549  0.1264
 1297TIP3   OH228085   2.930  -0.565   4.262 -0.3608 -0.3936  0.0934
 1297TIP3    H128086   2.924  -0.545   4.356 -0.4838 -0.0711  0.0178
 1297TIP3    H228087   3.015  -0.607   4.252  0.0999  0.5042  0.1831
 1298TIP3   OH228088   1.624  -3.140   5.950  0.4203 -0.2164  0.3144
 1298TIP3    H128089   1.689  -3.193   5.905 -1.1028 -1.1688 -0.8535
 1298TIP3    H228090   1.609  -3.185   6.033  2.1734  0.7490  1.2171
 1299TIP3   OH228091   0.881   1.776   5.065  0.2574  0.0916 -0.1449
 1299TIP3    H128092   0.820   1.778   5.139  0.7730 -1.0629  0.3383
 1299TIP3    H228093   0.909   1.685   5.060  2.0945  0.6194 -0.2201
 1300TIP3   OH228094   3.179  -1.627   5.347 -0.2227 -0.1300 -0.3142
 1300TIP3    H128095   3.238  -1.569   5.299 -0.7932 -0.7216 -1.8016
 1300TIP3    H228096   3.159  -1.580   5.428 -0.8003  1.8328 -1.5383
 1301TIP3   OH228097  -2.009  -1.629   3.421 -0.6353  0.6128 -0.0195
 1301TIP3    H128098  -1.995  -1.592   3.508 -2.6750  0.7959  0.2632
 1301TIP3    H228099  -2.097  -1.667   3.424 -1.3661  1.9081 -2.4156
 1302TIP3   OH228100  -1.585  -0.327   4.454 -0.2332  0.3112 -0.1246
 1302TIP3    H128101  -1.585  -0.232   4.459 -0.7425  0.3791 -1.0697
 1302TIP3    H228102  -1.493  -0.352   4.458 -0.1729  0.7205  1.8226
 1303TIP3   OH228103   2.720   1.777   5.214  0.6312  0.2122  0.5422
 1303TIP3    H128104   2.773   1.774   5.134 -0.3559  1.0677 -0.1693
 1303TIP3    H228105   2.699   1.870   5.225  0.2388  0.0281  1.4641
 1304TIP3   OH228106  -2.497   1.527   2.987 -0.1793  0.3968  0.7666
 1304TIP3    H128107  -2.401   1.527   2.984 -0.1966  1.1773 -0.4598
 1304TIP3    H228108  -2.519   1.444   3.028  1.0086 -0.3921 -0.0931
 1305TIP3   OH228109   1.216   1.480   5.588 -0.0988  0.3300 -0.6100
 1305TIP3    H128110   1.226   1.464   5.682  1.4065  1.2812 -0.5729
 1305TIP3    H228111   1.140   1.538   5.581  1.2515  2.3389  0.3151
 1306TIP3   OH228112  -0.750   3.209   5.291  0.5351  0.0691 -0.8057
 1306TIP3    H128113  -0.689   3.264   5.340 -0.2947  0.1199  0.1986
 1306TIP3    H228114  -0.696   3.170   5.221  2.3126 -1.7220  1.4139
 1307TIP3   OH228115  -1.022   1.163   4.298  0.6581 -0.5142  0.1408
 1307TIP3    H128116  -1.009   1.068   4.289  0.4269 -0.4777 -0.7600
 1307TIP3    H228117  -1.107   1.178   4.256  0.4196  0.0196  0.7955
 1308TIP3   OH228118   0.634   2.594   3.087 -0.0992  0.0500  0.1965
 1308TIP3    H128119   0.653   2.504   3.062  1.1092  0.2390  0.3571
 1308TIP3    H228120   0.549   2.591   3.130 -0.6838 -0.7996 -0.9647
 1309TIP3   OH228121  -1.192   3.279   5.557 -0.1773 -0.0384  0.3117
 1309TIP3    H128122  -1.206   3.347   5.491 -0.3927  0.8327  1.2465
 1309TIP3    H228123  -1.110   3.236   5.529 -0.7262 -0.2898 -1.0105
 1310TIP3   OH228124  -0.696   1.462   3.249  0.0539 -1.0838  0.3115
 1310TIP3    H128125  -0.670   1.553   3.262 -0.7403 -0.5791 -1.2942
 1310TIP3    H228126  -0.722   1.431   3.336  1.2568 -0.1001  1.0504
 1311TIP3   OH228127  -0.490   3.021   3.329  0.2184  0.3544 -0.3185
 1311TIP3    H128128  -0.404   2.997   3.362  0.7270  0.4577 -1.5111
 1311TIP3    H228129  -0.519   3.092   3.386  0.5037 -0.3081  0.6732
 1312TIP3   OH228130  -1.591   1.386   3.260 -0.1070 -0.2536  0.0527
 1312TIP3    H128131  -1.559   1.296   3.252  1.6706  0.3613 -0.3248
 1312TIP3    H228132  -1.681   1.377   3.291  0.6269 -2.1296  1.8753
 1313TIP3   OH228133   1.409   2.556   5.855 -0.3527 -0.0136  0.0824
 1313TIP3    H128134   1.379   2.611   5.782  0.6313  0.4196 -0.0147
 1313TIP3    H228135   1.424   2.617   5.927 -1.1190 -0.4153  0.5866
 1314TIP3   OH228136   2.781  -3.071   4.332  0.1975 -0.2167  0.0237
 1314TIP3    H128137   2.686  -3.068   4.342  0.1227  0.3331 -0.7438
 1314TIP3    H228138   2.815  -3.049   4.419 -0.4116  3.0113 -0.4186
 1315TIP3   OH228139  -0.602   1.726   3.304 -0.9006 -0.6012 -0.0917
 1315TIP3    H128140  -0.600   1.793   3.236  0.5191  1.1508  1.5844
 1315TIP3    H228141  -0.675   1.752   3.360 -0.2759 -0.3696  0.6247
 1316TIP3   OH228142   2.882  -1.709   3.505 -0.0236  0.2920  0.2091
 1316TIP3    H128143   2.798  -1.748   3.531  0.1059  1.2210  2.1678
 1316TIP3    H228144   2.864  -1.616   3.496  0.6489  0.4038 -0.0393
 1317TIP3   OH228145   2.311  -1.038   3.491 -0.0262  0.6693 -0.1954
 1317TIP3    H128146   2.301  -1.126   3.453  0.3218  1.6261 -2.6648
 1317TIP3    H228147   2.389  -1.045   3.545  0.4292 -0.3757 -0.9378
 1318TIP3   OH228148  -2.542   1.626   4.353 -0.3306 -0.6229 -0.3440
 1318TIP3    H128149  -2.515   1.706   4.307  0.2160 -0.5407  0.1106
 1318TIP3    H228150  -2.555   1.654   4.443 -2.5534 -0.5282 -0.6419
 1319TIP3   OH228151  -2.738   0.027   5.734  0.1760 -0.3936  0.1936
 1319TIP3    H128152  -2.689   0.020   5.652 -1.9176  2.6831 -1.4858
 1319TIP3    H228153  -2.743   0.121   5.752 -2.8588 -0.7194  1.6615
 1320TIP3   OH228154  -3.277   2.733   5.743 -0.5623 -0.4495 -0.3998
 1320TIP3    H128155  -3.366   2.702   5.763 -0.1959 -1.2157  0.0810
 1320TIP3    H228156  -3.285   2.829   5.745 -1.6479 -0.4882 -1.5977
 1321TIP3   OH228157  -0.685   2.315   5.592  0.1821  0.7001 -0.2534
 1321TIP3    H128158  -0.670   2.221   5.594  0.8714  0.7389 -2.2060
 1321TIP3    H228159  -0.770   2.325   5.548  0.3741  1.0110 -0.5597
 1322TIP3   OH228160   1.975  -0.304   3.168 -0.2890 -0.0127 -0.2498
 1322TIP3    H128161   2.041  -0.373   3.166  0.2871  0.5315 -0.1073
 1322TIP3    H228162   1.922  -0.319   3.089 -2.3207 -2.6861  1.4096
 1323TIP3   OH228163   2.739  -1.214   5.506  0.4925  0.0643  0.1433
 1323TIP3    H128164   2.651  -1.180   5.486  1.2026  2.0387  0.2197
 1323TIP3    H228165   2.759  -1.271   5.432 -1.0588 -0.8626  0.3920
 1324TIP3   OH228166   0.695   2.431   4.980 -0.0118 -0.3827  0.2626
 1324TIP3    H128167   0.781   2.399   4.953  0.5470  0.2498  1.2351
 1324TIP3    H228168   0.697   2.524   4.959 -0.0468 -0.1460  1.2616
 1325TIP3   OH228169  -2.154   1.713   4.501 -0.4314 -0.0181 -0.0616
 1325TIP3    H128170  -2.110   1.631   4.521  1.2531  0.0673 -2.8772
 1325TIP3    H228171  -2.093   1.781   4.530  0.3998  0.1233 -1.9985
 1326TIP3   OH228172   3.110   0.393   3.519  0.4000 -0.2286 -0.4075
 1326TIP3    H128173   3.106   0.478   3.476  2.0899  0.7273  1.1775
 1326TIP3    H228174   3.057   0.404   3.599  2.1971  0.0429  0.8123
 1327TIP3   OH228175   2.635   0.815   4.586 -0.1813 -0.4207  0.2704
 1327TIP3    H128176   2.690   0.804   4.664  1.7841  0.1426 -0.9583
 1327TIP3    H228177   2.591   0.899   4.600  0.2532 -0.2561  0.7305
 1328TIP3   OH228178  -3.267   1.407   3.743 -0.2125  0.0291 -0.2661
 1328TIP3    H128179  -3.229   1.459   3.814  3.1410 -1.1280 -1.0394
 1328TIP3    H228180  -3.284   1.322   3.783 -0.5237  0.0664 -0.3145
 1329TIP3   OH228181   1.576  -0.313   3.665 -0.2270  0.2825  0.2490
 1329TIP3    H128182   1.656  -0.267   3.637 -1.2237  1.8076 -0.2357
 1329TIP3    H228183   1.510  -0.244   3.671 -1.2779 -0.7978  1.6167
 1330TIP3   OH228184   1.410   2.468   3.798 -0.2422 -0.3772 -0.1210
 1330TIP3    H128185   1.485   2.521   3.770  0.4314 -1.6584 -0.8344
 1330TIP3    H228186   1.344   2.532   3.822  0.6110  0.7946 -0.7631
 1331TIP3   OH228187   1.798   0.938   4.540 -0.3692  0.1809  0.3192
 1331TIP3    H128188   1.736   0.890   4.485 -0.3567  0.5360 -0.0075
 1331TIP3    H228189   1.855   0.870   4.575  0.2371  0.0357 -0.8912
 1332TIP3   OH228190   1.884   2.902   4.206  0.0185  0.0311 -0.4658
 1332TIP3    H128191   1.873   2.812   4.175 -0.5535 -0.5751  1.3919
 1332TIP3    H228192   1.966   2.931   4.165  0.2184 -1.3156 -1.0882
 1333TIP3   OH228193  -1.132   0.066   3.123 -0.3343 -0.1302 -0.4717
 1333TIP3    H128194  -1.056   0.010   3.109 -0.7822 -2.1954  3.8398
 1333TIP3    H228195  -1.096   0.149   3.153  0.2778 -0.4499 -0.3048
 1334TIP3   OH228196  -1.172  -1.542   5.255 -0.5852  0.3727 -0.1113
 1334TIP3    H128197  -1.146  -1.530   5.164 -0.0223  1.3740  0.1743
 1334TIP3    H228198  -1.112  -1.609   5.289 -1.1912 -0.4567 -0.6259
 1335TIP3   OH228199   0.343  -2.368   3.042  0.1648 -0.0811  0.2310
 1335TIP3    H128200   0.360  -2.279   3.074 -1.1065 -0.1579  1.2012
 1335TIP3    H228201   0.314  -2.357   2.952 -0.9646  0.5963  0.6592
 1336TIP3   OH228202  -2.673  -2.818   1.962 -0.5537  0.2035 -0.1369
 1336TIP3    H128203  -2.637  -2.905   1.946  1.1561  0.7858  0.3196
 1336TIP3    H228204  -2.726  -2.800   1.884  1.5076 -0.0549 -1.7047
 1337TIP3   OH228205   0.100  -2.078   2.990  0.6265  0.0106 -0.3619
 1337TIP3    H128206   0.081  -2.170   2.972 -0.2227  0.2968 -0.9815
 1337TIP3    H228207   0.086  -2.068   3.084 -0.0707 -0.3243 -0.4238
 1338TIP3   OH228208   0.630   3.259   4.309  0.1491 -0.1307 -0.4140
 1338TIP3    H128209   0.579   3.236   4.230 -0.7044  0.7976 -0.1596
 1338TIP3    H228210   0.587   3.211   4.380  0.0088  0.1692 -0.2942
 1339TIP3   OH228211  -1.860  -3.024   3.211 -0.0696 -0.3822  0.7148
 1339TIP3    H128212  -1.904  -3.087   3.153  0.4510 -0.9595  0.9339
 1339TIP3    H228213  -1.872  -2.940   3.167  0.9465 -0.9056 -0.6460
 1340TIP3   OH228214  -1.782   1.308   5.359 -0.4127 -0.3834  0.1866
 1340TIP3    H128215  -1.693   1.343   5.366 -0.4437  0.0228 -1.1599
 1340TIP3    H228216  -1.820   1.321   5.446  0.6502 -0.0410  0.6192
 1341TIP3   OH228217   2.034  -3.043   4.030  0.2787 -0.1194 -0.0348
 1341TIP3    H128218   1.997  -3.102   3.964  0.1781  2.7266 -2.7719
 1341TIP3    H228219   2.128  -3.050   4.018  0.4372 -1.7844  1.7114
 1342TIP3   OH228220   2.214   1.060   2.724 -0.3577 -0.3277 -0.8372
 1342TIP3    H128221   2.151   1.057   2.651 -0.6497  1.4537 -0.7211
 1342TIP3    H228222   2.277   1.127   2.698  1.7274 -2.2581 -1.0671
 1343TIP3   OH228223   2.901  -3.126   3.568 -0.0895  0.5757 -0.2152
 1343TIP3    H128224   2.930  -3.127   3.659 -0.0348 -0.3803 -0.2368
 1343TIP3    H228225   2.805  -3.123   3.573 -0.1197 -0.4393 -0.1160
 1344TIP3   OH228226  -0.769   0.846   5.047 -0.2429 -0.5975  0.6317
 1344TIP3    H128227  -0.853   0.841   5.092 -1.5839  1.1618 -1.4711
 1344TIP3    H228228  -0.792   0.863   4.956  2.3968  1.1857  0.1841
 1345TIP3   OH228229  -2.659   2.868   4.488 -0.2343 -0.4175 -0.0148
 1345TIP3    H128230  -2.724   2.802   4.510  1.6729 -2.2026  0.4880
 1345TIP3    H228231  -2.608   2.830   4.417  1.1154  0.3661  0.4963
 1346TIP3   OH228232   2.914  -1.578   4.090  0.7608  0.0587 -0.2827
 1346TIP3    H128233   2.995  -1.539   4.122  0.0748 -0.1273  1.8207
 1346TIP3    H228234   2.921  -1.671   4.115  0.1638 -0.0853 -0.6264
 1347TIP3   OH228235  -2.140  -0.184   5.651 -0.3107 -0.0463 -0.2704
 1347TIP3    H128236  -2.188  -0.202   5.732  2.7737 -0.4080  1.6682
 1347TIP3    H228237  -2.116  -0.270   5.617 -0.1811  0.1396 -0.6577
 1348TIP3   OH228238  -2.047  -1.503   2.989  0.0797 -0.6479 -0.1597
 1348TIP3    H128239  -1.961  -1.510   2.948 -0.5766  0.6323 -1.8707
 1348TIP3    H228240  -2.081  -1.593   2.990  0.3966 -0.8301 -1.9252
 1349TIP3   OH228241   0.171  -0.005   3.750  0.0154 -0.2179 -0.0928
 1349TIP3    H128242   0.195   0.057   3.681 -0.5166  0.2578  0.1366
 1349TIP3    H228243   0.086  -0.040   3.722 -0.7371  0.8044  0.8462
 1350TIP3   OH228244  -2.535   0.545   5.292  0.3532  0.4902  0.2915
 1350TIP3    H128245  -2.557   0.636   5.269 -0.1827  1.0019  2.5524
 1350TIP3    H228246  -2.473   0.518   5.225  0.5313  2.5393 -0.4472
 1351TIP3   OH228247   0.350   2.105   3.501  0.0496 -0.1116  0.9228
 1351TIP3    H128248   0.282   2.045   3.531 -0.6828  0.3075  0.1360
 1351TIP3    H228249   0.432   2.058   3.519 -0.4418 -0.6875  1.7346
 1352TIP3   OH228250   2.599   1.283   3.909 -0.4426  0.2455 -0.2774
 1352TIP3    H128251   2.533   1.252   3.970 -0.0924 -3.6591 -1.6099
 1352TIP3    H228252   2.550   1.321   3.836 -1.1853 -1.1417 -0.5185
 1353TIP3   OH228253   1.801   2.807   5.435  0.2391  0.0841 -0.3800
 1353TIP3    H128254   1.878   2.841   5.390 -1.0704  0.1004 -2.7579
 1353TIP3    H228255   1.800   2.714   5.413  0.3882 -0.2323  0.9024
 1354TIP3   OH228256  -0.252  -2.976   2.654  0.0189 -0.1524  0.3885
 1354TIP3    H128257  -0.341  -2.956   2.626 -0.3376 -2.4142 -0.2791
 1354TIP3    H228258  -0.205  -2.996   2.573  0.5393 -1.1357  0.9183
 1355TIP3   OH228259  -0.942   1.048   5.745  0.0424  0.2917 -0.1241
 1355TIP3    H128260  -0.893   0.988   5.803 -0.9768 -0.5368 -0.0894
 1355TIP3    H228261  -0.888   1.054   5.666  1.9052  2.1179  1.1492
 1356TIP3   OH228262   1.653  -0.453   3.237 -0.0519  1.0589  0.3579
 1356TIP3    H128263   1.586  -0.520   3.229 -0.4733  1.7100 -2.4994
 1356TIP3    H228264   1.612  -0.373   3.205  1.5642  1.8337  0.0934
 1357TIP3   OH228265  -1.280  -1.399   4.333 -0.3459 -0.0724  0.0748
 1357TIP3    H128266  -1.272  -1.480   4.282  0.2095 -0.1270  0.2341
 1357TIP3    H228267  -1.200  -1.350   4.312 -0.6592  0.4140  0.0132
 1358TIP3   OH228268   2.887   1.633   5.426 -0.1382  0.2763 -0.1203
 1358TIP3    H128269   2.803   1.678   5.429  0.3526  1.1909  0.1626
 1358TIP3    H228270   2.872   1.557   5.370 -1.2913  0.1295  0.3607
 1359TIP3   OH228271   0.972   1.790   4.461 -0.7835  0.3172  0.2774
 1359TIP3    H128272   0.911   1.822   4.394 -0.8692 -0.8251 -0.2253
 1359TIP3    H228273   0.976   1.859   4.526 -1.9903  0.7574 -0.0939
 1360TIP3   OH228274   2.683   1.107   5.147 -0.2722  0.6477 -0.0415
 1360TIP3    H128275   2.703   1.160   5.070  0.9754 -0.2442 -0.3594
 1360TIP3    H228276   2.602   1.061   5.124  1.0378 -1.0175 -1.6235
 1361TIP3   OH228277  -0.015  -2.554   4.825  0.2071  0.0751 -0.2116
 1361TIP3    H128278  -0.109  -2.536   4.830 -0.0792 -1.6250  2.7621
 1361TIP3    H228279  -0.008  -2.625   4.762 -0.9168 -1.5218  1.3550
 1362TIP3   OH228280  -0.353  -1.565   5.105  0.1029  0.1717  0.2224
 1362TIP3    H128281  -0.431  -1.516   5.079 -0.3269 -0.3043  0.5884
 1362TIP3    H228282  -0.283  -1.500   5.107 -0.3934  0.7070  0.3881
 1363TIP3   OH228283   2.641  -2.952   3.242  0.0252 -0.0955 -0.1464
 1363TIP3    H128284   2.613  -3.043   3.247  1.6559 -0.7997 -2.2017
 1363TIP3    H228285   2.587  -2.913   3.173 -0.5475  0.4672  0.6032
 1364TIP3   OH228286   3.146  -2.444   5.751 -0.2388 -0.0355 -0.4394
 1364TIP3    H128287   3.070  -2.480   5.705 -0.5360  1.2628 -1.0377
 1364TIP3    H228288   3.135  -2.472   5.842 -1.6920  0.5034 -0.4194
 1365TIP3   OH228289  -0.222  -0.289   4.323  0.5814 -0.1730  0.6107
 1365TIP3    H128290  -0.229  -0.354   4.254 -1.1175 -0.7962  1.3025
 1365TIP3    H228291  -0.253  -0.208   4.283  1.1273 -0.1621  0.2056
 1366TIP3   OH228292   0.082  -2.139   4.562  0.1893 -0.2694 -0.2866
 1366TIP3    H128293  -0.007  -2.174   4.553 -0.3232  1.2418 -1.4285
 1366TIP3    H228294   0.120  -2.147   4.474  0.7100  0.3035 -0.1209
 1367TIP3   OH228295  -0.579   2.074   4.965 -0.2665 -0.5643 -0.1642
 1367TIP3    H128296  -0.607   2.161   4.937  1.5839 -0.1371 -0.7693
 1367TIP3    H228297  -0.661   2.028   4.983 -1.3809  0.4981 -2.1956
 1368TIP3   OH228298   1.495  -1.902   5.852  0.1718 -0.1636 -0.6488
 1368TIP3    H128299   1.471  -1.927   5.763  1.8791  1.2829 -1.5652
 1368TIP3    H228300   1.548  -1.976   5.883 -0.9940 -0.9852 -0.5319
 1369TIP3   OH228301  -2.064   0.983   4.831 -0.6539  0.2365  0.0306
 1369TIP3    H128302  -1.997   0.916   4.821 -0.7346  0.0515  0.7052
 1369TIP3    H228303  -2.114   0.980   4.749  0.3917  0.6474 -0.6465
 1370TIP3   OH228304   1.663   0.487   4.127  0.4969 -0.0656  0.2139
 1370TIP3    H128305   1.740   0.526   4.085 -0.1305  2.0780  0.9750
 1370TIP3    H228306   1.593   0.495   4.062  0.3550  0.0731  0.3857
 1371TIP3   OH228307   1.940   3.051   4.879 -0.2959  0.1270  0.4090
 1371TIP3    H128308   1.940   3.138   4.838 -1.1858 -0.8641 -1.8449
 1371TIP3    H228309   1.997   2.999   4.824 -0.3476 -0.9312  1.3203
 1372TIP3   OH228310  -1.927   1.349   4.886  0.0686 -0.4854  0.1472
 1372TIP3    H128311  -1.893   1.392   4.964 -1.5220  0.6386  0.2747
 1372TIP3    H228312  -1.994   1.289   4.919  0.2081 -0.8683 -0.2615
 1373TIP3   OH228313   0.764  -0.765   2.860  0.0238  0.1157 -0.2792
 1373TIP3    H128314   0.689  -0.787   2.915  0.6617  1.6938  1.3266
 1373TIP3    H228315   0.734  -0.781   2.770 -1.3830 -1.6082  0.4400
 1374TIP3   OH228316   2.414  -1.938   3.942  0.1387 -0.5197 -0.8180
 1374TIP3    H128317   2.480  -2.004   3.918  2.2055  1.5874 -1.2975
 1374TIP3    H228318   2.465  -1.865   3.976 -2.1247  0.5615  0.4823
 1375TIP3   OH228319   0.968   1.065   4.373 -0.3365  0.1238 -0.0575
 1375TIP3    H128320   0.902   1.132   4.391 -0.9785 -0.6071  0.3267
 1375TIP3    H228321   1.048   1.115   4.357 -0.7022  0.9712  0.6598
 1376TIP3   OH228322  -3.057  -2.385   2.496 -0.1066  0.3049 -0.6599
 1376TIP3    H128323  -3.069  -2.291   2.509 -0.1617  0.0344  1.7766
 1376TIP3    H228324  -3.144  -2.417   2.472 -0.2731  0.7767 -0.7018
 1377TIP3   OH228325   1.479   2.977   5.600 -0.0264  0.6547 -0.2326
 1377TIP3    H128326   1.403   3.010   5.551  0.5413 -0.2901 -1.8343
 1377TIP3    H228327   1.478   2.883   5.584  1.0284  0.5253  0.4026
 1378TIP3   OH228328  -1.195   3.177   3.147 -0.1325  0.0437  0.2576
 1378TIP3    H128329  -1.287   3.156   3.157 -0.0450 -0.2907  0.3645
 1378TIP3    H228330  -1.150   3.122   3.211  0.3418 -1.2735 -1.1571
 1379TIP3   OH228331  -0.157   1.995   2.900  0.1353 -0.2348  0.0856
 1379TIP3    H128332  -0.226   1.929   2.895  1.9124 -2.3216  1.3381
 1379TIP3    H228333  -0.193   2.071   2.854 -2.1582 -1.9202 -1.1029
 1380TIP3   OH228334  -1.084  -2.620   3.640  0.4035 -0.2679 -0.4520
 1380TIP3    H128335  -1.092  -2.525   3.634 -1.6481 -0.4476 -1.8807
 1380TIP3    H228336  -1.138  -2.653   3.568  2.0844 -2.5165 -0.7932
 1381TIP3   OH228337  -1.858  -0.786   4.356  0.1222 -0.4334 -0.6226
 1381TIP3    H128338  -1.918  -0.748   4.292 -1.1230 -1.5537 -0.1544
 1381TIP3    H228339  -1.809  -0.711   4.389 -1.4283  0.6178 -0.5927
 1382TIP3   OH228340   0.890   2.060   5.084  0.1763 -0.4563  0.5641
 1382TIP3    H128341   0.861   1.970   5.069 -2.5042  0.2420  0.9769
 1382TIP3    H228342   0.881   2.073   5.179 -0.1358  0.4082  0.4299
 1383TIP3   OH228343   3.036   1.887   3.789  0.2484 -0.3881 -0.3596
 1383TIP3    H128344   2.994   1.802   3.795  1.7095 -1.2015 -1.0724
 1383TIP3    H228345   3.026   1.926   3.876 -2.3093 -0.3221 -0.6183
 1384TIP3   OH228346  -0.819  -1.528   5.149 -0.0709 -0.0964 -0.8007
 1384TIP3    H128347  -0.786  -1.595   5.089  0.5829  0.2340 -0.8139
 1384TIP3    H228348  -0.825  -1.449   5.095 -2.9511 -0.5935 -1.3989
 1385TIP3   OH228349   2.237  -1.820   3.796  0.1373 -0.3831 -0.1946
 1385TIP3    H128350   2.226  -1.728   3.823  3.0885  0.2919 -0.9137
 1385TIP3    H228351   2.303  -1.855   3.856  1.0248 -1.1755 -1.5672
 1386TIP3   OH228352   1.806   1.115   5.535 -0.4535  0.0630 -0.0480
 1386TIP3    H128353   1.844   1.027   5.529  0.8151  0.4732  1.3710
 1386TIP3    H228354   1.788   1.139   5.444  1.0784 -0.8837 -0.6507
 1387TIP3   OH228355  -1.365   0.813   2.328  0.1577  0.2188  0.5800
 1387TIP3    H128356  -1.320   0.799   2.411  0.1978  1.1173  0.7224
 1387TIP3    H228357  -1.445   0.860   2.352  0.8048  1.6755  0.0022
 1388TIP3   OH228358   0.216   0.189   3.027 -0.1096 -0.2920 -0.1206
 1388TIP3    H128359   0.245   0.165   2.939  0.9155 -0.1760  0.1754
 1388TIP3    H228360   0.269   0.265   3.051 -0.1733 -0.4923  0.7056
 1389TIP3   OH228361  -2.876  -1.029   5.161  0.0393  0.1496 -0.1769
 1389TIP3    H128362  -2.946  -1.049   5.099  0.0692  1.2359 -0.5901
 1389TIP3    H228363  -2.800  -1.012   5.106  0.5470 -0.6933  0.2543
 1390TIP3   OH228364  -0.286  -0.324   3.837  0.0219 -0.0230 -0.1966
 1390TIP3    H128365  -0.289  -0.229   3.842 -1.7832  0.2144 -3.1919
 1390TIP3    H228366  -0.377  -0.351   3.847  0.3708 -1.3492 -0.3978
 1391TIP3   OH228367   0.399  -2.053   3.070  0.4070 -0.2985  0.1235
 1391TIP3    H128368   0.338  -2.048   3.144  1.3285  1.5763  0.8217
 1391TIP3    H228369   0.347  -2.024   2.994  0.3236  1.1525  0.6880
 1392TIP3   OH228370   3.016  -0.884   3.044 -0.5908  0.1127  0.1657
 1392TIP3    H128371   2.976  -0.917   3.124 -1.1363  2.0799  0.7688
 1392TIP3    H228372   3.022  -0.789   3.058 -0.0109  0.4130 -1.8307
 1393TIP3   OH228373   2.574  -0.445   4.347  0.3227 -0.7101  0.4336
 1393TIP3    H128374   2.635  -0.381   4.310  0.8009 -1.3699  0.0708
 1393TIP3    H228375   2.499  -0.392   4.375  1.1045  0.1254  0.9987
 1394TIP3   OH228376  -1.986   0.483   4.279 -1.0342  0.4531 -0.4830
 1394TIP3    H128377  -1.950   0.524   4.358 -0.5689 -1.4208  0.3338
 1394TIP3    H228378  -1.934   0.520   4.208  1.0136 -0.4363  0.4462
 1395TIP3   OH228379   2.905  -0.732   5.199 -0.5220 -0.2622  0.3944
 1395TIP3    H128380   2.849  -0.741   5.122 -0.8438  2.4772  0.2091
 1395TIP3    H228381   2.846  -0.747   5.273 -0.3266 -2.3619  0.1937
 1396TIP3   OH228382  -0.945   1.859   5.734  0.0727  0.3128 -0.0346
 1396TIP3    H128383  -1.005   1.812   5.676 -1.2647  0.1813  1.3946
 1396TIP3    H228384  -0.912   1.792   5.794  0.0718  0.7425  0.4544
 1397TIP3   OH228385  -2.424   3.092   3.742  0.3786 -0.4364  0.1272
 1397TIP3    H128386  -2.432   3.149   3.666 -0.2967  0.3827  0.7766
 1397TIP3    H228387  -2.514   3.063   3.759  0.1070  1.2492  1.9517
 1398TIP3   OH228388   1.519   2.259   5.503  0.0349 -0.1655 -0.0978
 1398TIP3    H128389   1.564   2.342   5.522 -0.7626  0.3286 -0.3369
 1398TIP3    H228390   1.513   2.216   5.589  0.2151  0.1381  0.0706
 1399TIP3   OH228391   0.233  -1.859   5.663 -0.3435 -0.0948  0.0787
 1399TIP3    H128392   0.187  -1.942   5.669  2.1497 -1.5692  0.3099
 1399TIP3    H228393   0.313  -1.879   5.615  0.9163  1.8816  1.1972
 1400TIP3   OH228394   0.827   3.179   4.814 -0.0664 -0.1795 -0.6101
 1400TIP3    H128395   0.903   3.205   4.761  0.1219 -0.0845 -0.2949
 1400TIP3    H228396   0.754   3.228   4.777  0.1963  0.4323 -0.3274
 1401TIP3   OH228397   2.684  -2.711   4.412  0.2980 -0.1459  0.2653
 1401TIP3    H128398   2.732  -2.765   4.349 -0.3623 -1.4274  0.8251
 1401TIP3    H228399   2.740  -2.635   4.426  1.0452 -0.4597 -0.8981
 1402TIP3   OH228400   1.671  -0.216   5.143  0.0770  0.3939 -0.4964
 1402TIP3    H128401   1.738  -0.150   5.158  0.5735 -0.1839 -0.0868
 1402TIP3    H228402   1.599  -0.169   5.102  0.4797  1.1534 -0.3479
 1403TIP3   OH228403   2.076   2.595   4.419  0.5785 -0.6457  0.2646
 1403TIP3    H128404   2.020   2.581   4.495  0.5249  2.0585  0.8470
 1403TIP3    H228405   2.020   2.578   4.344 -0.0541 -1.1549  0.8398
 1404TIP3   OH228406   2.229  -1.527   5.879 -0.3263 -0.6727 -0.8301
 1404TIP3    H128407   2.232  -1.431   5.877 -2.2672 -0.5974 -1.4970
 1404TIP3    H228408   2.319  -1.552   5.901 -0.1789  1.3217  1.2092
 1405TIP3   OH228409   0.504   2.758   4.809 -0.2379  0.5133 -0.0773
 1405TIP3    H128410   0.571   2.734   4.873 -0.1571  0.3594 -0.2199
 1405TIP3    H228411   0.517   2.697   4.737 -2.1749 -1.2505  0.9637
 1406TIP3   OH228412   2.788   2.700   2.263 -0.7312 -0.3880  0.1611
 1406TIP3    H128413   2.704   2.737   2.291 -0.0538  0.4198  1.2264
 1406TIP3    H228414   2.793   2.616   2.308 -1.4285 -0.9501 -0.7657
 1407TIP3   OH228415   1.676  -1.741   3.851  0.0251  0.3443 -0.1216
 1407TIP3    H128416   1.641  -1.765   3.765  0.1671  1.7086 -0.5746
 1407TIP3    H228417   1.726  -1.661   3.835  0.3534  0.4101  1.1693
 1408TIP3   OH228418  -1.847   0.511   2.890  0.3008  0.1668  0.1803
 1408TIP3    H128419  -1.838   0.487   2.983 -0.3923  0.8080  0.4292
 1408TIP3    H228420  -1.805   0.597   2.884  2.9316 -1.0722 -0.7352
 1409TIP3   OH228421  -0.443   3.314   5.339  0.2723  0.2491  0.0737
 1409TIP3    H128422  -0.422   3.221   5.346  0.2637  0.0292 -2.1447
 1409TIP3    H228423  -0.421   3.350   5.425 -0.3196 -1.8897  1.1889
 1410TIP3   OH228424   1.157   2.760   5.296 -0.2753  0.3788  0.3081
 1410TIP3    H128425   1.226   2.710   5.251  1.3929  0.8695  2.1487
 1410TIP3    H228426   1.106   2.694   5.343  1.0121  0.2159  1.5493
 1411TIP3   OH228427   1.391  -0.188   2.663 -0.5808  0.1957  0.5308
 1411TIP3    H128428   1.393  -0.107   2.611  2.1654  0.3799  0.7445
 1411TIP3    H228429   1.398  -0.258   2.599 -0.6425  0.2447  0.4709
 1412TIP3   OH228430   1.030  -2.535   4.651  0.3358 -0.1489 -0.4117
 1412TIP3    H128431   0.953  -2.571   4.696  0.6570  0.2377  0.4623
 1412TIP3    H228432   1.009  -2.544   4.558  0.2176 -2.1952 -0.2321
 1413TIP3   OH228433  -2.676  -1.409   3.195  0.2165 -0.0159 -0.3024
 1413TIP3    H128434  -2.585  -1.414   3.225 -0.2301 -2.0190  0.8850
 1413TIP3    H228435  -2.698  -1.316   3.200  2.3253  0.5888 -1.0959
 1414TIP3   OH228436  -0.292   1.626   5.545 -0.4238 -0.5329  0.3240
 1414TIP3    H128437  -0.367   1.652   5.492 -0.0397 -1.0173 -0.4721
 1414TIP3    H228438  -0.233   1.701   5.542 -0.6923 -0.3071  0.6184
 1415TIP3   OH228439  -0.258   0.547   3.792 -0.1692  0.3597  0.1716
 1415TIP3    H128440  -0.251   0.503   3.877  0.4338  0.7136  0.3079
 1415TIP3    H228441  -0.235   0.479   3.728 -0.5056  0.1270  0.2963
 1416TIP3   OH228442   1.164   2.210   5.244 -0.1312 -0.0495 -0.0398
 1416TIP3    H128443   1.216   2.205   5.163  0.3147 -0.5462  0.2688
 1416TIP3    H228444   1.073   2.212   5.214 -0.0219 -1.4825 -0.5365
 1417TIP3   OH228445   1.640   1.935   5.130  0.4246 -0.4088 -0.3384
 1417TIP3    H128446   1.621   2.006   5.069  0.4907  0.3309  0.4695
 1417TIP3    H228447   1.721   1.896   5.099  1.2327  0.8880  0.0673
 1418TIP3   OH228448  -2.056  -0.600   4.665  0.2238 -0.3397  0.7328
 1418TIP3    H128449  -2.127  -0.537   4.677  1.1192  0.5347  1.5296
 1418TIP3    H228450  -2.097  -0.672   4.617 -1.4569 -0.2985  2.0141
 1419TIP3   OH228451  -0.965   3.175   5.078 -0.7725 -0.2542  0.2355
 1419TIP3    H128452  -1.032   3.243   5.082 -0.0691  0.4975 -0.2836
 1419TIP3    H228453  -0.900   3.202   5.143 -0.2907 -0.1894 -0.2582
 1420TIP3   OH228454   0.789  -0.055   4.926  0.3370  0.6109  0.3236
 1420TIP3    H128455   0.726  -0.123   4.950  0.7731  0.4838  1.1341
 1420TIP3    H228456   0.860  -0.064   4.990  1.8347 -0.1307 -1.3510
 1421TIP3   OH228457   1.325   1.265   5.002  0.1089 -0.3396 -0.0385
 1421TIP3    H128458   1.233   1.287   4.987 -0.2311 -2.0157 -0.6190
 1421TIP3    H228459   1.324   1.215   5.084  0.3384 -1.2693 -0.5945
 1422TIP3   OH228460  -0.180   2.732   3.852  0.0635  0.0387 -0.4605
 1422TIP3    H128461  -0.095   2.776   3.855 -0.4296  1.0097 -0.2726
 1422TIP3    H228462  -0.164   2.646   3.890  0.8005  0.4915  0.2779
 1423TIP3   OH228463   2.460  -2.898   5.419 -0.1663  0.2531 -0.1357
 1423TIP3    H128464   2.462  -2.979   5.369  0.8063  0.3107 -0.2195
 1423TIP3    H228465   2.373  -2.896   5.459 -1.4887  0.8643 -2.8321
 1424TIP3   OH228466   2.954  -3.237   2.982 -0.5735  0.1169 -0.0786
 1424TIP3    H128467   2.869  -3.271   2.955  0.6827 -1.9506 -1.7681
 1424TIP3    H228468   2.962  -3.262   3.074 -1.1916 -1.0311 -0.3144
 1425TIP3   OH228469   3.227   2.467   3.614  0.3832  0.3967  0.5169
 1425TIP3    H128470   3.306   2.454   3.562  0.6335 -1.0804  1.2336
 1425TIP3    H228471   3.158   2.418   3.568  0.1829  0.5898  0.6063
 1426TIP3   OH228472   2.160  -1.806   4.829  0.2008  0.0024 -0.3179
 1426TIP3    H128473   2.242  -1.836   4.788 -0.8218 -2.2243 -0.8892
 1426TIP3    H228474   2.099  -1.795   4.756 -0.2950  0.6678  0.1889
 1427TIP3   OH228475   2.502  -0.775   2.553  0.3430  0.2219  0.6833
 1427TIP3    H128476   2.591  -0.810   2.539 -0.8124 -2.4886 -0.7254
 1427TIP3    H228477   2.470  -0.757   2.464 -0.0942  2.5797  1.2443
 1428TIP3   OH228478   2.328  -1.621   4.543  0.7191 -0.2594 -0.9252
 1428TIP3    H128479   2.296  -1.682   4.609 -0.5652  2.9420  1.6925
 1428TIP3    H228480   2.402  -1.576   4.585  2.1614 -0.4833 -3.0683
 1429TIP3   OH228481   1.698  -0.483   5.140  0.3587 -0.2105 -0.7852
 1429TIP3    H128482   1.718  -0.491   5.233  1.0009 -1.2133 -0.9915
 1429TIP3    H228483   1.691  -0.388   5.125  0.5572 -0.0260  0.2150
 1430TIP3   OH228484   0.903  -0.781   2.349 -0.0657  0.3562 -0.3879
 1430TIP3    H128485   0.809  -0.797   2.335 -0.3529  0.5788  1.0697
 1430TIP3    H228486   0.940  -0.868   2.364 -0.8341  0.4898  3.1403
 1431TIP3   OH228487  -0.030   0.659   3.635  0.1549  0.3132 -0.7282
 1431TIP3    H128488   0.009   0.601   3.570 -0.3566 -0.2409 -0.5502
 1431TIP3    H228489  -0.120   0.628   3.644  0.2094  0.4020  0.2188
 1432TIP3   OH228490  -2.488  -2.358   2.404 -0.0336 -0.1535  0.3013
 1432TIP3    H128491  -2.422  -2.427   2.403 -0.2939 -0.4586 -1.9819
 1432TIP3    H228492  -2.479  -2.316   2.318 -0.6972  1.8760  1.1636
 1433TIP3   OH228493   3.364  -2.781   5.635 -0.2303 -0.4341 -0.3982
 1433TIP3    H128494   3.335  -2.871   5.646  1.5325 -0.9427  0.4854
 1433TIP3    H228495   3.383  -2.774   5.541 -0.9740 -0.7701 -0.5821
 1434TIP3   OH228496  -0.299   1.036   2.967 -0.4690  0.2669  0.0372
 1434TIP3    H128497  -0.301   1.092   2.889  0.4190  0.6570  0.2783
 1434TIP3    H228498  -0.359   0.965   2.947 -0.3727  0.4499 -0.9443
 1435TIP3   OH228499  -0.641  -1.484   2.850 -0.2545 -0.2480 -0.4097
 1435TIP3    H128500  -0.571  -1.431   2.887 -1.3891  1.8184 -1.0403
 1435TIP3    H228501  -0.660  -1.550   2.917 -0.4245  1.6818  1.5252
 1436TIP3   OH228502  -2.297  -0.816   3.499 -1.2836 -0.2368  0.1917
 1436TIP3    H128503  -2.276  -0.746   3.561 -0.1125 -0.0005 -0.4313
 1436TIP3    H228504  -2.391  -0.830   3.509 -1.6976  1.8883 -0.1167
 1437TIP3   OH228505   0.845  -2.837   2.893 -0.0731 -0.2409 -0.5171
 1437TIP3    H128506   0.788  -2.793   2.830 -1.2191 -1.2216 -0.1894
 1437TIP3    H228507   0.928  -2.790   2.886 -1.0704  1.5859 -0.5955
 1438TIP3   OH228508   0.040   0.409   2.637  0.5391  0.4935 -0.1128
 1438TIP3    H128509  -0.023   0.382   2.704  2.1954 -1.2406  0.8528
 1438TIP3    H228510   0.111   0.345   2.644  1.2637  0.8840 -2.8525
 1439TIP3   OH228511   3.276   2.650   4.696 -0.2439  0.1061 -0.5588
 1439TIP3    H128512   3.239   2.738   4.705  2.5325  1.2215  1.1790
 1439TIP3    H228513   3.291   2.640   4.602  2.3381  2.9277 -0.6052
 1440TIP3   OH228514   1.183  -0.185   2.834  0.3853  0.2325 -0.0753
 1440TIP3    H128515   1.206  -0.122   2.902  2.3528 -0.3407 -0.1648
 1440TIP3    H228516   1.251  -0.175   2.767  0.1350 -1.2373 -0.5894
 1441TIP3   OH228517  -1.018   2.480   5.761  0.0143  0.4640  0.1974
 1441TIP3    H128518  -1.057   2.408   5.712 -1.0824  0.6865  0.6965
 1441TIP3    H228519  -0.924   2.464   5.758 -0.1361 -0.2900 -0.7619
 1442TIP3   OH228520  -0.624   1.297   3.692  0.0325  0.0640 -0.0109
 1442TIP3    H128521  -0.646   1.220   3.640  2.6856 -1.8023  1.3862
 1442TIP3    H228522  -0.670   1.284   3.775  0.3574  0.0684  0.1702
 1443TIP3   OH228523  -0.393  -1.105   4.461  0.6390  0.4869  0.2063
 1443TIP3    H128524  -0.401  -1.013   4.435 -2.0563 -0.1107 -1.5779
 1443TIP3    H228525  -0.319  -1.138   4.411 -1.2653  0.6626 -3.0803
 1444TIP3   OH228526   1.684   1.616   4.410 -0.0945  0.1128 -0.4548
 1444TIP3    H128527   1.600   1.573   4.397  0.7835 -1.9887  0.2252
 1444TIP3    H228528   1.747   1.556   4.369  1.2541  0.5130  0.9525
 1445TIP3   OH228529   0.690   1.432   3.381 -0.4086 -0.0763 -0.1741
 1445TIP3    H128530   0.712   1.360   3.323  0.8016  1.5610 -1.8673
 1445TIP3    H228531   0.774   1.471   3.405 -1.0555  1.5373 -0.3526
 1446TIP3   OH228532   2.432   0.063   5.113  0.1079 -0.0830 -0.6383
 1446TIP3    H128533   2.450  -0.031   5.119 -1.3611 -0.5937 -2.9622
 1446TIP3    H228534   2.415   0.090   5.203  0.0762 -2.1458  0.0317
 1447TIP3   OH228535   2.870  -2.968   5.030  0.0248 -0.5677 -0.4271
 1447TIP3    H128536   2.824  -2.928   4.956  0.9709  0.8545 -0.2943
 1447TIP3    H228537   2.930  -2.900   5.060  1.9565 -2.1970 -0.3767
 1448TIP3   OH228538  -1.191  -3.308   3.463 -0.0024  0.1523 -0.0681
 1448TIP3    H128539  -1.119  -3.367   3.441  1.4573  1.6080  0.5071
 1448TIP3    H228540  -1.185  -3.238   3.398 -0.2824  0.7625  0.5448
 1449TIP3   OH228541   3.246  -3.162   5.254 -0.2621  0.5920 -0.1406
 1449TIP3    H128542   3.301  -3.144   5.330 -0.3149 -0.5720  0.1869
 1449TIP3    H228543   3.298  -3.132   5.179  0.3223  0.5836  0.2564
 1450TIP3   OH228544  -2.359   2.260   2.355  0.3963 -0.0945  0.8487
 1450TIP3    H128545  -2.441   2.224   2.320 -0.2890  1.7815  0.3727
 1450TIP3    H228546  -2.299   2.185   2.359 -1.5339 -1.6812  1.8883
 1451TIP3   OH228547  -2.101  -2.394   3.556  0.4279  0.8198  0.6484
 1451TIP3    H128548  -2.121  -2.384   3.649  1.5763  0.8149  0.9193
 1451TIP3    H228549  -2.095  -2.488   3.542  1.9780  0.8337  0.9986
 1452TIP3   OH228550  -1.264  -1.235   5.525 -0.1990 -0.1196 -0.1303
 1452TIP3    H128551  -1.248  -1.300   5.592  0.7806  1.9230  1.7471
 1452TIP3    H228552  -1.322  -1.279   5.462 -0.2805 -2.4627  1.4616
 1453TIP3   OH228553  -1.380  -1.968   4.058 -0.6012 -0.2938  0.1557
 1453TIP3    H128554  -1.284  -1.968   4.060 -0.5803 -2.2085  1.8596
 1453TIP3    H228555  -1.404  -1.878   4.080  0.7754  0.4066 -1.0178
 1454TIP3   OH228556  -2.970   0.159   4.086  0.6908  0.6944  1.0993
 1454TIP3    H128557  -3.003   0.086   4.138 -0.0544 -0.9805 -1.5252
 1454TIP3    H228558  -3.044   0.218   4.076  0.3055  0.1362  0.5447
 1455TIP3   OH228559   1.268   0.894   3.701  0.4808  0.0259  0.1127
 1455TIP3    H128560   1.261   0.842   3.781  1.4852  0.5274  0.5342
 1455TIP3    H228561   1.178   0.926   3.686  0.0604 -0.9806  0.4040
 1456TIP3   OH228562   0.513  -2.891   2.779  0.0299  0.4471  0.2455
 1456TIP3    H128563   0.439  -2.930   2.732 -1.0704  1.4834  1.0714
 1456TIP3    H228564   0.548  -2.825   2.718  1.9037 -1.6745 -1.1596
 1457TIP3   OH228565  -0.180   2.657   5.116  0.1427 -0.1199 -0.3687
 1457TIP3    H128566  -0.147   2.568   5.129 -0.6100 -0.0370  3.0596
 1457TIP3    H228567  -0.242   2.649   5.043  1.1504 -2.0781 -1.0741
 1458TIP3   OH228568   0.867  -1.804   4.026 -0.7131  0.0318 -0.0730
 1458TIP3    H128569   0.865  -1.853   3.944 -1.6781 -0.2568  0.1136
 1458TIP3    H228570   0.800  -1.845   4.081 -0.4305  0.5431  0.6734
 1459TIP3   OH228571   1.493   0.493   2.727 -0.0898  0.2955  0.2566
 1459TIP3    H128572   1.577   0.453   2.705 -0.1654 -0.6915  1.6219
 1459TIP3    H228573   1.506   0.587   2.711  1.4628  0.2378  0.9974
 1460TIP3   OH228574  -0.008   1.055   5.286  0.1113  0.3895  0.5302
 1460TIP3    H128575   0.005   1.125   5.222  0.1201 -0.4293 -0.3784
 1460TIP3    H228576  -0.091   1.077   5.328 -0.1074  0.7090 -0.0569
 1461TIP3   OH228577   2.411   2.402   3.580  0.2775 -0.1262 -0.2691
 1461TIP3    H128578   2.485   2.451   3.545  0.9920 -1.1626 -0.2589
 1461TIP3    H228579   2.444   2.312   3.588 -0.7165 -0.4319  0.5352
 1462TIP3   OH228580  -2.991   0.184   2.377  0.2260 -0.3381  0.0888
 1462TIP3    H128581  -2.909   0.230   2.390 -0.1137  0.2779  0.0834
 1462TIP3    H228582  -2.972   0.120   2.308  0.7505 -0.3472  0.2388
 1463TIP3   OH228583   1.211  -1.293   2.627  0.4855 -0.0739  0.4077
 1463TIP3    H128584   1.304  -1.273   2.617  0.1733  0.9964 -0.5809
 1463TIP3    H228585   1.201  -1.379   2.585  0.9092  0.1423 -0.1579
 1464TIP3   OH228586  -0.678  -3.242   4.499  0.2778  0.2216  0.1154
 1464TIP3    H128587  -0.611  -3.265   4.434  1.1137 -0.5130  1.2029
 1464TIP3    H228588  -0.630  -3.236   4.581 -1.0486 -0.7285  1.0013
 1465TIP3   OH228589  -0.199   3.060   3.455  0.3540 -0.3076  0.0988
 1465TIP3    H128590  -0.150   3.072   3.374  0.0444 -0.3856 -0.1035
 1465TIP3    H228591  -0.229   2.969   3.452  0.0676 -0.2153  0.1457
 1466TIP3   OH228592   2.815   1.121   3.825  0.3332  0.1622  0.3444
 1466TIP3    H128593   2.832   1.055   3.891  0.7584  1.4370  1.5591
 1466TIP3    H228594   2.748   1.178   3.864  1.6083  1.7616  0.3309
 1467TIP3   OH228595   1.749  -1.442   5.414 -0.6731 -0.2861 -0.0057
 1467TIP3    H128596   1.751  -1.414   5.505 -1.4089 -3.2758  1.0764
 1467TIP3    H228597   1.725  -1.364   5.365 -1.3001  1.2037  2.4833
 1468TIP3   OH228598  -2.477   2.636   5.671  0.1236 -0.0646  0.2184
 1468TIP3    H128599  -2.516   2.590   5.597 -0.7661 -0.0491  0.6725
 1468TIP3    H228600  -2.488   2.729   5.650 -0.0405 -0.0604  0.3236
 1469TIP3   OH228601  -0.493  -1.483   3.797  0.3826  0.2019  0.2041
 1469TIP3    H128602  -0.470  -1.480   3.890 -0.8113  0.2196  0.5151
 1469TIP3    H228603  -0.487  -1.576   3.773  0.1309  0.1191  0.4568
 1470TIP3   OH228604  -1.024  -0.234   4.729 -0.7726  0.4014 -0.4991
 1470TIP3    H128605  -1.073  -0.164   4.772 -0.3981  1.0775 -1.1465
 1470TIP3    H228606  -0.962  -0.264   4.795  0.7062  2.3304 -0.9325
 1471TIP3   OH228607  -2.180  -2.808   3.216 -0.3578 -0.0730  0.2328
 1471TIP3    H128608  -2.275  -2.810   3.206 -0.5276  1.2647  1.3021
 1471TIP3    H228609  -2.163  -2.866   3.290 -0.4183  0.2733  0.5182
 1472TIP3   OH228610  -2.363  -0.330   3.191  0.2459  0.0596  0.6198
 1472TIP3    H128611  -2.339  -0.422   3.198  0.5259 -0.0713 -1.4787
 1472TIP3    H228612  -2.324  -0.301   3.109 -1.1365  1.6492  0.4705
 1473TIP3   OH228613   2.341  -2.610   4.799 -0.1815  0.4511  0.2462
 1473TIP3    H128614   2.381  -2.686   4.841 -0.3396  0.4399  0.3800
 1473TIP3    H228615   2.338  -2.632   4.706  1.4985  1.0633  0.0131
 1474TIP3   OH228616  -0.761   3.148   3.230  0.1813 -1.0974  0.0737
 1474TIP3    H128617  -0.767   3.243   3.216 -3.2899 -1.3162 -0.6763
 1474TIP3    H228618  -0.751   3.138   3.324  2.3630 -0.0299  0.0282
 1475TIP3   OH228619   1.742   1.486   4.668 -0.5935 -0.1629 -0.6279
 1475TIP3    H128620   1.723   1.579   4.662 -3.6109 -0.7355 -1.8264
 1475TIP3    H228621   1.700   1.458   4.750  1.2225 -0.3382  0.2888
 1476TIP3   OH228622  -0.258   1.797   3.997 -0.5572  0.0342 -0.2644
 1476TIP3    H128623  -0.199   1.788   4.072  0.1699 -0.0587 -0.8454
 1476TIP3    H228624  -0.262   1.710   3.959 -0.1448  0.2928 -0.9128
 1477TIP3   OH228625  -3.094  -2.725   4.465 -0.6228  0.0320 -0.0874
 1477TIP3    H128626  -3.167  -2.766   4.419 -0.2831  0.5259 -1.1137
 1477TIP3    H228627  -3.087  -2.772   4.548 -1.1184 -1.0397 -0.6366
 1478TIP3   OH228628  -2.835  -0.385   2.751  0.1981  0.1788 -0.3639
 1478TIP3    H128629  -2.917  -0.364   2.706 -0.2204 -0.1819  0.2151
 1478TIP3    H228630  -2.834  -0.480   2.757  0.0439  0.2366  0.7475
 1479TIP3   OH228631  -1.491  -3.101   3.590 -0.7105  0.0731  0.5566
 1479TIP3    H128632  -1.535  -3.096   3.505  0.1296  1.1497  0.1597
 1479TIP3    H228633  -1.557  -3.074   3.653 -1.4373 -1.0348  0.2932
 1480TIP3   OH228634   1.292   2.616   4.104 -0.4672  0.3718  0.3485
 1480TIP3    H128635   1.353   2.543   4.116  0.4744  1.0868 -0.0479
 1480TIP3    H228636   1.323   2.683   4.165  0.2672  1.4388 -1.1415
 1481TIP3   OH228637   0.046   2.896   5.046  0.4455 -0.2010 -0.2787
 1481TIP3    H128638   0.135   2.872   5.024  0.3316 -0.4007 -0.5294
 1481TIP3    H228639   0.001   2.904   4.961  0.2467 -0.0233 -0.1588
 1482TIP3   OH228640  -0.540   0.797   5.573 -0.2922  0.1279  0.1308
 1482TIP3    H128641  -0.616   0.741   5.590 -0.2644  0.1717  0.3952
 1482TIP3    H228642  -0.464   0.741   5.591 -0.2604  0.6595  1.7522
 1483TIP3   OH228643  -1.452   1.415   5.650 -0.2994  0.1577 -0.2601
 1483TIP3    H128644  -1.444   1.509   5.661 -0.8193  0.1938 -0.1892
 1483TIP3    H228645  -1.362   1.383   5.654 -0.2432  0.4558  1.3684
 1484TIP3   OH228646  -3.294   2.434   5.303  0.5851  0.1625  0.2205
 1484TIP3    H128647  -3.205   2.437   5.268  0.5989 -0.5752  0.1745
 1484TIP3    H228648  -3.294   2.499   5.373  0.7441  1.1854 -0.7095
 1485TIP3   OH228649  -2.384   2.128   5.011  0.2181 -0.0859  0.1058
 1485TIP3    H128650  -2.368   2.047   5.060 -2.2357  0.6880  2.4528
 1485TIP3    H228651  -2.298   2.169   5.002  0.9451 -0.7564  3.0861
 1486TIP3   OH228652   0.799  -0.147   3.161 -0.3521  0.1664 -0.1747
 1486TIP3    H128653   0.850  -0.070   3.184 -3.0863  1.8821  0.6826
 1486TIP3    H228654   0.852  -0.192   3.095  1.2316  2.9572 -0.9750
 1487TIP3   OH228655   1.255   2.215   2.631 -0.2459  0.1500  0.6057
 1487TIP3    H128656   1.184   2.275   2.653 -0.6085 -0.1322  0.2187
 1487TIP3    H228657   1.213   2.129   2.626  0.3760 -0.2569  1.8196
 1488TIP3   OH228658  -0.751  -1.049   5.439 -0.3086 -0.0618  0.1285
 1488TIP3    H128659  -0.808  -1.121   5.466  0.1669  0.2611  2.1535
 1488TIP3    H228660  -0.672  -1.093   5.406 -0.6156 -0.4698 -0.0752
 1489TIP3   OH228661  -0.561   0.565   2.973 -0.0828  0.1739  0.4479
 1489TIP3    H128662  -0.612   0.623   2.917 -0.6297 -1.1391 -0.4536
 1489TIP3    H228663  -0.480   0.551   2.925  0.3201  0.6828  0.9660
 1490TIP3   OH228664  -1.085  -1.965   5.248  0.2563  0.7589 -0.2236
 1490TIP3    H128665  -1.174  -1.952   5.282  0.3424 -0.5189  0.5491
 1490TIP3    H228666  -1.098  -2.013   5.166  0.2828 -0.5550  0.5293
 1491TIP3   OH228667  -1.368  -1.933   5.275 -0.3647 -0.0512  0.1267
 1491TIP3    H128668  -1.435  -1.867   5.291 -1.0718 -0.4802 -0.9806
 1491TIP3    H228669  -1.395  -2.008   5.327  0.0993  0.2898  0.8833
 1492TIP3   OH228670   1.695   0.250   4.581 -0.0597 -0.0246  0.3929
 1492TIP3    H128671   1.635   0.307   4.631 -0.5420  0.3861 -0.6267
 1492TIP3    H228672   1.718   0.302   4.504  0.8963 -0.5429  0.3221
 1493TIP3   OH228673   0.367   0.926   3.795  0.3972 -0.1277  0.1380
 1493TIP3    H128674   0.381   1.007   3.843 -0.6906  0.0035  0.2441
 1493TIP3    H228675   0.349   0.954   3.705  0.9578 -0.3027 -0.0344
 1494TIP3   OH228676  -2.509   0.226   4.719  0.0036  0.1014  0.2242
 1494TIP3    H128677  -2.501   0.252   4.811 -0.7916  1.2663 -0.0136
 1494TIP3    H228678  -2.490   0.306   4.670  1.2703 -0.7056 -0.6768
 1495TIP3   OH228679   1.375  -2.355   2.646 -0.0987  0.3628 -0.4004
 1495TIP3    H128680   1.323  -2.417   2.696  1.2398 -0.4880 -0.0318
 1495TIP3    H228681   1.336  -2.357   2.558 -2.4159  1.8174  0.5019
 1496TIP3   OH228682   3.310  -2.996   3.744  0.7463 -0.5870 -0.2681
 1496TIP3    H128683   3.398  -3.009   3.708  1.1208 -1.1496  0.8042
 1496TIP3    H228684   3.269  -3.082   3.736  0.9509 -0.8135  0.9031
 1497TIP3   OH228685  -0.429  -1.222   2.900 -0.5119 -0.0678 -0.3398
 1497TIP3    H128686  -0.402  -1.274   2.975  2.3619  2.5601  0.6860
 1497TIP3    H228687  -0.514  -1.187   2.924  0.4086  0.8367  1.8801
 1498TIP3   OH228688   0.080   0.103   3.293 -0.0076  0.2578 -0.1266
 1498TIP3    H128689   0.174   0.113   3.278  0.3118  1.7118  2.2822
 1498TIP3    H228690   0.041   0.182   3.256 -0.0667  0.4482  0.3340
 1499TIP3   OH228691   0.855  -0.220   2.203  0.6161 -0.1939  0.1502
 1499TIP3    H128692   0.931  -0.260   2.159 -0.1925  0.9551 -2.5048
 1499TIP3    H228693   0.860  -0.127   2.179 -1.1660  0.0538  0.5933
 1500TIP3   OH228694  -2.038   0.070   5.602  0.0569 -0.3358  0.2465
 1500TIP3    H128695  -2.079  -0.015   5.619  0.1027 -0.6377 -1.0745
 1500TIP3    H228696  -1.946   0.057   5.625 -0.3810  0.1268  2.4937
 1501TIP3   OH228697  -0.705   2.638   4.286 -0.5791  0.2513 -0.6073
 1501TIP3    H128698  -0.617   2.637   4.322 -0.2511 -1.4488 -1.3806
 1501TIP3    H228699  -0.693   2.619   4.193 -1.7483  0.1582 -0.7544
 1502TIP3   OH228700   2.334   1.039   3.286  0.4106 -0.1866  0.2088
 1502TIP3    H128701   2.276   1.038   3.363  1.9635 -1.8845  1.4414
 1502TIP3    H228702   2.294   0.978   3.225  0.4448 -0.7036  0.6980
 1503TIP3   OH228703   2.125   2.973   4.082 -0.4706 -0.1572  0.1825
 1503TIP3    H128704   2.143   3.004   4.171 -0.9710 -0.5543  0.4305
 1503TIP3    H228705   2.201   2.919   4.060 -0.4340 -0.2153  0.4456
 1504TIP3   OH228706   0.625   2.351   4.201  0.3907  0.0344 -0.0335
 1504TIP3    H128707   0.628   2.271   4.147 -0.3229 -0.2817  0.3789
 1504TIP3    H228708   0.609   2.421   4.138  1.2769 -0.1147 -0.4341
 1505TIP3   OH228709   1.642   2.198   2.215 -0.2854 -0.1524  0.6979
 1505TIP3    H128710   1.719   2.233   2.169  0.3215  0.6086  2.2195
 1505TIP3    H228711   1.655   2.103   2.215  1.4039  0.0153  2.0880
 1506TIP3   OH228712  -0.418   3.205   4.577 -0.2818 -0.4677  0.2086
 1506TIP3    H128713  -0.445   3.251   4.497 -0.0782  2.1853  1.5413
 1506TIP3    H228714  -0.329   3.175   4.559  0.4209  1.6137 -0.0299
 1507TIP3   OH228715   2.032  -2.332   5.054  0.0354 -0.2942 -0.6634
 1507TIP3    H128716   1.997  -2.243   5.058  1.4436  0.3236 -1.4600
 1507TIP3    H228717   2.126  -2.320   5.043  0.3873 -1.8953  0.2968
 1508TIP3   OH228718  -1.997   3.271   5.712  0.5322  0.6680 -0.3912
 1508TIP3    H128719  -1.955   3.276   5.627 -0.6471  0.4244 -1.0017
 1508TIP3    H228720  -1.933   3.226   5.768  0.4311 -1.2472 -1.7269
 1509TIP3   OH228721  -0.298  -1.997   3.783  0.2603  0.1435  0.2360
 1509TIP3    H128722  -0.215  -2.031   3.814 -0.5758 -0.3566  2.0386
 1509TIP3    H228723  -0.337  -2.070   3.735  0.0446 -0.2605  1.0137
 1510TIP3   OH228724   1.937  -2.129   5.698  0.0323  0.2549  0.2523
 1510TIP3    H128725   1.888  -2.114   5.618 -0.2437  0.5587  0.4767
 1510TIP3    H228726   2.025  -2.095   5.679  0.1312 -0.1900 -0.1090
 1511TIP3   OH228727  -2.222   0.482   2.283  0.0262 -0.1064  0.3054
 1511TIP3    H128728  -2.131   0.453   2.280  0.2273  0.4083 -3.8455
 1511TIP3    H228729  -2.272   0.405   2.254 -0.4090  0.6752 -1.1223
 1512TIP3   OH228730  -2.777   1.794   5.537 -0.4314  0.3573 -0.7768
 1512TIP3    H128731  -2.783   1.737   5.614  0.6196  0.6043 -0.4924
 1512TIP3    H228732  -2.846   1.764   5.479 -1.2361  0.1587  0.2596
 1513TIP3   OH228733  -1.850   0.230   4.331 -0.1196 -0.4913  0.0092
 1513TIP3    H128734  -1.904   0.309   4.324  1.3699  0.6107  0.3667
 1513TIP3    H228735  -1.851   0.209   4.425 -0.1527 -0.6378 -0.0235
 1514TIP3   OH228736   2.595  -2.256   5.362  0.1233  1.3330 -0.6055
 1514TIP3    H128737   2.686  -2.231   5.348  1.6889 -3.1543 -0.1708
 1514TIP3    H228738   2.593  -2.290   5.452 -2.1368  1.7738 -0.4331
 1515TIP3   OH228739  -1.099   1.556   2.576 -0.1573  0.4743 -0.0986
 1515TIP3    H128740  -1.193   1.552   2.559 -0.1721 -0.1989  0.1028
 1515TIP3    H228741  -1.088   1.634   2.631 -0.6818  0.2234  0.3770
 1516TIP3   OH228742   2.374  -1.879   4.699 -0.2096  0.1020  0.0645
 1516TIP3    H128743   2.463  -1.857   4.671 -0.0354 -0.0685  0.4817
 1516TIP3    H228744   2.360  -1.968   4.668  0.0143 -0.1177  0.5877
 1517TIP3   OH228745  -2.322   1.234   4.272 -0.0533 -0.5906 -0.3979
 1517TIP3    H128746  -2.302   1.269   4.185  1.2326  0.8232  0.4022
 1517TIP3    H228747  -2.403   1.185   4.261 -0.2394  0.0654 -2.2618
 1518TIP3   OH228748  -0.234  -0.973   5.003  0.0499 -0.2412 -0.1378
 1518TIP3    H128749  -0.200  -0.883   5.003  0.1387 -0.2662  0.7503
 1518TIP3    H228750  -0.166  -1.024   5.046  0.4098 -0.9159 -1.4433
 1519TIP3   OH228751   0.630   2.833   3.457 -0.4073 -0.2381 -0.1881
 1519TIP3    H128752   0.711   2.803   3.415 -1.0768 -1.3313 -0.7355
 1519TIP3    H228753   0.654   2.846   3.549  0.6456  0.4918 -0.5515
 1520TIP3   OH228754  -0.831   0.002   4.735 -0.0220  0.3402 -0.1741
 1520TIP3    H128755  -0.779  -0.060   4.787 -0.7580  0.0229  0.2005
 1520TIP3    H228756  -0.891  -0.053   4.685 -3.0394  0.7412  2.6516
 1521TIP3   OH228757   2.894   3.315   3.487 -0.3210  0.5242  0.4075
 1521TIP3    H128758   2.837   3.259   3.540  0.3822  1.6478  2.4953
 1521TIP3    H228759   2.885   3.402   3.528  2.5881  0.8226  0.6351
 1522TIP3   OH228760  -1.207  -2.338   4.357 -0.0397  0.0639 -0.0729
 1522TIP3    H128761  -1.181  -2.357   4.447 -2.8276  1.7289  1.2112
 1522TIP3    H228762  -1.262  -2.412   4.332  0.5596 -0.2938 -0.3510
 1523TIP3   OH228763   1.124  -0.176   4.985  0.3192 -0.0452 -0.1167
 1523TIP3    H128764   1.178  -0.202   4.910 -0.1070 -0.6182 -0.2347
 1523TIP3    H228765   1.121  -0.254   5.041  2.1854  0.9336  1.4684
 1524TIP3   OH228766   0.656   0.452   3.238 -0.2585 -0.0505  0.0119
 1524TIP3    H128767   0.596   0.441   3.312 -0.8010 -0.8566 -0.5403
 1524TIP3    H228768   0.742   0.429   3.273 -0.5078 -0.3906  0.4065
 1525TIP3   OH228769  -0.318  -2.627   5.107 -0.2643  0.1510  0.1343
 1525TIP3    H128770  -0.245  -2.576   5.142 -0.0063 -0.4324  0.4530
 1525TIP3    H228771  -0.307  -2.714   5.145  0.0801 -0.5378 -1.4757
 1526TIP3   OH228772  -2.322   0.318   4.112 -0.2573  0.4058  0.4776
 1526TIP3    H128773  -2.299   0.240   4.061 -1.0254  0.4100  0.0995
 1526TIP3    H228774  -2.292   0.298   4.200  1.1536  0.4150  0.0312
 1527TIP3   OH228775   0.162   1.323   2.732 -0.3597 -0.1310  0.3483
 1527TIP3    H128776   0.168   1.393   2.797 -1.0226 -0.1918  0.4794
 1527TIP3    H228777   0.075   1.285   2.745 -0.3509 -0.3965 -0.3148
 1528TIP3   OH228778  -0.435   2.580   4.361  0.6339  0.1680 -0.2577
 1528TIP3    H128779  -0.340   2.567   4.349  0.6616  0.0549  0.0845
 1528TIP3    H228780  -0.462   2.510   4.419  0.0171 -0.8394 -1.6995
 1529TIP3   OH228781   2.743  -0.594   4.012 -0.0582 -0.3924 -0.4820
 1529TIP3    H128782   2.777  -0.558   4.094  0.1375  0.0958 -0.7680
 1529TIP3    H228783   2.656  -0.627   4.034  0.9631 -2.6022  0.5187
 1530TIP3   OH228784  -1.488   1.106   2.544 -1.5026  0.3155  0.5930
 1530TIP3    H128785  -1.523   1.068   2.464 -0.0613 -1.0896  0.5793
 1530TIP3    H228786  -1.520   1.196   2.544 -1.4071  0.3962 -1.6301
 1531TIP3   OH228787  -2.356   0.077   2.610 -0.8171 -0.1092 -0.6052
 1531TIP3    H128788  -2.409   0.092   2.689  1.3022 -0.8293  1.0786
 1531TIP3    H228789  -2.392  -0.003   2.572 -1.2792 -0.2943  0.1910
 1532TIP3   OH228790  -2.919  -0.064   2.244 -0.8174 -0.3654 -0.1870
 1532TIP3    H128791  -2.930  -0.098   2.333 -1.2345 -0.4769 -0.2787
 1532TIP3    H228792  -2.899  -0.141   2.191  1.6804 -0.0520  0.1549
 1533TIP3   OH228793  -1.453  -1.755   5.002  0.1298 -0.0360 -0.2191
 1533TIP3    H128794  -1.512  -1.774   4.929  1.9757 -0.4928 -1.6789
 1533TIP3    H228795  -1.461  -1.832   5.059  2.0495 -2.0057 -2.3595
 1534TIP3   OH228796  -0.523   0.649   3.562  0.2289 -0.2984  0.0121
 1534TIP3    H128797  -0.608   0.692   3.549  1.1636  1.2746 -1.3135
 1534TIP3    H228798  -0.539   0.586   3.632 -1.9762  0.0939 -0.0457
 1535TIP3   OH228799   3.203  -3.189   4.594 -0.3142  0.3787 -0.4128
 1535TIP3    H128800   3.108  -3.178   4.600 -0.1181  2.3092 -0.2937
 1535TIP3    H228801   3.231  -3.193   4.686 -0.1109  1.7956 -0.3920
 1536TIP3   OH228802  -3.055   0.561   3.654  0.2307 -0.5126  0.1950
 1536TIP3    H128803  -3.136   0.527   3.691 -0.1075 -0.4170 -0.4333
 1536TIP3    H228804  -2.997   0.486   3.647 -0.3856 -0.8998 -0.8635
 1537TIP3   OH228805   0.455   1.912   4.970 -0.4719 -0.0018 -0.0007
 1537TIP3    H128806   0.493   1.833   5.007  0.3420  0.8989  1.1718
 1537TIP3    H228807   0.388   1.939   5.033  0.4566  1.1763  0.5193
 1538TIP3   OH228808  -0.375   0.736   4.701  0.3699  0.0568 -0.3014
 1538TIP3    H128809  -0.314   0.799   4.739  2.4423 -1.4726 -0.8360
 1538TIP3    H228810  -0.418   0.783   4.630  0.8745  1.2457  0.1653
 1539TIP3   OH228811  -0.411  -1.010   5.209  0.4154 -0.0846  0.4056
 1539TIP3    H128812  -0.377  -1.000   5.120  0.4352  0.4603  0.4705
 1539TIP3    H228813  -0.377  -0.934   5.256  1.4428 -1.0089  1.2149
 1540TIP3   OH228814   1.206  -1.095   4.291 -0.4832  0.4133 -0.4769
 1540TIP3    H128815   1.226  -1.188   4.278  1.9904  0.8487 -0.2261
 1540TIP3    H228816   1.118  -1.095   4.331 -0.0509 -1.8762  0.6509
 1541TIP3   OH228817   0.861   2.970   4.166  0.5643  0.2007  0.0949
 1541TIP3    H128818   0.912   2.910   4.111  0.6411  0.9608 -0.6901
 1541TIP3    H228819   0.926   3.026   4.208  0.4868 -0.1865  0.7355
 1542TIP3   OH228820  -2.502  -2.707   3.998  0.7892 -0.3499  0.5538
 1542TIP3    H128821  -2.458  -2.778   4.044 -1.0098 -1.5174  0.5569
 1542TIP3    H228822  -2.575  -2.683   4.055  0.4174  0.3800 -0.2076
 1543TIP3   OH228823  -2.057  -1.784   2.976  0.0373 -0.1655  0.5367
 1543TIP3    H128824  -2.059  -1.824   2.890  1.6624 -0.6021  0.6634
 1543TIP3    H228825  -2.148  -1.784   3.005 -0.5601  0.1481 -1.2239
 1544TIP3   OH228826   1.738   0.274   4.989  0.3950 -0.3021  0.0119
 1544TIP3    H128827   1.649   0.288   5.020  0.6228  0.8510  0.2238
 1544TIP3    H228828   1.729   0.224   4.908 -0.5722  1.0981 -0.7986
 1545TIP3   OH228829   1.663  -1.225   3.403  0.2946 -0.7376  0.1433
 1545TIP3    H128830   1.718  -1.302   3.422  1.5735 -0.2318 -1.3181
 1545TIP3    H228831   1.723  -1.162   3.364 -1.1845  0.1865 -0.7134
 1546TIP3   OH228832  -1.688  -2.113   4.332 -0.6754  0.0243 -0.0304
 1546TIP3    H128833  -1.771  -2.065   4.328 -0.9169 -0.4554 -1.5550
 1546TIP3    H228834  -1.648  -2.098   4.246  0.7513  0.1140  0.6269
 1547TIP3   OH228835  -2.481   1.883   2.410  0.0109 -0.2250 -0.5977
 1547TIP3    H128836  -2.419   1.905   2.480 -0.6319 -0.0363 -0.0710
 1547TIP3    H228837  -2.468   1.951   2.345  0.7960 -0.5441 -0.7870
 1548TIP3   OH228838  -1.460   1.882   4.257 -0.0416 -0.2924  0.5942
 1548TIP3    H128839  -1.433   1.973   4.246  0.5566 -0.2573  2.0547
 1548TIP3    H228840  -1.551   1.879   4.227  0.5850  0.2887 -1.4674
 1549TIP3   OH228841   3.205   1.352   5.704  0.1061  0.7385 -0.1691
 1549TIP3    H128842   3.114   1.341   5.677 -0.7574  1.2048  2.2871
 1549TIP3    H228843   3.209   1.308   5.789  1.8470  1.8236  0.3461
 1550TIP3   OH228844   2.900  -1.073   5.169 -0.7652  0.1214 -0.2670
 1550TIP3    H128845   2.862  -1.158   5.147  0.3748 -0.3765 -0.3586
 1550TIP3    H228846   2.874  -1.016   5.096 -1.4302 -0.1631 -0.2649
 1551TIP3   OH228847   0.232   1.350   5.535  0.7637  0.2223  0.2257
 1551TIP3    H128848   0.216   1.432   5.581  1.0135  0.3519  0.0819
 1551TIP3    H228849   0.156   1.340   5.476  0.5170  0.1277  0.5538
 1552TIP3   OH228850   1.930   1.183   4.488  0.0437  0.1489 -0.3394
 1552TIP3    H128851   1.894   1.095   4.501 -2.1037  1.1752  1.2193
 1552TIP3    H228852   1.942   1.218   4.576  1.0299  1.3779 -0.9233
 1553TIP3   OH228853   0.174  -2.215   4.306 -0.2195  0.1208  0.4133
 1553TIP3    H128854   0.234  -2.272   4.258 -0.4043  0.2217  0.0578
 1553TIP3    H228855   0.087  -2.236   4.271 -0.3575  0.1925  0.7092
 1554TIP3   OH228856  -1.452  -3.276   4.658  1.0206 -0.6774  0.0930
 1554TIP3    H128857  -1.496  -3.360   4.646  0.9725 -0.7609  0.8102
 1554TIP3    H228858  -1.441  -3.268   4.752  0.1340  0.5877  0.1133
 1555TIP3   OH228859   0.568  -0.857   4.570 -0.1357 -0.4407  0.3916
 1555TIP3    H128860   0.650  -0.854   4.618  0.7016  0.5653 -1.0274
 1555TIP3    H228861   0.573  -0.938   4.518  0.7524  0.4362 -0.9594
 1556TIP3   OH228862   1.507  -2.288   5.512 -0.1347  0.3607 -0.1015
 1556TIP3    H128863   1.586  -2.236   5.526 -1.0070  1.9707 -0.8987
 1556TIP3    H228864   1.460  -2.241   5.443 -1.5343 -0.8569 -0.0106
 1557TIP3   OH228865  -2.099   2.024   3.306 -0.3596 -0.1008  0.2723
 1557TIP3    H128866  -2.050   2.098   3.268 -0.4199  0.6949  1.6630
 1557TIP3    H228867  -2.112   2.049   3.397 -2.6353 -0.6849  0.1599
 1558TIP3   OH228868  -2.525  -3.160   3.634 -0.4330  0.0119  0.0986
 1558TIP3    H128869  -2.613  -3.123   3.626 -0.0149  1.1478  0.6065
 1558TIP3    H228870  -2.522  -3.227   3.565 -1.6171  0.0837 -0.0597
 1559TIP3   OH228871  -0.466   1.697   5.282  0.1086 -0.4881  0.3062
 1559TIP3    H128872  -0.492   1.714   5.191  1.1922 -0.5016 -0.0337
 1559TIP3    H228873  -0.405   1.769   5.302 -0.3943 -0.2927  1.1452
 1560TIP3   OH228874  -1.599   2.336   4.941  0.2119 -0.0210  0.1237
 1560TIP3    H128875  -1.523   2.383   4.977  1.1804 -1.6917  0.3722
 1560TIP3    H228876  -1.672   2.362   4.997  0.9219  0.3738  0.8931
 1561TIP3   OH228877   0.153   0.118   4.748  0.0105 -0.1534  0.3798
 1561TIP3    H128878   0.076   0.097   4.802 -0.3250  0.6361  0.2234
 1561TIP3    H228879   0.121   0.109   4.658 -0.0137  0.5747  0.3126
 1562TIP3   OH228880   0.646   1.762   2.309 -0.6575 -0.4143  0.3799
 1562TIP3    H128881   0.578   1.819   2.345  0.5347  0.5785  1.1572
 1562TIP3    H228882   0.712   1.757   2.378 -0.1531 -1.7399 -0.1732
 1563TIP3   OH228883   0.262  -2.518   4.529 -0.1893 -0.1911 -0.5650
 1563TIP3    H128884   0.312  -2.598   4.545  0.6693  0.4755  0.1403
 1563TIP3    H228885   0.254  -2.514   4.434 -0.5154 -1.2750 -0.5976
 1564TIP3   OH228886  -1.593  -2.645   4.036  0.1861  0.0905  0.0426
 1564TIP3    H128887  -1.538  -2.571   4.010 -0.9679  1.2481  0.7941
 1564TIP3    H228888  -1.673  -2.635   3.985 -0.9131  0.7061  1.8096
 1565TIP3   OH228889   2.044  -1.039   2.489 -0.2583 -0.3232  0.0799
 1565TIP3    H128890   1.993  -1.009   2.565 -0.2096  1.5631 -0.5633
 1565TIP3    H228891   2.002  -1.120   2.463 -3.1203  1.1914 -0.5151
 1566TIP3   OH228892  -2.384  -2.037   4.756  0.2206 -0.6053 -0.2304
 1566TIP3    H128893  -2.417  -2.021   4.845  0.1271  0.2241 -0.4012
 1566TIP3    H228894  -2.462  -2.038   4.701  0.4007  0.6126 -0.5342
 1567TIP3   OH228895  -2.838   3.307   3.775  0.2434 -0.7723 -0.4658
 1567TIP3    H128896  -2.804   3.260   3.699 -0.6228 -0.6385 -0.9402
 1567TIP3    H228897  -2.769   3.297   3.841  0.1051 -2.6364 -0.5654
 1568TIP3   OH228898   2.869  -1.406   5.368 -0.5542  1.1210 -0.6842
 1568TIP3    H128899   2.931  -1.423   5.439  0.1795  1.1672 -1.2990
 1568TIP3    H228900   2.799  -1.471   5.381 -0.2443  0.8887 -0.1411
 1569TIP3   OH228901   3.314  -1.004   4.874  0.1023 -0.5805  0.8502
 1569TIP3    H128902   3.294  -1.036   4.786  0.4034  1.3253  0.0200
 1569TIP3    H228903   3.297  -1.078   4.932 -0.8497 -1.6513 -0.7328
 1570TIP3   OH228904  -3.001  -2.997   2.584  0.1587  0.0088  0.1518
 1570TIP3    H128905  -3.048  -3.062   2.635 -0.3394 -0.9337 -1.4315
 1570TIP3    H228906  -2.923  -2.977   2.636 -0.3587 -0.8247  1.2912
 1571TIP3   OH228907  -0.257   1.361   5.591  0.0380 -0.3695 -0.3493
 1571TIP3    H128908  -0.180   1.344   5.644 -0.4539  0.4194  0.6487
 1571TIP3    H228909  -0.260   1.457   5.583  0.3081 -0.4743 -2.1308
 1572TIP3   OH228910  -2.546   1.632   5.016  0.5179  0.0073 -0.1545
 1572TIP3    H128911  -2.607   1.705   5.026 -0.2631 -0.3930 -1.6446
 1572TIP3    H228912  -2.462   1.672   4.995  0.0859  0.5085 -1.0053
 1573TIP3   OH228913  -1.840  -1.985   5.900 -0.2539 -0.4465 -0.1857
 1573TIP3    H128914  -1.852  -1.958   5.992  0.8930 -0.9182  0.1129
 1573TIP3    H228915  -1.845  -1.903   5.851 -0.7976 -0.1787  0.3037
 1574TIP3   OH228916  -2.449   3.180   3.127 -0.2290 -0.3519  0.5375
 1574TIP3    H128917  -2.507   3.168   3.052  0.2890  0.7769 -0.0856
 1574TIP3    H228918  -2.479   3.117   3.192 -2.2991  0.3612  0.3347
 1575TIP3   OH228919   2.872   1.271   2.915 -0.0763 -0.4893  0.1797
 1575TIP3    H128920   2.905   1.353   2.879  1.4620 -1.2226 -0.1234
 1575TIP3    H228921   2.867   1.286   3.009 -3.0773  1.0636 -0.1044
 1576TIP3   OH228922  -1.522  -3.050   5.392 -0.2312  0.0799  0.0176
 1576TIP3    H128923  -1.474  -3.113   5.338  0.5475  0.6068  0.0868
 1576TIP3    H228924  -1.554  -3.102   5.466  1.3786 -0.0336  0.6727
 1577TIP3   OH228925  -2.233   1.528   3.960  0.2671  0.0376 -0.1496
 1577TIP3    H128926  -2.273   1.595   4.015 -0.3120 -0.0629 -0.4421
 1577TIP3    H228927  -2.257   1.445   4.001  0.9108 -0.0039  0.1620
 1578TIP3   OH228928  -1.217   1.530   3.872 -0.4609  0.2993 -0.1501
 1578TIP3    H128929  -1.237   1.477   3.795 -1.8061  0.9246 -0.2634
 1578TIP3    H228930  -1.176   1.609   3.837  1.8873 -0.7280  0.0434
 1579TIP3   OH228931  -3.016   0.254   4.878 -0.5912 -0.1127 -0.4633
 1579TIP3    H128932  -2.986   0.215   4.960 -2.1004  0.1130  0.2245
 1579TIP3    H228933  -2.936   0.271   4.829  0.3352 -0.3745  0.9085
 1580TIP3   OH228934  -2.450  -0.095   3.936  0.2400 -0.2301 -0.2389
 1580TIP3    H128935  -2.372  -0.040   3.945 -1.3840  2.3112 -0.7051
 1580TIP3    H228936  -2.499  -0.078   4.017 -0.1738 -1.2349 -0.2810
 1581TIP3   OH228937   1.541   0.025   4.493 -0.1798  0.1620 -0.2550
 1581TIP3    H128938   1.563   0.108   4.535  1.0812  0.3224 -1.1956
 1581TIP3    H228939   1.605   0.016   4.422 -0.6819 -1.3226 -0.5455
 1582TIP3   OH228940  -0.722   3.248   4.214  0.4788 -0.8283  0.1659
 1582TIP3    H128941  -0.653   3.310   4.235 -0.2752 -0.2462  1.0136
 1582TIP3    H228942  -0.758   3.222   4.300  0.3609 -1.9502 -0.2021
 1583TIP3   OH228943  -2.176  -2.669   3.776  0.0011 -0.5747  0.1930
 1583TIP3    H128944  -2.158  -2.753   3.817  0.4534 -1.8178 -2.3537
 1583TIP3    H228945  -2.228  -2.690   3.699  1.1455  1.3296 -1.1916
 1584TIP3   OH228946  -0.727  -2.839   5.188 -0.0742  0.3270 -0.3456
 1584TIP3    H128947  -0.672  -2.890   5.128 -0.6901  1.1176 -1.6168
 1584TIP3    H228948  -0.696  -2.864   5.275  2.6888  1.1523 -0.9945
 1585TIP3   OH228949  -0.758   0.792   2.914  0.3415 -0.2393 -0.2442
 1585TIP3    H128950  -0.776   0.861   2.978 -0.8249 -0.8351  0.0966
 1585TIP3    H228951  -0.775   0.833   2.829  1.8061  0.5267 -0.2023
 1586TIP3   OH228952   1.940   3.197   2.566 -0.7020 -0.1082  0.2986
 1586TIP3    H128953   2.015   3.138   2.565 -0.5756  0.0335 -1.2009
 1586TIP3    H228954   1.977   3.284   2.580 -0.8863 -0.3170  2.4856
 1587TIP3   OH228955  -2.010   1.406   4.306 -0.5475  0.3761  0.2314
 1587TIP3    H128956  -2.085   1.457   4.277 -0.6849 -0.8061 -1.6730
 1587TIP3    H228957  -2.043   1.317   4.317  0.5756 -0.2136 -0.8642
 1588TIP3   OH228958   0.106  -0.093   5.774 -0.2481 -0.4051  0.9272
 1588TIP3    H128959   0.188  -0.143   5.782 -0.3414 -0.5884  0.7639
 1588TIP3    H228960   0.132  -0.002   5.789  0.2979 -0.2393 -0.7865
 1589TIP3   OH228961  -0.119  -0.036   5.924  0.7157 -0.4264  0.0162
 1589TIP3    H128962  -0.184  -0.105   5.914 -0.2956  0.6452 -1.3273
 1589TIP3    H228963  -0.057  -0.050   5.851  2.3947 -1.7745  1.6043
 1590TIP3   OH228964   0.933   1.086   4.768  0.1582 -0.0019 -0.8291
 1590TIP3    H128965   1.005   1.043   4.723  1.0511  1.2641 -0.6875
 1590TIP3    H228966   0.860   1.026   4.761  1.3254 -1.4911 -0.6785
 1591TIP3   OH228967   2.743  -2.490   3.439  0.0443 -0.0268  0.0360
 1591TIP3    H128968   2.654  -2.493   3.473 -0.4693  1.3341 -1.0821
 1591TIP3    H228969   2.780  -2.576   3.461 -0.7993  0.1481  2.3993
 1592TIP3   OH228970  -0.620  -1.036   1.836  0.5890  0.9119  0.2387
 1592TIP3    H128971  -0.536  -0.991   1.825  0.1607  1.7469  0.3522
 1592TIP3    H228972  -0.686  -0.968   1.828 -0.0316  0.4976  1.5138
 1593TIP3   OH228973  -0.237   1.311   3.972 -0.0784 -0.4461 -0.2872
 1593TIP3    H128974  -0.238   1.219   3.948 -0.4093 -0.3972 -0.4576
 1593TIP3    H228975  -0.264   1.313   4.064 -0.4062 -0.4880 -0.3830
 1594TIP3   OH228976   3.019  -1.326   4.360  0.2340 -0.2639 -0.0022
 1594TIP3    H128977   3.057  -1.372   4.434 -0.0251  0.0602  0.3332
 1594TIP3    H228978   3.066  -1.360   4.284  0.8568 -0.2173  0.3606
 1595TIP3   OH228979  -1.201  -1.267   2.801 -0.5070  0.1690  0.1013
 1595TIP3    H128980  -1.280  -1.304   2.841 -0.8060 -0.3972 -0.9815
 1595TIP3    H228981  -1.144  -1.342   2.788 -1.2177 -0.0413 -2.3549
 1596TIP3   OH228982  -2.822  -3.154   4.564  0.3927  0.0351 -0.4540
 1596TIP3    H128983  -2.829  -3.191   4.652  2.7270  0.5747  0.0252
 1596TIP3    H228984  -2.802  -3.229   4.508  1.3513  0.0076 -0.0945
 1597TIP3   OH228985   1.597   0.600   3.433 -0.2338  0.2125 -0.6974
 1597TIP3    H128986   1.644   0.517   3.441  0.4761  0.6632 -0.1272
 1597TIP3    H228987   1.652   0.653   3.375 -0.5053  0.4119 -0.7725
 1598TIP3   OH228988  -3.022  -0.084   5.616 -0.4019  0.1066 -0.5380
 1598TIP3    H128989  -2.938  -0.054   5.650 -1.0728  1.0177  0.3823
 1598TIP3    H228990  -3.031  -0.040   5.532 -0.0347  0.1546 -0.5523
 1599TIP3   OH228991  -0.110  -2.354   5.118  0.3237 -0.3756 -1.0215
 1599TIP3    H128992  -0.203  -2.342   5.137  0.4847  0.3531 -0.6656
 1599TIP3    H228993  -0.075  -2.400   5.194  0.6852  1.3026 -0.1312
 1600TIP3   OH228994   1.139  -0.628   2.558  0.7764 -0.2234 -0.4061
 1600TIP3    H128995   1.097  -0.712   2.577  0.0235 -0.0920 -1.4190
 1600TIP3    H228996   1.196  -0.646   2.484  0.7718  0.1093 -0.4915
 1601TIP3   OH228997  -0.193  -1.750   5.261  0.7522  0.2889 -0.0972
 1601TIP3    H128998  -0.216  -1.723   5.172  1.9536  1.4371 -0.0802
 1601TIP3    H228999  -0.165  -1.841   5.252  0.2832  0.2031 -0.7786
 1602TIP3   OH229000   1.661  -2.435   3.706  0.1387 -0.3680 -0.0790
 1602TIP3    H129001   1.715  -2.399   3.637  1.5605  0.6691  1.5067
 1602TIP3    H229002   1.719  -2.443   3.782 -1.5400 -0.6869  1.2544
 1603TIP3   OH229003  -2.446   1.053   5.547  0.3806  0.0861  0.5969
 1603TIP3    H129004  -2.510   1.010   5.604  1.1447  0.7018  1.9430
 1603TIP3    H229005  -2.500   1.100   5.483 -0.4996 -0.3132  1.0249
 1604TIP3   OH229006  -0.431  -1.801   4.721 -0.5724  0.0987  0.8574
 1604TIP3    H129007  -0.450  -1.710   4.698  0.7911  0.4109  0.8737
 1604TIP3    H229008  -0.459  -1.810   4.812 -0.4737  0.5708  0.9333
 1605TIP3   OH229009  -3.023   3.184   5.199  0.3350 -0.3166  0.1607
 1605TIP3    H129010  -2.978   3.240   5.136  0.3824 -0.9459 -0.3710
 1605TIP3    H229011  -2.953   3.137   5.245  0.3488  0.7246  1.2639
 1606TIP3   OH229012  -1.109  -1.923   4.105 -0.5211 -0.1846 -0.4019
 1606TIP3    H129013  -1.028  -1.948   4.060 -0.0666  0.3592  0.0912
 1606TIP3    H229014  -1.085  -1.922   4.198 -1.6582 -2.1201 -0.0327
 1607TIP3   OH229015   2.511   1.497   3.400  0.6887 -0.0989  0.4876
 1607TIP3    H129016   2.531   1.503   3.306  0.0741  0.0725  0.3580
 1607TIP3    H229017   2.441   1.561   3.413 -0.1169 -1.0118  0.7970
 1608TIP3   OH229018   3.360  -0.442   4.384 -0.3418  0.6890 -0.2882
 1608TIP3    H129019   3.452  -0.467   4.392 -0.5036 -0.3259 -1.4186
 1608TIP3    H229020   3.353  -0.362   4.436  1.4399  1.4190 -1.0711
 1609TIP3   OH229021   2.936   0.879   2.790 -0.0117  0.5325 -0.0094
 1609TIP3    H129022   2.957   0.794   2.829 -0.6078  0.3952  0.0259
 1609TIP3    H229023   2.871   0.917   2.849 -1.1073  0.2179 -0.9905
 1610TIP3   OH229024  -2.258  -0.228   2.967 -0.3923  0.5581  0.6046
 1610TIP3    H129025  -2.184  -0.168   2.959 -0.9480  1.2031  0.0583
 1610TIP3    H229026  -2.287  -0.242   2.876  0.0457 -0.9648  0.6739
 1611TIP3   OH229027   1.519   3.254   5.456  0.3415  0.5788 -0.0307
 1611TIP3    H129028   1.500   3.301   5.537  1.2144  1.6406 -0.3998
 1611TIP3    H229029   1.450   3.189   5.448 -1.0413  1.9419  0.4172
 1612TIP3   OH229030   2.751   2.355   2.765 -0.2337 -0.3524 -0.9113
 1612TIP3    H129031   2.688   2.401   2.710 -0.1994 -0.3302 -0.9319
 1612TIP3    H229032   2.832   2.354   2.713 -0.2863 -0.6008 -0.9914
 1613TIP3   OH229033   1.190   2.000   3.139 -0.1509 -0.1797  0.9432
 1613TIP3    H129034   1.227   2.012   3.051 -0.6787 -0.7505  0.6374
 1613TIP3    H229035   1.242   2.058   3.195 -0.5585  1.0669  0.0636
 1614TIP3   OH229036   2.266   0.830   5.272 -0.0833 -0.3855 -0.1018
 1614TIP3    H129037   2.216   0.885   5.213 -0.3801  0.2385  0.7062
 1614TIP3    H229038   2.224   0.744   5.269 -1.5858  0.2724  0.9884
 1615TIP3   OH229039  -2.034  -1.642   5.429 -0.2403  0.2944  0.0392
 1615TIP3    H129040  -2.087  -1.659   5.351  0.0321 -0.5796  0.0409
 1615TIP3    H229041  -2.098  -1.636   5.500 -0.2432 -3.0106  0.4301
 1616TIP3   OH229042  -2.383   1.321   3.795 -0.5047 -0.5464 -0.1166
 1616TIP3    H129043  -2.467   1.344   3.834 -0.4417 -0.4357 -0.0454
 1616TIP3    H229044  -2.334   1.403   3.795  0.1259 -0.8977  1.1360
 1617TIP3   OH229045  -1.709  -1.209   3.444 -0.3018  0.2310 -0.2345
 1617TIP3    H129046  -1.788  -1.158   3.459 -0.0775 -0.0427  2.1280
 1617TIP3    H229047  -1.637  -1.147   3.454 -0.1314  0.4608 -2.2916
 1618TIP3   OH229048  -0.212   2.836   2.911  0.0931  0.2873  0.0352
 1618TIP3    H129049  -0.201   2.814   3.003 -1.1637  1.9166  0.6349
 1618TIP3    H229050  -0.241   2.755   2.869  0.1311 -0.3333  1.1801
 1619TIP3   OH229051   3.238   3.358   3.046 -0.0632  0.4382  0.3425
 1619TIP3    H129052   3.163   3.370   3.104 -1.1200  0.9736 -1.0612
 1619TIP3    H229053   3.222   3.273   3.004  0.1801  0.4905  0.1417
 1620TIP3   OH229054  -1.295   1.366   3.615 -0.2181  0.0702  0.0719
 1620TIP3    H129055  -1.244   1.361   3.533 -0.9563  0.2880 -0.4094
 1620TIP3    H229056  -1.386   1.368   3.586 -0.5964 -1.9940  0.9886
 1621TIP3   OH229057  -2.475  -2.296   2.668 -0.2522 -0.2919 -0.2378
 1621TIP3    H129058  -2.538  -2.329   2.731  0.5052 -2.1955 -0.4279
 1621TIP3    H229059  -2.514  -2.316   2.582  0.5347 -1.4148 -0.3561
 1622TIP3   OH229060   0.417  -0.895   1.918  0.9084 -0.4776 -0.1897
 1622TIP3    H129061   0.346  -0.851   1.965 -1.5485 -2.8316 -1.4443
 1622TIP3    H229062   0.459  -0.950   1.983  0.8969  0.1334  0.3410
 1623TIP3   OH229063  -2.650  -2.617   3.028  0.9063 -0.3489 -0.0661
 1623TIP3    H129064  -2.573  -2.655   2.984 -0.1721 -1.7858 -0.7655
 1623TIP3    H229065  -2.723  -2.671   2.999 -0.2517  0.4241  1.3372
 1624TIP3   OH229066  -0.262   2.568   5.438 -0.2430  0.4450 -0.2670
 1624TIP3    H129067  -0.285   2.478   5.413 -0.7041  0.7380 -0.9410
 1624TIP3    H229068  -0.223   2.560   5.524 -1.5683 -0.2568  0.2985
 1625TIP3   OH229069   0.186   1.920   3.586 -0.7245 -0.1356 -0.0846
 1625TIP3    H129070   0.127   1.899   3.658  1.4162  0.0556  1.8546
 1625TIP3    H229071   0.257   1.856   3.594  0.3344  0.8639 -1.0382
 1626TIP3   OH229072   2.493  -2.561   2.855  0.1249  0.3082  0.1747
 1626TIP3    H129073   2.442  -2.581   2.777  1.7149 -0.5521 -0.6845
 1626TIP3    H229074   2.433  -2.578   2.928 -1.1869  0.5340 -0.8324
 1627TIP3   OH229075  -1.542   1.942   3.662 -0.6717 -0.2404 -0.2042
 1627TIP3    H129076  -1.502   1.864   3.622 -0.9895 -0.2173 -0.5718
 1627TIP3    H229077  -1.603   1.974   3.596  1.0934  1.6543 -1.0094
 1628TIP3   OH229078  -2.050  -1.895   4.891  0.0937  0.2205  0.1298
 1628TIP3    H129079  -1.979  -1.904   4.828 -0.1998 -0.5480 -0.1042
 1628TIP3    H229080  -2.089  -1.810   4.872 -0.5998 -0.4036 -1.3785
 1629TIP3   OH229081  -1.649   1.282   2.816 -0.8200  0.4199  0.0419
 1629TIP3    H129082  -1.569   1.311   2.860 -1.1618  0.1232  0.8836
 1629TIP3    H229083  -1.632   1.296   2.723  0.4957 -0.3230  0.1528
 1630TIP3   OH229084  -2.193  -3.313   2.883  0.2508 -0.3145  0.4060
 1630TIP3    H129085  -2.169  -3.400   2.915 -1.2501 -0.8146  0.2147
 1630TIP3    H229086  -2.193  -3.321   2.788  2.0538  0.4624  0.2846
 1631TIP3   OH229087   3.297  -0.367   5.387  0.0947  0.0099 -0.2938
 1631TIP3    H129088   3.374  -0.334   5.433  0.9709 -3.1027  0.7394
 1631TIP3    H229089   3.234  -0.387   5.457 -1.2820  1.4530 -1.0428
 1632TIP3   OH229090  -2.268   0.640   3.212  0.8636  0.1382  0.3216
 1632TIP3    H129091  -2.320   0.720   3.219 -3.6651 -2.1416 -2.2052
 1632TIP3    H229092  -2.215   0.652   3.133 -1.1849  0.1590 -1.1468
 1633TIP3   OH229093   2.433  -3.278   2.999 -0.1832  0.0183  0.0843
 1633TIP3    H129094   2.468  -3.341   3.063 -1.5211  0.4087  1.2468
 1633TIP3    H229095   2.460  -3.193   3.032  2.5150  0.1197 -2.0324
 1634TIP3   OH229096  -0.165  -0.037   4.893 -0.6630  0.3106  0.1840
 1634TIP3    H129097  -0.121  -0.089   4.960 -0.4758 -0.4389 -0.5014
 1634TIP3    H229098  -0.150   0.054   4.920 -0.0078  0.0361  0.7897
 1635TIP3   OH229099   0.690  -1.258   5.739 -0.7408 -0.8149  0.3396
 1635TIP3    H129100   0.701  -1.204   5.817 -1.0165 -0.4556  0.1326
 1635TIP3    H229101   0.687  -1.196   5.666  2.2145 -1.2579 -0.2719
 1636TIP3   OH229102  -2.971  -1.445   3.326  0.3099  0.6955  0.4502
 1636TIP3    H129103  -2.924  -1.489   3.256 -1.4527  0.0831 -0.4062
 1636TIP3    H229104  -2.998  -1.516   3.385 -1.1150  0.7942 -0.0564
 1637TIP3   OH229105  -2.175   2.286   4.928  0.9841 -0.3741 -0.0607
 1637TIP3    H129106  -2.166   2.230   4.851 -0.1753  1.0865 -1.3290
 1637TIP3    H229107  -2.152   2.374   4.897 -1.0074  0.5223  0.8332
 1638TIP3   OH229108   1.622   0.706   1.903 -0.1260 -0.4416  0.2883
 1638TIP3    H129109   1.556   0.774   1.889  0.1719 -0.2053  0.0225
 1638TIP3    H229110   1.685   0.719   1.833 -1.2733 -2.4761 -1.2178
 1639TIP3   OH229111  -0.703   1.986   3.224 -0.3834  0.1275 -0.3736
 1639TIP3    H129112  -0.628   2.033   3.260 -1.5109  0.5235  1.6301
 1639TIP3    H229113  -0.775   2.050   3.227 -1.1456 -0.6867 -0.8137
 1640TIP3   OH229114  -2.305  -2.866   4.104  0.1534 -0.5341  0.1022
 1640TIP3    H129115  -2.239  -2.889   4.039 -0.3746  0.4060 -0.8109
 1640TIP3    H229116  -2.342  -2.950   4.132 -0.1983 -0.9449 -1.4813
 1641TIP3   OH229117   3.243  -0.178   3.647  0.3011  0.3566 -0.0368
 1641TIP3    H129118   3.280  -0.140   3.727 -0.2537 -2.8526  1.9033
 1641TIP3    H229119   3.320  -0.197   3.593  0.9340  0.1681  0.8924
 1642TIP3   OH229120   0.562   1.674   4.636 -1.1164 -0.3770 -0.7980
 1642TIP3    H129121   0.620   1.624   4.578 -0.8423 -1.1184  0.0950
 1642TIP3    H229122   0.611   1.682   4.718 -1.4445  0.7814 -0.6918
 1643TIP3   OH229123   1.148  -1.414   5.278  0.1613 -0.3223 -0.0808
 1643TIP3    H129124   1.058  -1.426   5.308 -0.6827 -0.1619 -2.3382
 1643TIP3    H229125   1.147  -1.444   5.187  2.9913 -2.5977  0.5083
 1644TIP3   OH229126  -1.430  -2.429   3.667 -0.3632 -0.0953  0.1825
 1644TIP3    H129127  -1.479  -2.483   3.605 -0.5869 -0.0258  0.2936
 1644TIP3    H229128  -1.483  -2.349   3.675 -0.8827 -0.5232  1.2374
 1645TIP3   OH229129  -2.443  -2.987   5.452  0.5187  0.1866  0.5354
 1645TIP3    H129130  -2.445  -2.893   5.468  0.0450  0.5451 -1.3966
 1645TIP3    H229131  -2.371  -3.000   5.391 -1.5061 -0.1566 -1.9604
 1646TIP3   OH229132  -1.772  -0.759   3.357  0.1110  0.5444  0.0522
 1646TIP3    H129133  -1.721  -0.681   3.379  0.3748  0.6016 -0.7310
 1646TIP3    H229134  -1.847  -0.757   3.417 -0.6384  2.1421 -0.8899
 1647TIP3   OH229135  -2.653  -0.866   5.679  0.0018 -0.6304  0.1618
 1647TIP3    H129136  -2.715  -0.939   5.680 -0.2475 -0.6034 -3.0685
 1647TIP3    H229137  -2.696  -0.798   5.730 -1.6249 -1.3799 -0.1382
 1648TIP3   OH229138  -1.829   3.248   2.181  0.5234 -0.6238 -0.7771
 1648TIP3    H129139  -1.815   3.190   2.107 -2.5036 -1.6804 -0.6504
 1648TIP3    H229140  -1.765   3.220   2.246 -0.3396 -3.3954 -1.0134
 1649TIP3   OH229141   2.492  -1.603   3.736  0.5126 -0.3043  0.3077
 1649TIP3    H129142   2.486  -1.673   3.672  0.5294 -0.0850  0.0654
 1649TIP3    H229143   2.566  -1.550   3.707  2.2391 -1.6575  1.9513
 1650TIP3   OH229144   2.538  -2.140   4.108  0.5705 -0.1428  0.2510
 1650TIP3    H129145   2.585  -2.058   4.124  0.4058 -0.1360  0.7130
 1650TIP3    H229146   2.600  -2.195   4.061  1.2024 -0.2990  1.2409
 1651TIP3   OH229147   0.358  -0.984   3.521  0.5731 -0.2274  0.0835
 1651TIP3    H129148   0.308  -1.054   3.478  1.2245 -0.2417 -0.6812
 1651TIP3    H229149   0.331  -0.904   3.476  1.3149 -0.2510 -0.4073
 1652TIP3   OH229150   1.814   1.434   5.744  0.2899 -0.5260  0.5034
 1652TIP3    H129151   1.754   1.414   5.673  0.7878  1.3261 -0.5096
 1652TIP3    H229152   1.782   1.518   5.779  1.7473  0.0498  0.5133
 1653TIP3   OH229153  -2.891   1.959   4.966 -0.2603 -0.4417 -0.1860
 1653TIP3    H129154  -2.957   2.025   4.945  0.5927  0.9895  1.3615
 1653TIP3    H229155  -2.936   1.898   5.025 -0.8771 -0.9075 -1.1241
 1654TIP3   OH229156   0.716  -2.677   3.417  0.2532 -0.3041  0.3111
 1654TIP3    H129157   0.748  -2.735   3.348  0.1471 -0.8802  0.7462
 1654TIP3    H229158   0.644  -2.725   3.458 -0.5202  0.5564  0.0062
 1655TIP3   OH229159  -2.670   2.988   3.712  0.5925 -0.3178 -0.5039
 1655TIP3    H129160  -2.710   3.041   3.643  0.9622 -1.0083 -1.2628
 1655TIP3    H229161  -2.743   2.938   3.748  0.7798 -1.9856 -2.2523
 1656TIP3   OH229162  -2.013  -2.238   4.231 -0.0902 -0.0304  0.1400
 1656TIP3    H129163  -2.014  -2.217   4.325  0.5440  2.6867 -0.3742
 1656TIP3    H229164  -2.099  -2.276   4.214 -0.7775  0.8082  1.5640
 1657TIP3   OH229165   2.888  -0.114   5.599  0.0084  0.6930  0.6265
 1657TIP3    H129166   2.932  -0.173   5.661  0.6452  0.1805 -0.2873
 1657TIP3    H229167   2.936  -0.032   5.606  0.1527  0.6015  0.7285
 1658TIP3   OH229168  -1.118  -1.634   3.276  0.1006  0.1273 -0.1672
 1658TIP3    H129169  -1.111  -1.664   3.186  1.3485 -1.9068  0.5342
 1658TIP3    H229170  -1.207  -1.600   3.283 -0.7485 -1.6365 -1.6214
 1659TIP3   OH229171   0.740  -0.388   2.382  0.0107  0.4271 -0.1588
 1659TIP3    H129172   0.791  -0.339   2.317  0.3882  0.2179 -0.0234
 1659TIP3    H229173   0.649  -0.373   2.358  0.1214  1.2251 -0.1054
 1660TIP3   OH229174  -2.614  -2.366   3.673 -0.3678 -0.5608 -0.2262
 1660TIP3    H129175  -2.585  -2.438   3.616  0.6712 -0.5659  0.2982
 1660TIP3    H229176  -2.599  -2.287   3.621  2.3533 -0.3946  0.6500
 1661TIP3   OH229177   2.434  -1.942   3.614  0.1564  0.7784 -0.0630
 1661TIP3    H129178   2.464  -2.022   3.658  0.3589  0.5580 -0.5955
 1661TIP3    H229179   2.366  -1.907   3.672 -0.5803 -0.2740 -0.2696
 1662TIP3   OH229180   3.203  -2.867   4.805  0.5163 -0.0857 -0.6062
 1662TIP3    H129181   3.127  -2.808   4.807  0.5510 -0.0386  1.4887
 1662TIP3    H229182   3.176  -2.939   4.749 -1.3733 -0.4111  0.6307
 1663TIP3   OH229183  -2.654   1.409   5.787 -0.5236 -0.4786  0.3368
 1663TIP3    H129184  -2.728   1.463   5.761 -0.3838  0.2337  1.3605
 1663TIP3    H229185  -2.578   1.467   5.778 -0.3560 -0.5304  1.3379
 1664TIP3   OH229186   0.838   1.027   3.397 -0.3375 -0.0153  0.5325
 1664TIP3    H129187   0.853   1.101   3.337  0.0267  0.6144  1.3813
 1664TIP3    H229188   0.806   1.067   3.477 -3.8617 -1.0834 -0.1689
 1665TIP3   OH229189   2.644   1.597   3.166  0.4140  0.1884 -0.3831
 1665TIP3    H129190   2.736   1.594   3.140 -0.0611 -0.2876 -2.1322
 1665TIP3    H229191   2.604   1.661   3.108 -0.6662 -0.7470 -0.7196
 1666TIP3   OH229192   2.610   2.227   4.927  0.1734 -0.0156  0.3169
 1666TIP3    H129193   2.610   2.253   4.835 -1.9974 -2.3216 -0.4452
 1666TIP3    H229194   2.702   2.233   4.953  0.8468  0.7162 -1.9948
 1667TIP3   OH229195  -1.114  -0.977   2.781  0.0309 -0.2441  0.1746
 1667TIP3    H129196  -1.157  -0.976   2.866  0.6280  0.3857  0.4765
 1667TIP3    H229197  -1.187  -0.977   2.718 -0.4086 -1.0983  0.6749
 1668TIP3   OH229198  -1.064   0.629   3.406  0.1790  0.1426 -0.6212
 1668TIP3    H129199  -0.999   0.559   3.400  0.0852  0.0956 -1.1283
 1668TIP3    H229200  -1.121   0.616   3.330  0.2025  0.8178 -0.7599
 1669TIP3   OH229201   0.195   2.391   4.195  0.0131  0.1554  0.5746
 1669TIP3    H129202   0.195   2.296   4.209  0.0477 -0.1469 -1.2173
 1669TIP3    H229203   0.260   2.424   4.257  1.3658 -1.2171 -0.0635
 1670TIP3   OH229204   0.990   1.720   3.622  1.0656 -0.0049  0.3565
 1670TIP3    H129205   1.071   1.704   3.572  1.2110  0.7247  0.3406
 1670TIP3    H229206   0.995   1.813   3.645 -0.2176  0.2934 -0.4664
 1671TIP3   OH229207   0.524  -1.651   5.395  0.2244 -0.0151  0.0728
 1671TIP3    H129208   0.617  -1.676   5.395  0.5397  1.1185 -0.4500
 1671TIP3    H229209   0.521  -1.571   5.448 -0.3965  0.1533 -0.2109
 1672TIP3   OH229210   3.350   1.819   3.181 -0.0416 -0.1831 -0.3361
 1672TIP3    H129211   3.409   1.746   3.165  0.7814  0.3989 -0.0182
 1672TIP3    H229212   3.407   1.892   3.205 -0.9193  0.2134  0.6592
 1673TIP3   OH229213   0.766   0.672   3.114 -0.4896  0.1066  0.7315
 1673TIP3    H129214   0.679   0.711   3.111 -0.8427 -0.5861  1.5751
 1673TIP3    H229215   0.755   0.593   3.167  1.0472  1.0242  2.5070
 1674TIP3   OH229216  -1.324  -0.103   5.195 -0.5110  0.6331  0.5704
 1674TIP3    H129217  -1.353  -0.195   5.191 -2.3812  1.2199 -0.6098
 1674TIP3    H229218  -1.313  -0.078   5.104  0.5415  1.4535  0.9068
 1675TIP3   OH229219   2.812   1.811   4.871  0.6206 -0.6589 -0.1214
 1675TIP3    H129220   2.821   1.735   4.813 -0.8826  0.0207 -1.3259
 1675TIP3    H229221   2.718   1.818   4.887  0.5039  1.8103 -1.3251
 1676TIP3   OH229222  -2.098   1.589   5.092 -0.0235  0.1053 -0.0848
 1676TIP3    H129223  -2.109   1.641   5.172  2.6790  0.4818  0.1195
 1676TIP3    H229224  -2.036   1.521   5.117 -1.4293 -1.6443 -1.1106
 1677TIP3   OH229225   2.109  -1.055   4.572  0.4567  0.1081 -0.3584
 1677TIP3    H129226   2.184  -1.114   4.583  0.8815  0.5121 -1.0014
 1677TIP3    H229227   2.104  -1.008   4.655  1.7895  1.0537 -0.7823
 1678TIP3   OH229228  -2.737  -2.435   5.389 -0.5479 -0.5176  0.6539
 1678TIP3    H129229  -2.818  -2.427   5.440  0.1743  0.8074  1.6515
 1678TIP3    H229230  -2.674  -2.473   5.450  0.5839  1.9283  1.1519
 1679TIP3   OH229231   2.487  -2.739   3.795  0.2586  0.2242  0.1191
 1679TIP3    H129232   2.540  -2.793   3.854 -0.7098 -0.9941 -0.0888
 1679TIP3    H229233   2.517  -2.762   3.708  0.3815  0.6202  0.0541
 1680TIP3   OH229234  -0.533  -3.204   2.515  0.4138  0.3502  0.0972
 1680TIP3    H129235  -0.473  -3.150   2.566 -0.2869  1.7487 -0.4815
 1680TIP3    H229236  -0.583  -3.141   2.463 -2.0582 -0.6501  1.0729
 1681TIP3   OH229237   0.963   3.373   3.234 -0.0041  0.3222 -0.3672
 1681TIP3    H129238   0.947   3.323   3.153  1.0256 -1.3957  0.4281
 1681TIP3    H229239   0.926   3.319   3.303  1.5449  0.4158  0.5845
 1682TIP3   OH229240   0.859   3.349   3.500  0.6309 -0.4212  0.5690
 1682TIP3    H129241   0.920   3.354   3.574 -0.4809  1.4186  1.4173
 1682TIP3    H229242   0.837   3.440   3.481  0.2951 -0.8905 -1.5708
 1683TIP3   OH229243   3.314  -1.989   5.823  0.8484 -0.1868 -0.1304
 1683TIP3    H129244   3.395  -2.030   5.854  0.4466 -0.0688  1.1227
 1683TIP3    H229245   3.343  -1.929   5.754  1.7977 -0.3314  0.1167
 1684TIP3   OH229246   2.761  -1.878   5.835  0.9195 -0.3166 -0.0356
 1684TIP3    H129247   2.745  -1.910   5.924 -0.2904 -0.0868 -0.1559
 1684TIP3    H229248   2.840  -1.924   5.807  0.2571 -1.8245  0.4739
 1685TIP3   OH229249  -2.866   1.855   5.909  0.5823 -0.6261 -0.3473
 1685TIP3    H129250  -2.951   1.895   5.923  0.0823 -1.8766  0.3550
 1685TIP3    H229251  -2.805   1.909   5.958  0.0277 -0.3606  0.0508
 1686TIP3   OH229252  -2.858   2.626   4.419 -0.1228  0.3442  0.4001
 1686TIP3    H129253  -2.864   2.579   4.502 -0.5781 -1.5412 -0.6133
 1686TIP3    H229254  -2.943   2.669   4.409 -1.3625 -2.0690 -0.4654
 1687TIP3   OH229255  -0.243   3.370   2.747  0.3223 -0.1489  0.3865
 1687TIP3    H129256  -0.293   3.350   2.668  0.5138 -2.9550  0.8770
 1687TIP3    H229257  -0.294   3.438   2.792 -0.8724 -0.0155 -1.0981
 1688TIP3   OH229258   1.073  -0.601   2.222 -0.2444  0.0468 -0.4078
 1688TIP3    H129259   0.999  -0.649   2.259 -0.1778 -2.0494 -2.7414
 1688TIP3    H229260   1.150  -0.646   2.255  0.2710  3.0646  3.1570
 1689TIP3   OH229261   0.070   0.466   4.886  0.0952 -0.2124 -0.5066
 1689TIP3    H129262   0.166   0.466   4.888  0.1220 -0.9172 -1.3053
 1689TIP3    H229263   0.047   0.531   4.820  0.0983 -1.6394 -1.9637
 1690TIP3   OH229264   3.309  -2.914   4.303 -0.3888 -0.2358  0.2795
 1690TIP3    H129265   3.299  -2.941   4.212  1.0498  1.8997 -0.5818
 1690TIP3    H229266   3.303  -2.819   4.302  2.1697  0.0746  1.9828
 1691TIP3   OH229267   2.557   2.167   3.629 -0.1969 -0.1710 -0.6364
 1691TIP3    H129268   2.561   2.140   3.721 -2.1257 -1.9848 -1.0162
 1691TIP3    H229269   2.646   2.154   3.597 -0.2067 -2.9396  0.1481
 1692TIP3   OH229270  -2.162   1.167   2.481 -0.1162 -0.3306  0.0894
 1692TIP3    H129271  -2.067   1.175   2.485 -0.2373  0.9666  1.2108
 1692TIP3    H229272  -2.183   1.173   2.388  0.8908 -0.4524 -0.1503
 1693TIP3   OH229273  -0.838  -0.792   5.405 -0.3989 -0.6293 -0.3381
 1693TIP3    H129274  -0.807  -0.881   5.419  0.8332 -0.1069  0.4038
 1693TIP3    H229275  -0.769  -0.736   5.442  0.2550  0.7176 -3.2961
 1694TIP3   OH229276  -0.926   0.975   4.529 -0.0217 -0.7072  0.2735
 1694TIP3    H129277  -1.019   0.991   4.547 -0.4173 -2.0633 -0.3483
 1694TIP3    H229278  -0.926   0.894   4.478  1.4725 -0.3919 -0.2774
 1695TIP3   OH229279  -0.296   1.399   5.158 -0.1744 -0.0582 -0.1985
 1695TIP3    H129280  -0.355   1.403   5.082  1.6976 -0.7891 -1.7641
 1695TIP3    H229281  -0.241   1.477   5.149 -0.8034  0.5959  1.2348
 1696TIP3   OH229282  -1.586   0.302   5.166 -0.5820 -0.0167  0.5696
 1696TIP3    H129283  -1.562   0.237   5.100  0.3840 -0.1404  1.0295
 1696TIP3    H229284  -1.513   0.303   5.227 -0.6059  1.4673  0.6096
 1697TIP3   OH229285   1.054  -1.039   4.741  0.2151  0.2993 -0.3677
 1697TIP3    H129286   1.099  -0.955   4.738 -0.0597  0.4784  0.2531
 1697TIP3    H229287   1.100  -1.094   4.678 -1.3708  1.7382 -2.9365
 1698TIP3   OH229288   1.166   1.086   2.149 -0.0794 -0.6032 -0.1501
 1698TIP3    H129289   1.087   1.134   2.125 -0.0168  0.0152  0.8374
 1698TIP3    H229290   1.133   1.005   2.189 -0.2516 -0.0650  0.8471
 1699TIP3   OH229291   1.062   0.854   4.166 -0.3366  0.1949 -0.1562
 1699TIP3    H129292   1.077   0.850   4.261 -2.7562  1.2841  0.3725
 1699TIP3    H229293   1.136   0.904   4.132 -0.5519  1.8198  1.5561
 1700TIP3   OH229294  -0.314  -1.302   4.656  0.1946  0.0520  0.5640
 1700TIP3    H129295  -0.361  -1.237   4.605  1.4964 -0.0768 -0.8806
 1700TIP3    H229296  -0.308  -1.265   4.744 -1.3192  0.6962  0.4115
 1701TIP3   OH229297   2.633  -0.538   2.997  0.0909 -0.6043  0.1519
 1701TIP3    H129298   2.545  -0.540   3.036 -0.3324 -0.3389 -0.7718
 1701TIP3    H229299   2.660  -0.446   3.003  0.0078 -0.5547 -0.2070
 1702TIP3   OH229300  -2.190  -1.197   3.521  0.1960  0.0925 -0.0387
 1702TIP3    H129301  -2.192  -1.289   3.497 -1.1466  0.1368 -0.1583
 1702TIP3    H229302  -2.213  -1.150   3.440 -1.2331  0.4011  0.5172
 1703TIP3   OH229303   2.295  -2.454   5.015 -0.2447 -0.3476 -0.0018
 1703TIP3    H129304   2.310  -2.490   4.928  1.7371 -0.8286  0.4849
 1703TIP3    H229305   2.382  -2.452   5.055 -0.9390  0.9713  1.5443
 1704TIP3   OH229306   1.557  -2.171   4.553  0.4140  0.1719  0.4572
 1704TIP3    H129307   1.555  -2.166   4.457 -2.8105  2.6019  0.4624
 1704TIP3    H229308   1.616  -2.101   4.580 -0.8976  1.4268  0.1828
 1705TIP3   OH229309   1.731  -2.495   4.980  0.1698 -0.5604 -0.1187
 1705TIP3    H129310   1.775  -2.580   4.977 -0.5115 -0.9247  0.0824
 1705TIP3    H229311   1.743  -2.465   5.070  0.4950 -0.3884 -0.2140
 1706TIP3   OH229312  -1.602   0.344   3.947  0.1175 -0.3298 -0.0774
 1706TIP3    H129313  -1.534   0.387   4.001  0.7044  0.8510 -1.6766
 1706TIP3    H229314  -1.664   0.414   3.927 -0.5963 -0.9771 -0.1754
 1707TIP3   OH229315  -1.204   1.783   4.087  0.2579 -0.2514  0.5495
 1707TIP3    H129316  -1.286   1.764   4.134  0.6515 -1.7824  0.6563
 1707TIP3    H229317  -1.228   1.778   3.995 -0.3890  2.2108  0.4943
 1708TIP3   OH229318   3.136   1.191   4.668  0.2549 -0.0414  0.1728
 1708TIP3    H129319   3.201   1.171   4.735 -1.2725 -1.0489  1.4404
 1708TIP3    H229320   3.162   1.138   4.593  1.6524  0.6271  0.1631
 1709TIP3   OH229321   1.989  -2.805   5.586  0.0849 -0.1503  0.1790
 1709TIP3    H129322   1.947  -2.843   5.663  0.6695  0.5114  0.8475
 1709TIP3    H229323   1.983  -2.711   5.599  2.1806 -0.0111  0.5758
 1710TIP3   OH229324  -3.311   2.777   4.997 -0.1509  0.0612  0.1723
 1710TIP3    H129325  -3.399   2.811   4.983 -0.2552 -0.6300 -1.0212
 1710TIP3    H229326  -3.292   2.726   4.918  0.5018 -1.5414  1.3056
 1711TIP3   OH229327   3.047  -1.886   4.662  0.1722  0.4121  0.0494
 1711TIP3    H129328   2.990  -1.858   4.590 -0.4141  1.1727  0.7804
 1711TIP3    H229329   3.039  -1.816   4.727  0.9574 -0.0941  0.7077
 1712TIP3   OH229330  -0.504  -1.817   4.976 -0.3959 -0.2148 -0.3940
 1712TIP3    H129331  -0.450  -1.753   5.024  1.2555  0.1439 -2.5976
 1712TIP3    H229332  -0.594  -1.790   4.994  0.1974  1.0453  0.9284
 1713TIP3   OH229333  -0.896  -0.233   2.938 -0.1216 -0.3568 -0.5595
 1713TIP3    H129334  -0.986  -0.206   2.956  0.1038 -0.6351  1.1415
 1713TIP3    H229335  -0.899  -0.328   2.942  0.5421 -0.3309  1.1864
 1714TIP3   OH229336   3.265   2.926   3.657  0.8738  0.1408  0.3918
 1714TIP3    H129337   3.277   2.854   3.719 -0.8435 -0.7235 -0.2051
 1714TIP3    H229338   3.187   2.971   3.688  0.4718  0.1944 -0.6834
 1715TIP3   OH229339  -0.552   1.431   5.334  0.0082 -0.1891 -0.3227
 1715TIP3    H129340  -0.600   1.497   5.285 -0.2188 -0.0392  0.0977
 1715TIP3    H229341  -0.460   1.449   5.315 -0.0988 -0.8258 -1.5877
 1716TIP3   OH229342  -3.095  -0.564   1.805 -0.1022 -0.2600  0.2101
 1716TIP3    H129343  -3.010  -0.524   1.823 -0.4418  0.2777  0.6567
 1716TIP3    H229344  -3.159  -0.499   1.835 -0.6771 -0.4253 -0.6019
 1717TIP3   OH229345   1.889  -0.385   5.544  0.2828  0.1279 -0.2720
 1717TIP3    H129346   1.946  -0.327   5.493 -1.9847  1.6316 -1.2729
 1717TIP3    H229347   1.841  -0.325   5.602 -0.9389 -0.9441 -0.1371
 1718TIP3   OH229348  -1.654  -0.245   3.126 -0.0803 -0.2033 -0.0148
 1718TIP3    H129349  -1.634  -0.333   3.094 -0.2307 -0.4631  0.5843
 1718TIP3    H229350  -1.682  -0.259   3.217 -0.2710  0.4452  0.0288
 1719TIP3   OH229351  -0.902  -1.745   2.433 -0.5558 -0.3641  0.6925
 1719TIP3    H129352  -0.955  -1.705   2.502 -0.7670  2.3570 -0.8823
 1719TIP3    H229353  -0.813  -1.713   2.449 -0.6244  0.3847 -0.2971
 1720TIP3   OH229354  -1.176   1.064   4.600  0.7605  0.7520  0.3894
 1720TIP3    H129355  -1.207   1.144   4.643  0.2438  0.8927 -0.2211
 1720TIP3    H229356  -1.246   1.042   4.538  1.1664  0.1577  0.1321
 1721TIP3   OH229357   1.136   3.267   3.668 -0.5844  0.0797  0.1028
 1721TIP3    H129358   1.142   3.189   3.613 -0.0150  1.4086 -1.7974
 1721TIP3    H229359   1.100   3.235   3.751  1.9248 -2.6469  0.3155
 1722TIP3   OH229360   2.423  -1.289   3.392  0.6310  0.0797  0.1595
 1722TIP3    H129361   2.378  -1.310   3.310  0.9770 -1.5125  0.3616
 1722TIP3    H229362   2.434  -1.373   3.437  2.6179  0.5754  0.7220
 1723TIP3   OH229363   1.083  -0.247   4.426  0.3604 -0.2831 -0.3910
 1723TIP3    H129364   1.165  -0.235   4.475  0.0902  1.4364 -0.2830
 1723TIP3    H229365   1.106  -0.223   4.336 -0.0250  0.2493 -0.3500
 1724TIP3   OH229366  -2.494   0.586   5.891 -0.7211 -0.1126 -0.5586
 1724TIP3    H129367  -2.453   0.608   5.975  0.3010 -0.0665 -1.0518
 1724TIP3    H229368  -2.513   0.670   5.850  1.0977 -0.0785 -1.4457
 1725TIP3   OH229369  -2.471   1.294   3.149 -0.1811 -0.2566 -0.2897
 1725TIP3    H129370  -2.517   1.211   3.143 -0.9686  0.2486 -2.6366
 1725TIP3    H229371  -2.385   1.276   3.111 -1.2007  0.4424 -3.1995
 1726TIP3   OH229372  -2.021   2.213   5.591 -0.3268  0.5521 -0.5663
 1726TIP3    H129373  -2.062   2.141   5.640 -3.2960  0.7763 -2.4508
 1726TIP3    H229374  -1.950   2.172   5.542 -1.0206 -0.8293 -0.4636
 1727TIP3   OH229375   1.294   2.008   4.753  0.3635  0.4487  0.0378
 1727TIP3    H129376   1.331   2.007   4.665  0.0659  2.4160 -0.1732
 1727TIP3    H229377   1.366   1.981   4.810  0.7173 -0.3175 -0.7511
 1728TIP3   OH229378   3.225  -0.983   4.260 -0.4775 -0.2271 -0.8264
 1728TIP3    H129379   3.273  -0.900   4.252  1.1035 -0.8940  0.9887
 1728TIP3    H229380   3.168  -0.970   4.336 -1.4732 -0.2552 -1.5576
 1729TIP3   OH229381  -1.410   1.598   4.062  0.1340 -0.3578 -0.7176
 1729TIP3    H129382  -1.442   1.678   4.020 -0.4545 -0.2108 -0.0017
 1729TIP3    H229383  -1.368   1.550   3.991  0.5486  0.6039 -1.1508
 1730TIP3   OH229384  -2.518  -1.643   4.256  0.0729 -0.3372  0.6569
 1730TIP3    H129385  -2.603  -1.612   4.286 -0.3232 -1.2988  0.5291
 1730TIP3    H229386  -2.507  -1.602   4.170  0.3292  0.8100  1.2018
 1731TIP3   OH229387   1.044   0.730   3.153  0.3651  0.4927 -0.2638
 1731TIP3    H129388   1.057   0.787   3.228  0.2509 -0.0787  0.1916
 1731TIP3    H229389   0.949   0.724   3.143  0.3596 -0.1996  0.1432
 1732TIP3   OH229390   2.205   3.151   2.442  0.4697  0.3147 -0.4844
 1732TIP3    H129391   2.223   3.245   2.439  0.1741  0.3548 -1.3515
 1732TIP3    H229392   2.132   3.139   2.381 -0.9371 -0.1569  1.2053
 1733TIP3   OH229393  -0.856  -0.388   3.763 -1.1417 -0.5640  0.0062
 1733TIP3    H129394  -0.875  -0.429   3.848  1.5642 -1.7607  0.1206
 1733TIP3    H229395  -0.788  -0.443   3.724 -2.2141  0.0145 -2.9428
 1734TIP3   OH229396  -0.252   2.784   3.407 -0.3375  0.5470 -0.6805
 1734TIP3    H129397  -0.177   2.756   3.460 -0.4819 -0.9675 -1.2408
 1734TIP3    H229398  -0.328   2.754   3.456 -0.5039  0.0982 -1.2044
 1735TIP3   OH229399  -0.737  -0.795   2.241 -0.0085 -0.7239  0.2144
 1735TIP3    H129400  -0.668  -0.818   2.178 -0.2714  0.8209 -0.6813
 1735TIP3    H229401  -0.796  -0.870   2.240  0.3729 -1.0298 -0.8737
 1736TIP3   OH229402  -1.922  -0.461   4.908 -0.2804 -0.1804  0.2885
 1736TIP3    H129403  -1.922  -0.501   4.821 -0.6124 -1.1584  0.7219
 1736TIP3    H229404  -1.975  -0.382   4.898  0.3429  0.1331 -0.5760
 1737TIP3   OH229405   1.849  -2.110   4.117 -0.0690  0.2121  0.1699
 1737TIP3    H129406   1.869  -2.202   4.132  0.3658  0.1117 -0.9313
 1737TIP3    H229407   1.892  -2.089   4.034 -1.6393  0.9358 -0.5037
 1738TIP3   OH229408  -2.530  -2.855   4.453  0.2340  0.0728 -0.0494
 1738TIP3    H129409  -2.487  -2.940   4.462  0.5421  0.2135 -0.1847
 1738TIP3    H229410  -2.622  -2.873   4.471  0.6342  0.1293  2.3409
 1739TIP3   OH229411   2.626  -3.067   4.730 -0.2012 -0.8710  0.4552
 1739TIP3    H129412   2.564  -3.103   4.792 -2.5166 -0.6626 -1.5751
 1739TIP3    H229413   2.621  -2.972   4.743  0.1574 -0.8819  0.6867
 1740TIP3   OH229414  -1.736   2.858   3.973  0.0354 -0.2859 -0.6954
 1740TIP3    H129415  -1.710   2.950   3.976 -0.5928 -0.1177  0.9279
 1740TIP3    H229416  -1.806   2.854   3.909  1.6237 -0.1063 -2.5371
 1741TIP3   OH229417   0.705   1.087   5.955  0.0013  0.4409  0.4533
 1741TIP3    H129418   0.801   1.085   5.952  0.0152  1.4188 -0.0208
 1741TIP3    H229419   0.679   1.129   5.873 -0.6876  3.0659  1.8945
 1742TIP3   OH229420   0.111   3.256   3.239 -0.1500  0.1567  0.0911
 1742TIP3    H129421   0.193   3.279   3.284 -0.2335 -0.5905  0.6558
 1742TIP3    H229422   0.055   3.333   3.248 -0.3921 -0.1914  1.8258
 1743TIP3   OH229423  -3.264   3.003   5.602 -1.0016  0.0473 -0.8440
 1743TIP3    H129424  -3.306   2.983   5.518 -0.0825 -2.3064 -0.8361
 1743TIP3    H229425  -3.170   2.989   5.586 -0.6806  0.7833  0.2651
 1744TIP3   OH229426  -0.865   1.616   3.807  0.0918 -0.1785 -0.2158
 1744TIP3    H129427  -0.915   1.677   3.753 -0.6528  1.0658  1.7501
 1744TIP3    H229428  -0.774   1.630   3.784 -0.1748  0.7762 -0.6904
 1745TIP3   OH229429   0.224  -2.789   5.411  0.5577 -0.5042 -0.2564
 1745TIP3    H129430   0.138  -2.822   5.384  0.3534 -0.3689  0.2254
 1745TIP3    H229431   0.258  -2.855   5.470  1.1015 -0.9048 -1.0083
 1746TIP3   OH229432  -1.128  -3.207   2.809  0.0320  0.2661  0.0046
 1746TIP3    H129433  -1.128  -3.299   2.834  1.2887  0.0509 -0.7338
 1746TIP3    H229434  -1.109  -3.207   2.715 -1.2582  1.2215 -0.2831
 1747TIP3   OH229435  -2.674  -1.268   4.773  0.1963  0.6995  0.1123
 1747TIP3    H129436  -2.705  -1.198   4.715  0.4108 -1.6596 -3.1750
 1747TIP3    H229437  -2.589  -1.292   4.736  0.0578 -1.3719  1.0475
 1748TIP3   OH229438  -0.726   0.230   4.328  0.1025 -0.4058 -0.8660
 1748TIP3    H129439  -0.718   0.255   4.236  0.9652  0.3310 -0.6025
 1748TIP3    H229440  -0.711   0.311   4.377  3.5789 -1.4285  0.0492
 1749TIP3   OH229441  -0.034   2.304   4.435  0.2230 -0.1574  0.8170
 1749TIP3    H129442   0.058   2.280   4.437  0.0468 -0.9106  0.2212
 1749TIP3    H229443  -0.072   2.250   4.366 -0.7976 -0.3269  1.4860
 1750TIP3   OH229444   1.380   1.673   6.042  0.2605  0.1101  0.5601
 1750TIP3    H129445   1.466   1.689   6.003  0.2588  0.9003  0.8471
 1750TIP3    H229446   1.383   1.721   6.126  0.1000 -1.1652  1.3164
 1751TIP3   OH229447  -2.465  -3.232   3.083 -0.0635 -0.3140  0.1784
 1751TIP3    H129448  -2.495  -3.322   3.094 -0.8142 -0.1712 -0.6362
 1751TIP3    H229449  -2.459  -3.219   2.989 -2.2310  1.1914  0.1635
 1752TIP3   OH229450   0.906  -0.821   3.269  0.0088  0.6866 -0.4061
 1752TIP3    H129451   0.930  -0.792   3.357  0.7654  2.0641 -1.0338
 1752TIP3    H229452   0.836  -0.761   3.242 -0.4482  0.0630 -0.6164
 1753TIP3   OH229453   1.897   1.315   2.356 -0.0124  0.4717 -0.0355
 1753TIP3    H129454   1.928   1.240   2.304  0.8694 -0.0765  1.2334
 1753TIP3    H229455   1.827   1.353   2.303  0.0482 -0.7809 -1.0712
 1754TIP3   OH229456  -1.329   1.992   5.019 -0.0018  0.2793  0.5309
 1754TIP3    H129457  -1.385   1.950   5.084 -0.2350 -0.0879  0.1026
 1754TIP3    H229458  -1.381   1.992   4.939  0.8937 -0.8139 -0.0943
 1755TIP3   OH229459  -2.843   0.707   3.319  0.0422  0.6145  0.2944
 1755TIP3    H129460  -2.832   0.626   3.269 -1.4042  0.9912 -0.7152
 1755TIP3    H229461  -2.905   0.684   3.388  1.1311  0.3945  1.2213
 1756TIP3   OH229462  -3.074   0.176   3.700  0.3109 -0.0709 -0.0233
 1756TIP3    H129463  -3.154   0.216   3.735 -0.6305 -2.3215  0.5410
 1756TIP3    H229464  -3.103   0.130   3.621  1.6006  1.3047 -1.3717
 1757TIP3   OH229465  -0.064  -0.686   5.687  0.4312  0.1687 -0.4238
 1757TIP3    H129466  -0.098  -0.692   5.776  2.0890  1.0134  0.3218
 1757TIP3    H229467  -0.020  -0.770   5.672 -0.9557 -0.4833 -0.9678
 1758TIP3   OH229468  -2.761  -2.269   3.173 -0.2753  0.9507  0.2131
 1758TIP3    H129469  -2.769  -2.176   3.153  0.6116  0.5517 -2.3348
 1758TIP3    H229470  -2.830  -2.310   3.121  0.2286  0.0712  0.2250
 1759TIP3   OH229471   2.609   2.780   3.288  0.1281  0.2166  0.0364
 1759TIP3    H129472   2.682   2.732   3.250 -0.0222 -0.3112  0.4052
 1759TIP3    H229473   2.532   2.749   3.240 -0.0277 -0.2577  0.5754
 1760TIP3   OH229474   2.917  -1.761   2.564  0.5130  0.2270  0.6912
 1760TIP3    H129475   2.846  -1.808   2.520  1.1621 -0.9323  0.8519
 1760TIP3    H229476   2.986  -1.826   2.575  1.2334  1.0846  1.4111
 1761TIP3   OH229477  -1.912  -1.422   4.985 -0.2434 -0.2374  0.0075
 1761TIP3    H129478  -1.911  -1.511   5.019  1.7032 -0.2905 -0.0635
 1761TIP3    H229479  -1.820  -1.394   4.987 -0.6675  1.3932 -0.9420
 1762TIP3   OH229480  -0.750  -3.027   4.043 -0.3447  0.0446 -0.8314
 1762TIP3    H129481  -0.785  -3.076   3.968 -0.7566 -2.8846  1.0996
 1762TIP3    H229482  -0.823  -3.023   4.104  0.9584 -0.8979  0.8668
 1763TIP3   OH229483  -3.050  -0.447   4.991  0.1520 -0.1471 -0.4965
 1763TIP3    H129484  -3.107  -0.433   4.915 -1.4414 -3.4796 -0.1207
 1763TIP3    H229485  -3.105  -0.423   5.066  0.9069  0.9359 -0.2725
 1764TIP3   OH229486  -0.655   0.004   2.567  0.6429  0.0776  0.5062
 1764TIP3    H129487  -0.680   0.031   2.478  0.3959  0.9508  0.8335
 1764TIP3    H229488  -0.738  -0.012   2.611  0.7776 -0.8486  0.4404
 1765TIP3   OH229489   0.654  -0.303   4.848  0.3997 -0.1076  0.2173
 1765TIP3    H129490   0.566  -0.339   4.857  0.0264  0.4651 -0.9115
 1765TIP3    H229491   0.680  -0.325   4.758  1.2031  0.1700  0.3746
 1766TIP3   OH229492  -2.897  -0.695   5.282  0.6513  0.4037  0.3851
 1766TIP3    H129493  -2.823  -0.732   5.331  0.1930  0.8728  1.4700
 1766TIP3    H229494  -2.896  -0.742   5.198  1.5544 -0.3125  0.7738
 1767TIP3   OH229495   2.581   0.760   3.219  0.2797  0.5281  0.4276
 1767TIP3    H129496   2.560   0.667   3.231 -0.4684  0.8732  2.0737
 1767TIP3    H229497   2.649   0.777   3.284  2.3293  0.5700 -1.6159
 1768TIP3   OH229498  -0.561  -0.500   4.893 -0.1163  0.0003  0.3092
 1768TIP3    H129499  -0.541  -0.502   4.986  1.2340 -0.1345  0.0374
 1768TIP3    H229500  -0.478  -0.477   4.851 -1.2365  2.6840 -0.6948
 1769TIP3   OH229501   2.002   0.637   4.062 -0.3540  0.1059 -0.5577
 1769TIP3    H129502   1.929   0.694   4.039 -0.7629 -0.7612 -1.4551
 1769TIP3    H229503   2.076   0.698   4.073 -1.3344  1.0676  1.1074
 1770TIP3   OH229504  -1.696   1.760   3.062 -0.0170 -0.6792  0.2256
 1770TIP3    H129505  -1.720   1.743   3.153 -0.3482  0.2708  0.3204
 1770TIP3    H229506  -1.637   1.687   3.039 -0.6717 -1.4360  0.8922
 1771TIP3   OH229507  -0.769   0.490   3.874  0.1227 -0.5648  0.1724
 1771TIP3    H129508  -0.724   0.471   3.792 -1.2092  2.1202 -1.2859
 1771TIP3    H229509  -0.739   0.578   3.898 -1.0165 -0.4990  1.4936
 1772TIP3   OH229510  -1.981  -1.958   5.565 -0.4790  0.0062  0.3815
 1772TIP3    H129511  -2.013  -1.907   5.490  0.4237  1.2480  0.7969
 1772TIP3    H229512  -2.038  -1.933   5.637  0.4630  1.1236  0.7814
 1773TIP3   OH229513  -0.902  -1.638   4.254 -0.3464  0.9249 -0.1760
 1773TIP3    H129514  -0.864  -1.720   4.221  0.1237  1.4546 -0.9939
 1773TIP3    H229515  -0.836  -1.572   4.234 -0.3053  1.3648  1.3536
 1774TIP3   OH229516  -2.612  -2.304   4.574 -0.4787  0.2428 -0.2709
 1774TIP3    H129517  -2.685  -2.292   4.513 -1.1882  3.1207  0.9864
 1774TIP3    H229518  -2.647  -2.361   4.643 -2.1536  2.6804  1.0507
 1775TIP3   OH229519  -0.683   1.910   3.581 -0.0378 -0.1574 -0.3090
 1775TIP3    H129520  -0.645   1.843   3.638  0.7656  0.3434 -0.2425
 1775TIP3    H229521  -0.751   1.864   3.532  0.8390 -1.1455 -0.6296
 1776TIP3   OH229522  -1.834   3.081   2.895  0.1021 -0.4993  0.3316
 1776TIP3    H129523  -1.855   2.988   2.902 -0.7588 -0.2370  1.4876
 1776TIP3    H229524  -1.901   3.117   2.837 -0.4570 -0.3420  1.0621
 1777TIP3   OH229525   1.145   2.364   4.502 -0.0091 -0.1707  0.7522
 1777TIP3    H129526   1.202   2.375   4.426 -2.0964  2.1816 -0.6445
 1777TIP3    H229527   1.076   2.305   4.471 -1.3116  1.4339  0.4458
 1778TIP3   OH229528   1.699   2.060   4.634 -0.4335  0.4303 -0.1091
 1778TIP3    H129529   1.755   2.016   4.570  0.0140  0.2574  0.3971
 1778TIP3    H229530   1.745   2.143   4.652  1.1682 -0.8823  2.3922
 1779TIP3   OH229531  -1.378  -2.682   5.024  0.0367 -0.3631  0.8252
 1779TIP3    H129532  -1.328  -2.624   5.081  0.3905  0.9897 -0.7824
 1779TIP3    H229533  -1.462  -2.639   5.013  0.4193  0.0767 -0.6493
 1780TIP3   OH229534  -1.650   3.225   4.688 -0.1153 -0.1724  0.0150
 1780TIP3    H129535  -1.721   3.288   4.701 -0.5333 -0.6853  0.2554
 1780TIP3    H229536  -1.613   3.213   4.775 -0.4296 -0.7155  0.0738
 1781TIP3   OH229537   2.587  -0.730   5.045  0.5754  0.7319 -0.3540
 1781TIP3    H129538   2.530  -0.685   4.983  0.1313  0.4371 -0.1609
 1781TIP3    H229539   2.566  -0.692   5.130 -1.4880 -1.3970  0.1882
 1782TIP3   OH229540  -0.414   1.944   3.076 -0.4603 -0.3049 -0.0220
 1782TIP3    H129541  -0.407   1.966   3.169  0.0717 -0.0740 -0.1157
 1782TIP3    H229542  -0.353   1.870   3.065  0.5663  0.5796 -0.4755
 1783TIP3   OH229543  -2.443   3.188   3.463 -0.1974 -0.4384 -0.3741
 1783TIP3    H129544  -2.512   3.228   3.410  0.9977  0.1430 -1.5508
 1783TIP3    H229545  -2.444   3.096   3.439 -3.3004 -1.3833  2.7142
 1784TIP3   OH229546  -2.310  -0.414   4.669  0.2841 -0.0333 -0.5775
 1784TIP3    H129547  -2.257  -0.365   4.732  0.6053 -0.1197 -0.7781
 1784TIP3    H229548  -2.400  -0.406   4.702  0.4255  0.0838 -0.2143
 1785TIP3   OH229549  -3.096   3.038   3.782 -0.3714  0.4549  0.6618
 1785TIP3    H129550  -3.156   3.110   3.764 -0.1659  0.8469  1.4689
 1785TIP3    H229551  -3.038   3.072   3.850  0.7660  0.0777 -0.0962
 1786TIP3   OH229552   1.406   2.372   4.413 -0.0387 -0.2245  0.0386
 1786TIP3    H129553   1.472   2.333   4.471  1.3369 -0.9578 -1.9082
 1786TIP3    H229554   1.367   2.443   4.465  0.5791 -1.2938  2.0923
 1787TIP3   OH229555  -0.005  -0.363   4.469 -0.1960 -0.8577 -0.1675
 1787TIP3    H129556  -0.044  -0.333   4.552  0.2734  1.5516 -0.7548
 1787TIP3    H229557  -0.068  -0.337   4.402  1.1102  0.5911 -0.8779
 1788TIP3   OH229558   1.183   2.795   2.528 -0.1549 -0.4012  0.2070
 1788TIP3    H129559   1.165   2.713   2.574 -1.5397  0.1377  0.6730
 1788TIP3    H229560   1.205   2.768   2.439 -3.8811 -1.2406 -0.6539
 1789TIP3   OH229561   2.515  -2.706   3.306 -0.0414  0.5752  0.5201
 1789TIP3    H129562   2.542  -2.797   3.321  0.3982  0.8288  1.3360
 1789TIP3    H229563   2.581  -2.672   3.246  0.0655  0.4869  0.5852
 1790TIP3   OH229564  -1.175  -2.355   3.620  0.2279 -0.1446  0.2759
 1790TIP3    H129565  -1.263  -2.388   3.640 -0.9730  2.5418 -0.0664
 1790TIP3    H229566  -1.182  -2.324   3.530  1.1919  1.0567  0.5938
 1791TIP3   OH229567  -0.506  -3.302   4.742  0.5115  0.1274 -0.4996
 1791TIP3    H129568  -0.419  -3.277   4.711  0.3093  0.1496 -1.0640
 1791TIP3    H229569  -0.521  -3.389   4.706  0.3302  0.0886 -0.3374
 1792TIP3   OH229570   1.592   2.803   2.620  0.0028  0.1988 -0.2917
 1792TIP3    H129571   1.542   2.829   2.542  0.5714  0.5875 -0.5249
 1792TIP3    H229572   1.683   2.820   2.597  0.1166  1.0601  0.7489
 1793TIP3   OH229573  -3.082   2.599   4.721  0.1773 -0.6639  0.1246
 1793TIP3    H129574  -2.987   2.587   4.717  0.4106  0.7698  0.8891
 1793TIP3    H229575  -3.100   2.668   4.658  0.0708  1.1558  2.0409
 1794TIP3   OH229576  -0.916  -2.612   4.609  0.1548  0.4525 -0.5662
 1794TIP3    H129577  -0.839  -2.661   4.638 -0.5993 -0.7565 -0.5503
 1794TIP3    H229578  -0.942  -2.560   4.685 -1.2352 -1.9603  0.7037
 1795TIP3   OH229579  -1.104  -2.528   2.921  0.2242 -0.1223  0.3697
 1795TIP3    H129580  -1.015  -2.495   2.936  0.1917  0.8514 -1.4059
 1795TIP3    H229581  -1.151  -2.505   3.001  0.8935  1.8302  0.2637
 1796TIP3   OH229582   2.917  -3.120   3.289 -0.6641 -0.0716  0.2853
 1796TIP3    H129583   2.944  -3.143   3.378  0.4630 -2.2737 -0.5482
 1796TIP3    H229584   2.822  -3.129   3.290 -0.4820 -3.2337  0.5829
 1797TIP3   OH229585  -2.486  -1.061   5.351 -0.4962  0.1880 -0.0407
 1797TIP3    H129586  -2.474  -1.035   5.260 -1.7829  2.2881  0.3133
 1797TIP3    H229587  -2.577  -1.092   5.355  0.0838 -1.6129  0.2077
 1798TIP3   OH229588   0.862   1.281   4.280 -0.6675 -0.0691 -0.1906
 1798TIP3    H129589   0.854   1.201   4.229  2.5112 -0.9708  0.4593
 1798TIP3    H229590   0.874   1.350   4.215  0.5078 -0.7742 -0.7644
 1799TIP3   OH229591   0.621   3.370   5.117 -0.0256  0.2463  0.1756
 1799TIP3    H129592   0.566   3.386   5.040  0.4651  2.0988  0.1583
 1799TIP3    H229593   0.669   3.452   5.130  1.9327 -0.9264  0.8494
 1800TIP3   OH229594  -0.407   0.153   3.584  0.0889  0.2120  0.3026
 1800TIP3    H129595  -0.335   0.211   3.558 -1.4108  1.3863 -1.4543
 1800TIP3    H229596  -0.413   0.090   3.512  1.3043 -1.8641  1.9090
 1801TIP3   OH229597   0.385  -2.279   5.474 -0.8542 -0.2312 -0.6334
 1801TIP3    H129598   0.336  -2.361   5.470 -0.9753 -0.1169 -1.8183
 1801TIP3    H229599   0.477  -2.306   5.465 -0.7110 -0.3939  1.0124
 1802TIP3   OH229600   3.333   1.181   3.870 -0.2988 -0.0211 -0.2456
 1802TIP3    H129601   3.337   1.172   3.965 -0.6059 -1.0588 -0.3162
 1802TIP3    H229602   3.313   1.093   3.838  0.3675  0.1932 -1.3126
 1803TIP3   OH229603   0.543   3.098   4.539 -0.3264  0.1726  0.0966
 1803TIP3    H129604   0.453   3.116   4.567 -0.1851 -0.0643  0.7111
 1803TIP3    H229605   0.565   3.015   4.582  0.4824  0.6635  0.6507
 1804TIP3   OH229606  -1.957   1.055   5.096 -0.3336 -0.0223  0.0235
 1804TIP3    H129607  -1.973   0.990   5.027  0.7886 -0.0054 -0.2651
 1804TIP3    H229608  -2.014   1.128   5.074  0.7408  0.4062 -1.4760
 1805TIP3   OH229609  -1.954   3.216   2.667  0.6318 -0.3367 -0.3039
 1805TIP3    H129610  -1.873   3.242   2.621  1.1460 -0.3803  0.5553
 1805TIP3    H229611  -2.021   3.216   2.599  0.5256  3.4549 -0.4223
 1806TIP3   OH229612  -2.027   1.295   3.186  0.7159  0.1177 -0.2753
 1806TIP3    H129613  -1.961   1.317   3.120  1.0567  1.6971  0.5513
 1806TIP3    H229614  -2.091   1.241   3.140  1.7130 -0.0383 -1.5117
 1807TIP3   OH229615   1.109   1.292   3.528  0.4800  0.3416  0.5272
 1807TIP3    H129616   1.066   1.225   3.581  3.6088 -0.8617  1.8247
 1807TIP3    H229617   1.181   1.324   3.583  0.2533  3.4761 -0.7740
 1808TIP3   OH229618  -2.899   0.220   5.129 -0.1639 -0.4709 -0.1100
 1808TIP3    H129619  -2.920   0.312   5.144 -1.7400 -0.8045 -0.1206
 1808TIP3    H229620  -2.926   0.176   5.209 -2.9984 -1.4145 -1.4480
 1809TIP3   OH229621   0.899  -0.889   5.327 -0.3383  0.2271  0.5109
 1809TIP3    H129622   0.812  -0.854   5.347 -0.6088  0.7970 -1.4126
 1809TIP3    H229623   0.944  -0.818   5.282  1.0049 -0.1942  1.1288
 1810TIP3   OH229624   1.731  -2.066   3.728  0.0729 -0.2243 -0.2156
 1810TIP3    H129625   1.795  -2.003   3.760 -0.0824 -1.4064  2.7360
 1810TIP3    H229626   1.783  -2.128   3.676  1.6414 -1.6386  2.7996
 1811TIP3   OH229627   2.902   1.612   4.695 -0.1417 -0.2596 -0.2786
 1811TIP3    H129628   2.858   1.655   4.622 -0.3433 -0.5002 -0.2985
 1811TIP3    H229629   2.912   1.521   4.666  0.8680 -0.0863 -0.5057
 1812TIP3   OH229630  -2.728  -0.408   5.434 -0.4152  0.1369 -0.1297
 1812TIP3    H129631  -2.778  -0.423   5.354 -3.0284  0.9159  1.2657
 1812TIP3    H229632  -2.698  -0.317   5.427 -0.0731  0.0015 -0.4802
 1813TIP3   OH229633   2.598   2.802   2.445  0.1452 -0.1369 -0.1538
 1813TIP3    H129634   2.521   2.755   2.415  0.2830 -0.3078 -0.2396
 1813TIP3    H229635   2.579   2.894   2.425  0.6314 -0.3361 -1.6455
 1814TIP3   OH229636   1.234  -0.759   4.460 -0.6315  0.1527 -0.2579
 1814TIP3    H129637   1.199  -0.691   4.402 -1.4819  1.1006  1.3035
 1814TIP3    H229638   1.321  -0.727   4.485 -0.4796 -0.0010 -0.5824
 1815TIP3   OH229639  -2.136   3.055   5.866 -0.4729 -0.0929  0.1009
 1815TIP3    H129640  -2.058   3.016   5.906  0.7321 -0.0159 -2.0105
 1815TIP3    H229641  -2.102   3.130   5.817 -1.5513 -1.0945 -2.3349
 1816TIP3   OH229642   1.331  -0.149   3.683  0.6323  0.7370  0.0009
 1816TIP3    H129643   1.344  -0.126   3.591 -0.8525 -0.2072 -0.4731
 1816TIP3    H229644   1.277  -0.077   3.717 -2.7518 -1.0578 -1.1084
 1817TIP3   OH229645  -0.789  -2.941   3.362 -0.2414 -0.1795 -0.3013
 1817TIP3    H129646  -0.696  -2.935   3.344  0.4603 -0.2205  2.8445
 1817TIP3    H229647  -0.801  -3.025   3.406 -1.5124  0.3876  0.5171
 1818TIP3   OH229648   3.011   1.978   4.788  0.2172  0.0859  0.2842
 1818TIP3    H129649   2.983   2.051   4.842  0.0976  0.5639 -0.4063
 1818TIP3    H229650   2.934   1.921   4.781  0.3141 -0.1194  0.8313
 1819TIP3   OH229651  -0.787   2.319   5.135  0.0104  0.1130 -0.4788
 1819TIP3    H129652  -0.844   2.244   5.153  0.4985  0.3047  2.3765
 1819TIP3    H229653  -0.761   2.308   5.044 -1.6640 -1.9808 -0.7843
 1820TIP3   OH229654  -2.092  -3.288   4.510  0.1818  0.2274  0.1126
 1820TIP3    H129655  -2.098  -3.382   4.527 -0.3099  0.6220  2.3287
 1820TIP3    H229656  -2.182  -3.260   4.497  0.0391  0.8030  2.0895
 1821TIP3   OH229657  -1.965  -0.556   2.108  0.1875 -0.6490 -0.5443
 1821TIP3    H129658  -2.053  -0.518   2.114  0.1606 -0.8283  0.4672
 1821TIP3    H229659  -1.918  -0.521   2.184  0.7568 -1.1239 -0.6663
 1822TIP3   OH229660   3.161   1.886   2.866 -0.3314 -0.4221 -0.4235
 1822TIP3    H129661   3.111   1.863   2.788 -0.0754  2.1298 -1.4441
 1822TIP3    H229662   3.249   1.851   2.850 -1.2051 -3.4093  0.6168
 1823TIP3   OH229663   0.834   3.190   2.971  0.1763  0.1933  0.0988
 1823TIP3    H129664   0.816   3.106   2.928  0.6425 -0.5876  1.3772
 1823TIP3    H229665   0.880   3.241   2.905 -1.3518 -0.0032 -1.1767
 1824TIP3   OH229666  -0.258   3.080   5.345  0.0286  0.2828  0.0593
 1824TIP3    H129667  -0.213   3.001   5.374  1.7002  1.8139  2.0238
 1824TIP3    H229668  -0.194   3.125   5.289 -0.2408  1.0176  0.3216
 1825TIP3   OH229669  -0.925  -0.811   3.519  0.1037  0.3624  0.0061
 1825TIP3    H129670  -0.979  -0.733   3.532  0.4265  0.6015 -0.0811
 1825TIP3    H229671  -0.987  -0.879   3.490 -0.3113  0.3546  0.8780
 1826TIP3   OH229672  -2.432   0.550   4.740 -0.1423 -0.1008  0.1569
 1826TIP3    H129673  -2.441   0.528   4.647 -1.1066 -1.3713  0.5236
 1826TIP3    H229674  -2.521   0.572   4.767  0.2183  0.7450  0.6790
 1827TIP3   OH229675  -1.143  -2.582   5.641  0.2969  0.3754  0.2883
 1827TIP3    H129676  -1.136  -2.598   5.547 -1.2434  1.5569 -0.0660
 1827TIP3    H229677  -1.220  -2.631   5.669  1.2410 -0.6880  1.1518
 1828TIP3   OH229678   1.856  -1.518   3.798  0.4637 -0.4598 -0.1158
 1828TIP3    H129679   1.927  -1.453   3.790  0.2856 -0.3813 -1.2500
 1828TIP3    H229680   1.816  -1.499   3.882  1.9977 -0.7237  0.7086
 1829TIP3   OH229681  -0.935   2.437   2.644  0.1940 -0.1068 -0.3937
 1829TIP3    H129682  -0.846   2.470   2.656  0.3910 -1.5896  3.4641
 1829TIP3    H229683  -0.987   2.480   2.712 -1.2094 -1.9257 -0.2348
 1830TIP3   OH229684  -1.024  -1.496   3.517 -0.1574 -0.5194  0.0173
 1830TIP3    H129685  -0.978  -1.422   3.478 -2.5879  1.2472  0.2395
 1830TIP3    H229686  -1.060  -1.544   3.442  1.7565 -1.8011 -0.1471
 1831TIP3   OH229687   0.874  -3.004   4.417 -0.2226 -0.3089 -0.1582
 1831TIP3    H129688   0.834  -3.056   4.348 -1.2986  0.0782  0.1613
 1831TIP3    H229689   0.817  -2.928   4.426  1.3192  0.9677 -0.6393
 1832TIP3   OH229690   1.486   3.138   5.912  0.3096  0.1400  0.2611
 1832TIP3    H129691   1.457   3.096   5.832 -0.3232  0.4775  0.3059
 1832TIP3    H229692   1.486   3.232   5.892  0.1764  0.2244  0.6420
 1833TIP3   OH229693  -0.848   2.291   4.050  0.4766 -0.0107  0.3922
 1833TIP3    H129694  -0.854   2.313   4.143  2.2626 -2.4475  1.1854
 1833TIP3    H229695  -0.860   2.375   4.005 -0.5849  1.2291  2.7733
 1834TIP3   OH229696  -0.681   2.038   4.629  0.1763 -0.3555  0.1730
 1834TIP3    H129697  -0.750   2.000   4.574  0.9656  0.7893 -1.6910
 1834TIP3    H229698  -0.600   2.002   4.594  0.6947  0.1234  0.8456
 1835TIP3   OH229699  -1.576   2.692   5.131  0.0454 -0.6491  0.0606
 1835TIP3    H129700  -1.534   2.620   5.178 -1.1953 -1.0323  0.6150
 1835TIP3    H229701  -1.606   2.751   5.200  2.1514  1.1137 -0.3996
 1836TIP3   OH229702  -2.735  -1.587   4.911  0.0741  0.0037  0.1317
 1836TIP3    H129703  -2.813  -1.582   4.967  0.6155 -1.5501  1.0507
 1836TIP3    H229704  -2.766  -1.554   4.826 -1.5842 -0.5485  0.4763
 1837TIP3   OH229705  -1.403   0.072   3.112  0.2672 -0.3633  0.3572
 1837TIP3    H129706  -1.308   0.060   3.119  0.3062 -0.6731 -0.6074
 1837TIP3    H229707  -1.415   0.129   3.036 -0.2827  0.3783  0.9857
 1838TIP3   OH229708   2.743  -0.116   5.355  0.1237 -0.0652 -0.0905
 1838TIP3    H129709   2.715  -0.026   5.337 -0.9638 -0.3300  0.1980
 1838TIP3    H229710   2.788  -0.111   5.440  1.1938  0.4082 -0.6703
 1839TIP3   OH229711  -0.215  -1.950   2.838 -0.5984  0.1112 -0.0679
 1839TIP3    H129712  -0.222  -1.935   2.743  1.4248  1.1147 -0.1222
 1839TIP3    H229713  -0.222  -2.045   2.847 -0.6323 -0.0221 -1.2485
 1840TIP3   OH229714   3.357  -2.774   3.077 -0.2732 -0.0682 -0.0393
 1840TIP3    H129715   3.279  -2.757   3.024  0.5355 -0.6135 -1.4528
 1840TIP3    H229716   3.323  -2.791   3.164 -1.7286 -0.2137 -0.6082
 1841TIP3   OH229717   1.854   0.276   5.238  0.2936  0.2626 -0.1631
 1841TIP3    H129718   1.802   0.342   5.284 -0.9873 -0.6568 -0.2525
 1841TIP3    H229719   1.814   0.270   5.151 -0.1761 -1.2590  0.1411
 1842TIP3   OH229720  -2.746   2.677   3.129  0.0737 -0.4760 -0.6590
 1842TIP3    H129721  -2.659   2.648   3.159 -0.8319  0.2394  3.2502
 1842TIP3    H229722  -2.791   2.597   3.104  0.4497 -1.5059  1.6733
 1843TIP3   OH229723  -2.774   1.871   4.725  0.6163 -0.5659  0.0795
 1843TIP3    H129724  -2.832   1.901   4.794 -1.3655 -1.7341 -0.9858
 1843TIP3    H229725  -2.730   1.950   4.693  0.7810  0.1263  1.9055
 1844TIP3   OH229726   2.392  -2.630   2.603 -0.4705  0.0585 -0.4289
 1844TIP3    H129727   2.352  -2.717   2.611  0.2545 -0.3299 -0.8860
 1844TIP3    H229728   2.356  -2.595   2.522 -0.7581  0.1786 -0.2485
 1845TIP3   OH229729   1.595   3.307   5.211  0.0519 -0.3741 -0.2428
 1845TIP3    H129730   1.525   3.249   5.181 -0.6820  0.2801  0.1675
 1845TIP3    H229731   1.583   3.312   5.305  1.6488 -1.5140  0.0651
 1846TIP3   OH229732  -0.429  -2.059   4.693  0.3195 -0.8077 -0.0645
 1846TIP3    H129733  -0.509  -2.085   4.739  1.6039 -0.5903  2.4767
 1846TIP3    H229734  -0.431  -1.963   4.695  1.6689 -0.7544  2.1338
 1847TIP3   OH229735  -0.917   1.797   4.108 -0.0799 -0.1825 -0.3309
 1847TIP3    H129736  -0.908   1.702   4.098 -0.8624 -0.2868 -0.1066
 1847TIP3    H229737  -1.011   1.812   4.106  0.0137  0.5250  0.2680
 1848TIP3   OH229738  -1.692   0.898   4.256 -0.2597  0.3741 -0.0558
 1848TIP3    H129739  -1.684   0.842   4.333  1.1255 -0.8194 -1.0208
 1848TIP3    H229740  -1.783   0.888   4.229 -0.7782  0.8447  1.4099
 1849TIP3   OH229741   2.381  -2.496   4.039  0.3328  0.3751 -0.0400
 1849TIP3    H129742   2.317  -2.560   4.070  0.9301  0.2516  0.9568
 1849TIP3    H229743   2.364  -2.489   3.945 -1.0508  0.2333  0.1744
 1850TIP3   OH229744  -1.477  -2.174   3.404  0.1153 -0.7115 -0.4158
 1850TIP3    H129745  -1.538  -2.196   3.474  0.7979 -1.1263  0.0679
 1850TIP3    H229746  -1.526  -2.115   3.347 -1.2044 -2.1402 -0.8250
 1851TIP3   OH229747  -3.293   0.558   3.801  0.4062 -0.0587 -0.0859
 1851TIP3    H129748  -3.250   0.586   3.882 -1.5760 -0.7962  1.2945
 1851TIP3    H229749  -3.311   0.465   3.814  0.3449 -0.2638 -1.5224
 1852TIP3   OH229750  -2.825   2.498   4.688  0.1559 -0.2186  0.0488
 1852TIP3    H129751  -2.804   2.588   4.713 -0.8394 -0.3314  1.3942
 1852TIP3    H229752  -2.787   2.444   4.757 -0.0018 -0.7757 -0.2942
 1853TIP3   OH229753   2.957   0.915   4.441 -0.1331 -0.4690 -0.1492
 1853TIP3    H129754   2.946   0.830   4.399  0.7868 -1.1164  0.8902
 1853TIP3    H229755   2.929   0.901   4.531 -2.5096  1.0106 -0.5596
 1854TIP3   OH229756   2.876  -1.462   3.256 -0.0984 -0.0959 -0.5960
 1854TIP3    H129757   2.931  -1.467   3.179 -0.8902  1.0215 -1.2738
 1854TIP3    H229758   2.789  -1.489   3.226 -0.4470  0.4939 -0.1609
 1855TIP3   OH229759   1.937  -1.901   5.539 -0.2253  0.3831  0.4464
 1855TIP3    H129760   1.854  -1.927   5.500  0.8638 -1.4545 -0.7675
 1855TIP3    H229761   1.916  -1.882   5.631 -2.0908  0.7360 -0.0207
 1856TIP3   OH229762   1.631   2.637   3.728 -0.3904  0.0220 -0.0416
 1856TIP3    H129763   1.599   2.726   3.713 -1.4579 -0.4906 -0.9246
 1856TIP3    H229764   1.722   2.639   3.699 -0.8487  0.4471 -1.5277
 1857TIP3   OH229765  -0.248   0.176   5.473  0.6672  0.4895 -0.5170
 1857TIP3    H129766  -0.218   0.142   5.557 -0.3295  1.5923  0.3181
 1857TIP3    H229767  -0.195   0.130   5.408  0.6347 -1.2671  0.6413
 1858TIP3   OH229768   2.968  -0.251   4.915  0.0606  0.1415  0.0692
 1858TIP3    H129769   2.959  -0.262   5.010 -0.5800  1.2230  0.1452
 1858TIP3    H229770   2.940  -0.161   4.898 -1.3776 -0.5099 -1.3312
 1859TIP3   OH229771  -1.751  -2.785   5.024 -0.1662 -0.1921 -0.2186
 1859TIP3    H129772  -1.719  -2.842   4.954  0.4146 -0.8110  0.5272
 1859TIP3    H229773  -1.709  -2.819   5.103 -1.7438 -0.2882  0.6200
 1860TIP3   OH229774  -3.165   2.769   4.506 -0.0047 -0.1881 -0.3805
 1860TIP3    H129775  -3.191   2.836   4.443 -1.4735 -0.7481 -0.4043
 1860TIP3    H229776  -3.232   2.701   4.499  0.3908 -0.7715  1.0120
 1861TIP3   OH229777   1.299   0.985   4.071 -0.0087 -0.0144  0.0410
 1861TIP3    H129778   1.334   1.062   4.114  0.9145  0.1714 -0.9801
 1861TIP3    H229779   1.357   0.914   4.098  0.4707  0.0723 -0.6932
 1862TIP3   OH229780   2.881   1.015   3.214  0.2518 -0.1071  0.0667
 1862TIP3    H129781   2.894   0.940   3.272  1.7864  1.5447  2.0154
 1862TIP3    H229782   2.799   1.054   3.243  0.4656  0.0877  0.4254
 1863TIP3   OH229783   1.100   3.304   4.133 -0.3849  0.0924 -0.3577
 1863TIP3    H129784   1.143   3.290   4.218 -0.7285 -0.8859 -0.3246
 1863TIP3    H229785   1.011   3.329   4.156 -1.2994 -2.7613 -0.3457
 1864TIP3   OH229786  -2.589  -2.518   5.621 -0.4285  0.6550 -0.0752
 1864TIP3    H129787  -2.512  -2.541   5.673 -0.4991  2.0040  0.6667
 1864TIP3    H229788  -2.662  -2.520   5.683 -0.4711  2.5658 -0.0002
 1865TIP3   OH229789  -3.006  -2.657   3.606  0.8762 -0.2399 -0.0113
 1865TIP3    H129790  -2.933  -2.687   3.552  2.1691  0.5218  1.2408
 1865TIP3    H229791  -2.976  -2.670   3.696 -0.3727  0.4743  0.5378
 1866TIP3   OH229792   0.832   0.355   2.211  0.0378 -1.1914  0.4861
 1866TIP3    H129793   0.748   0.366   2.167 -0.2467 -1.1781  1.0255
 1866TIP3    H229794   0.827   0.412   2.287  0.8192 -0.6393  0.1326
 1867TIP3   OH229795   0.963  -2.397   4.221  0.3151  0.0998  0.4440
 1867TIP3    H129796   0.926  -2.333   4.160  0.1306 -1.5271 -1.2319
 1867TIP3    H229797   1.047  -2.359   4.248  1.7986 -0.3567 -3.0964
 1868TIP3   OH229798  -1.575   0.095   2.456 -0.1997 -0.0379 -0.3876
 1868TIP3    H129799  -1.513   0.048   2.401 -0.5699  0.5023 -1.2820
 1868TIP3    H229800  -1.632   0.141   2.395  0.2769  1.7601  0.4423
 1869TIP3   OH229801   2.238   1.637   4.150 -0.4764 -0.0309 -0.5719
 1869TIP3    H129802   2.153   1.621   4.192  0.2756 -0.8632  0.6738
 1869TIP3    H229803   2.277   1.550   4.143  1.1119  0.5474  0.6769
 1870TIP3   OH229804   0.068   2.747   5.575 -0.3655  0.0337 -0.0234
 1870TIP3    H129805   0.035   2.836   5.589  0.1780  0.1534  0.5578
 1870TIP3    H229806   0.086   2.742   5.481 -0.6551  0.4493 -0.1029
 1871TIP3   OH229807   2.318   2.842   5.024 -0.1108  0.1951  0.4322
 1871TIP3    H129808   2.335   2.854   4.931 -1.4948  0.3802  0.1802
 1871TIP3    H229809   2.319   2.747   5.036 -0.4071  0.1491  0.1226
 1872TIP3   OH229810  -1.692   0.737   2.838  0.0296 -0.1490  0.6072
 1872TIP3    H129811  -1.758   0.804   2.817 -0.1383 -0.9530 -1.6947
 1872TIP3    H229812  -1.626   0.784   2.888 -0.6079  1.5058 -0.0222
 1873TIP3   OH229813   0.106  -1.953   3.650  0.5119 -0.7180 -0.5596
 1873TIP3    H129814   0.045  -1.891   3.690  1.3223 -0.9868  1.1884
 1873TIP3    H229815   0.052  -2.029   3.626 -0.1292 -0.1956 -0.7969
 1874TIP3   OH229816   2.811  -1.162   4.438 -0.0882 -0.5910  0.4783
 1874TIP3    H129817   2.826  -1.075   4.401  1.1023 -1.1171 -0.3475
 1874TIP3    H229818   2.886  -1.213   4.408 -1.5107 -2.3016 -0.3161
 1875TIP3   OH229819   2.431  -3.137   5.259  0.1962  0.5375  0.1068
 1875TIP3    H129820   2.502  -3.183   5.214  0.6620 -0.5575  1.8387
 1875TIP3    H229821   2.366  -3.204   5.277  0.6893  0.5592  2.3083
 1876TIP3   OH229822  -2.359  -0.981   5.061  0.4807 -0.0715 -0.5897
 1876TIP3    H129823  -2.331  -1.065   5.023  0.1924 -0.3921 -0.1009
 1876TIP3    H229824  -2.279  -0.946   5.101  0.2587 -0.8750  0.6024
 1877TIP3   OH229825  -3.029   2.002   5.419  0.6560 -0.1367 -0.4423
 1877TIP3    H129826  -3.123   1.992   5.404  0.1920 -1.0541  2.3464
 1877TIP3    H229827  -3.000   2.063   5.352 -0.7825 -3.8269 -4.9054
 1878TIP3   OH229828   1.248   0.349   2.941  0.0212 -0.1996  0.1241
 1878TIP3    H129829   1.229   0.314   3.028 -0.7086 -0.6271 -0.2072
 1878TIP3    H229830   1.172   0.404   2.920 -0.3211 -0.9818 -0.7111
 1879TIP3   OH229831  -1.103  -3.308   4.475 -0.4105 -0.0287 -0.2612
 1879TIP3    H129832  -1.147  -3.387   4.507  1.5712 -1.0421  0.1184
 1879TIP3    H229833  -1.094  -3.323   4.381  0.3134 -0.4420 -0.1283
 1880TIP3   OH229834   0.343   2.996   3.359  0.0778 -0.1901  0.0968
 1880TIP3    H129835   0.319   3.053   3.286 -1.5622  0.1326  0.8381
 1880TIP3    H229836   0.396   2.927   3.320  0.9473  1.0727 -1.0448
 1881TIP3   OH229837   0.752   3.019   2.742 -0.1637 -0.0979 -0.1259
 1881TIP3    H129838   0.843   3.024   2.716 -0.2324  0.8599 -0.2392
 1881TIP3    H229839   0.709   2.970   2.672  0.1107  0.1900 -0.4977
 1882TIP3   OH229840   2.386   1.188   3.001 -0.0321  0.2943 -0.0991
 1882TIP3    H129841   2.442   1.209   2.926 -1.5623  1.5403 -0.9728
 1882TIP3    H229842   2.404   1.096   3.019  1.3371  0.3193 -1.1622
 1883TIP3   OH229843   0.573   2.935   4.265 -0.1245  0.0967 -0.2663
 1883TIP3    H129844   0.662   2.930   4.229  0.5007  0.2553  1.1888
 1883TIP3    H229845   0.580   2.999   4.336 -0.8275 -1.5899  1.4204
 1884TIP3   OH229846   0.998   0.220   2.661  0.5639  0.1558 -0.0646
 1884TIP3    H129847   0.968   0.207   2.751 -0.9485  0.1621 -0.5449
 1884TIP3    H229848   1.016   0.313   2.655 -1.5441  0.5863 -0.3801
 1885TIP3   OH229849   2.251   3.363   5.321  0.7705  0.4068  0.7057
 1885TIP3    H129850   2.164   3.367   5.360 -0.4176  1.2425 -1.8078
 1885TIP3    H229851   2.295   3.292   5.368 -1.3035 -0.1352  1.9657
 1886TIP3   OH229852  -1.582   1.482   4.700  0.3097  0.6443  0.3035
 1886TIP3    H129853  -1.628   1.398   4.691  0.7537  0.3005  1.1577
 1886TIP3    H229854  -1.506   1.474   4.641  1.1132 -0.1123  1.4034
 1887TIP3   OH229855   3.074  -2.870   3.612  0.4868 -0.1202  0.0305
 1887TIP3    H129856   2.979  -2.879   3.606  0.3630  1.0466  0.0435
 1887TIP3    H229857   3.108  -2.953   3.579 -0.5566 -1.2006  1.5035
 1888TIP3   OH229858  -3.045  -0.036   1.891 -0.3466  0.1947 -0.0419
 1888TIP3    H129859  -3.072   0.021   1.963 -0.2408 -1.6034  1.4835
 1888TIP3    H229860  -2.994  -0.105   1.933 -0.2601 -0.8952 -1.8588
 1889TIP3   OH229861   0.605   1.105   3.572 -0.5110 -0.3668 -0.5645
 1889TIP3    H129862   0.642   1.161   3.641  0.9935 -0.0902 -1.5550
 1889TIP3    H229863   0.550   1.164   3.521  1.1139  0.3171 -1.6396
 1890TIP3   OH229864   2.667   1.456   4.362 -0.2996  0.0221  0.2621
 1890TIP3    H129865   2.757   1.475   4.389  0.1142 -2.2473  0.6591
 1890TIP3    H229866   2.669   1.463   4.267 -0.3135  2.1975  0.3626
 1891TIP3   OH229867  -1.446  -2.328   4.917  0.3159 -0.0921 -0.1649
 1891TIP3    H129868  -1.491  -2.259   4.966 -0.0011  0.8820 -1.7713
 1891TIP3    H229869  -1.502  -2.405   4.927 -1.2567  0.8544 -1.3425
 1892TIP3   OH229870   0.254   0.593   5.108 -0.1875 -0.0279 -0.0471
 1892TIP3    H129871   0.240   0.505   5.144 -0.4753  0.2465  0.5080
 1892TIP3    H229872   0.203   0.651   5.164  0.5060  0.5764 -0.0240
 1893TIP3   OH229873   0.546   3.106   3.569  0.0303 -0.6235 -0.0736
 1893TIP3    H129874   0.572   3.052   3.494  0.4926 -0.6438  0.1007
 1893TIP3    H229875   0.459   3.138   3.546  0.4237 -0.1272 -0.9037
 1894TIP3   OH229876   2.137  -2.594   4.131 -0.0903  0.5590 -0.0093
 1894TIP3    H129877   2.090  -2.657   4.185  1.0410 -1.3435 -1.1555
 1894TIP3    H229878   2.166  -2.644   4.055  0.4288  2.5949 -1.2259
 1895TIP3   OH229879  -1.704   3.314   3.643  0.2435 -0.1970  0.4853
 1895TIP3    H129880  -1.708   3.410   3.644  0.5918 -0.1379  2.8780
 1895TIP3    H229881  -1.786   3.287   3.683  0.3718 -0.8728  0.2926
 1896TIP3   OH229882  -1.044   2.108   3.500  0.8063  0.0186  0.4638
 1896TIP3    H129883  -1.065   2.196   3.531 -0.1613  0.0548 -0.2467
 1896TIP3    H229884  -1.022   2.059   3.579  0.9275  0.7791  0.9080
 1897TIP3   OH229885   0.954   0.264   4.434  0.5413 -0.6802  0.8347
 1897TIP3    H129886   0.881   0.321   4.460 -0.0000  0.0273 -1.8287
 1897TIP3    H229887   0.945   0.187   4.489 -0.1893  0.7776  2.8793
 1898TIP3   OH229888  -1.008  -1.658   5.618 -0.3807 -0.1993 -0.0076
 1898TIP3    H129889  -0.921  -1.686   5.591 -0.0793  0.1455  0.6053
 1898TIP3    H229890  -1.055  -1.740   5.635  0.5415 -0.3661  1.9363
 1899TIP3   OH229891  -1.259   1.945   5.494  0.0616 -0.3091  0.0198
 1899TIP3    H129892  -1.315   1.987   5.561 -1.3880  0.2329 -1.4587
 1899TIP3    H229893  -1.211   2.018   5.455 -1.2487 -0.1667 -1.4424
 1900TIP3   OH229894  -2.833  -1.675   4.558 -0.1727  0.4432 -0.2200
 1900TIP3    H129895  -2.830  -1.588   4.597 -3.1185  0.1858  0.8342
 1900TIP3    H229896  -2.893  -1.666   4.484 -0.1540 -0.5945 -0.3752
 1901TIP3   OH229897  -1.785   0.098   5.619  0.0634  0.4527  0.1347
 1901TIP3    H129898  -1.700   0.066   5.649 -0.3475  0.8650  1.8230
 1901TIP3    H229899  -1.764   0.155   5.545  1.3657  1.3656  1.1686
 1902TIP3   OH229900  -1.932  -3.132   4.729 -0.3616 -0.1789 -0.9268
 1902TIP3    H129901  -1.874  -3.056   4.722 -0.1302 -0.2968 -0.3373
 1902TIP3    H229902  -1.964  -3.146   4.640 -0.2455  0.4846 -1.0749
 1903TIP3   OH229903  -2.548   2.742   4.219 -0.1729 -0.1242  0.0815
 1903TIP3    H129904  -2.489   2.668   4.230 -0.0709  0.0510  0.7970
 1903TIP3    H229905  -2.492   2.814   4.192  0.0314  0.1480  1.1563
 1904TIP3   OH229906  -0.660   1.125   2.531 -0.6833  0.1153 -0.0542
 1904TIP3    H129907  -0.599   1.076   2.475 -0.6261  0.8131 -0.6187
 1904TIP3    H229908  -0.710   1.178   2.469  0.2319  1.8549  0.6372
 1905TIP3   OH229909  -2.658  -2.945   3.860 -0.1844  0.3155 -0.6542
 1905TIP3    H129910  -2.618  -2.997   3.930  0.9910  0.5391 -1.1368
 1905TIP3    H229911  -2.594  -2.877   3.841 -0.5373  0.3302 -1.8714
 1906TIP3   OH229912   2.463  -2.642   5.321  0.0433 -0.4609  0.6013
 1906TIP3    H129913   2.444  -2.732   5.347  0.2040 -0.7073 -0.1128
 1906TIP3    H229914   2.527  -2.651   5.251 -2.6335  0.0080 -2.0973
 1907TIP3   OH229915  -1.776  -1.467   4.155 -1.1017 -0.3901  0.1489
 1907TIP3    H129916  -1.813  -1.530   4.217 -1.7211 -0.7950 -0.6118
 1907TIP3    H229917  -1.698  -1.433   4.199 -0.8563 -1.5521  0.6589
 1908TIP3   OH229918  -0.450  -0.160   4.075  0.5507 -0.3444  0.1973
 1908TIP3    H129919  -0.464  -0.113   3.993  1.3589 -1.0269 -0.3442
 1908TIP3    H229920  -0.368  -0.125   4.110  1.1242 -1.2648 -0.1762
 1909TIP3   OH229921   1.928  -0.674   4.099  0.5229  0.0083 -0.9129
 1909TIP3    H129922   1.976  -0.681   4.016  0.1426 -1.1128 -1.0528
 1909TIP3    H229923   1.931  -0.762   4.136  0.6434  0.4814  0.2534
 1910TIP3   OH229924  -2.739  -1.162   5.368  0.0741  0.2097 -0.6996
 1910TIP3    H129925  -2.778  -1.116   5.442 -0.0715  1.6064 -1.6196
 1910TIP3    H229926  -2.786  -1.130   5.291 -1.0495 -2.5652 -1.2898
 1911TIP3   OH229927   2.010  -2.538   5.622  0.0669 -0.3825  0.0742
 1911TIP3    H129928   2.026  -2.487   5.543 -0.8818 -2.0220 -1.2592
 1911TIP3    H229929   2.005  -2.473   5.692 -1.8701  1.4685 -1.6277
 1912TIP3   OH229930  -0.318   2.638   4.875  0.0837 -0.2639 -0.3051
 1912TIP3    H129931  -0.240   2.617   4.824  0.6783 -0.0395  0.4931
 1912TIP3    H229932  -0.373   2.560   4.868  0.5928 -0.6154 -0.4881
 1913TIP3   OH229933   2.150  -1.142   3.222 -0.1407  0.3283 -0.0403
 1913TIP3    H129934   2.212  -1.151   3.150 -0.0165  1.6609 -0.1255
 1913TIP3    H229935   2.114  -1.054   3.212 -1.1459  0.0310  0.7255
 1914TIP3   OH229936  -0.535   2.422   3.374 -0.4261 -0.0350 -0.1296
 1914TIP3    H129937  -0.513   2.362   3.446 -2.9550 -2.6023 -1.2792
 1914TIP3    H229938  -0.490   2.385   3.298 -0.5930  0.5867 -0.5317
 1915TIP3   OH229939  -2.385   2.093   5.896 -0.6533 -0.0185 -0.4187
 1915TIP3    H129940  -2.389   2.174   5.948  0.4763  0.3139 -0.8395
 1915TIP3    H229941  -2.429   2.028   5.951  1.7642 -0.0315  1.6594
 1916TIP3   OH229942   2.855  -2.538   5.384  0.0802 -0.0375 -0.5132
 1916TIP3    H129943   2.822  -2.621   5.350  1.9444 -0.8154 -0.5240
 1916TIP3    H229944   2.868  -2.484   5.306 -0.5456  0.0715 -0.5534
 1917TIP3   OH229945   2.957   0.857   4.706  0.0302 -0.2023  0.3796
 1917TIP3    H129946   3.034   0.876   4.759  0.4250  0.8767 -0.5309
 1917TIP3    H229947   2.886   0.905   4.749  0.4235  0.9755 -0.2306
 1918TIP3   OH229948  -1.039   3.122   3.825 -0.0974  0.3393  0.3159
 1918TIP3    H129949  -1.028   3.069   3.745  3.3907 -0.5059  1.1565
 1918TIP3    H229950  -1.045   3.058   3.895 -0.7912  1.0947  0.9656
 1919TIP3   OH229951  -1.745  -1.392   2.993 -0.1466  0.5446  0.2757
 1919TIP3    H129952  -1.783  -1.443   3.064  0.5137 -0.7029 -0.2333
 1919TIP3    H229953  -1.700  -1.320   3.038  0.2658 -0.2216  1.1398
 1920TIP3   OH229954  -0.598  -1.704   3.049  0.3803 -0.0622  0.0670
 1920TIP3    H129955  -0.542  -1.736   3.120 -0.3787  1.2788  1.3307
 1920TIP3    H229956  -0.683  -1.690   3.090 -0.6626 -1.1675 -1.6020
 1921TIP3   OH229957  -2.663  -2.379   2.841  1.0578  0.0285  0.0771
 1921TIP3    H129958  -2.649  -2.455   2.898  1.0326 -0.5544 -0.6830
 1921TIP3    H229959  -2.714  -2.413   2.768 -0.0309  1.0487  0.3267
 1922TIP3   OH229960   2.909   0.602   4.624 -0.0720  0.4917 -0.2271
 1922TIP3    H129961   2.935   0.690   4.651  2.7640  0.1015 -1.3166
 1922TIP3    H229962   2.906   0.606   4.528  0.7506 -0.7204 -0.3252
 1923TIP3   OH229963   0.188   1.874   5.448 -0.5623  0.0585  0.3263
 1923TIP3    H129964   0.155   1.873   5.537 -0.3589 -1.1763  0.4088
 1923TIP3    H229965   0.284   1.869   5.458 -0.3711  2.3792  0.0714
 1924TIP3   OH229966   2.194   0.913   4.402  0.1910 -0.1125  0.3502
 1924TIP3    H129967   2.126   0.938   4.340 -0.1573  0.1921  0.8450
 1924TIP3    H229968   2.167   0.827   4.435  0.3795 -0.2770  0.0751
 1925TIP3   OH229969  -3.099   2.019   4.158 -0.0851 -0.1616 -0.2375
 1925TIP3    H129970  -3.112   2.107   4.195 -0.5377  0.3646 -1.5797
 1925TIP3    H229971  -3.173   2.008   4.097  0.6287 -0.9794 -0.9780
 1926TIP3   OH229972  -1.096  -2.804   4.903 -0.0262 -0.3220 -0.0315
 1926TIP3    H129973  -1.110  -2.883   4.851  2.2287  0.4309 -1.9596
 1926TIP3    H229974  -1.075  -2.836   4.990  0.3700 -1.8479 -0.6530
 1927TIP3   OH229975  -0.280   1.982   4.599  0.4987  0.0172  0.4261
 1927TIP3    H129976  -0.368   1.953   4.574  0.7135  0.3102 -0.7306
 1927TIP3    H229977  -0.233   1.987   4.516  1.2366  1.1219  0.9030
 1928TIP3   OH229978  -2.936  -0.301   3.034  0.1668  0.2114 -0.0204
 1928TIP3    H129979  -2.888  -0.234   2.985 -0.4586  0.6219 -0.0854
 1928TIP3    H229980  -3.000  -0.335   2.972  1.3654 -1.4276 -0.4101
 1929TIP3   OH229981  -2.697   0.043   3.654 -0.4394 -0.4135 -0.4880
 1929TIP3    H129982  -2.744   0.016   3.575 -0.5496  0.1644 -0.6226
 1929TIP3    H229983  -2.757   0.021   3.726 -0.0753 -1.5411 -0.5030
 1930TIP3   OH229984  -2.759   0.320   5.672 -0.2857 -0.3179 -0.5645
 1930TIP3    H129985  -2.664   0.313   5.670 -0.1236  0.9753  0.7629
 1930TIP3    H229986  -2.782   0.365   5.590  0.3922  0.6508 -0.2395
 1931TIP3   OH229987  -2.596  -2.386   4.159 -0.2823  0.3175 -0.1315
 1931TIP3    H129988  -2.589  -2.346   4.072  1.4094 -0.6945 -0.4957
 1931TIP3    H229989  -2.507  -2.383   4.194 -0.7695 -0.1417  1.1897
 1932TIP3   OH229990   1.236   2.027   5.797 -0.6052  0.3646 -0.0939
 1932TIP3    H129991   1.198   2.113   5.778  0.1666  1.0882  1.5187
 1932TIP3    H229992   1.328   2.045   5.815 -0.6687 -0.6490  1.3364
 1933TIP3   OH229993  -1.852  -2.886   4.589 -0.4354 -1.1645 -0.2400
 1933TIP3    H129994  -1.943  -2.909   4.568 -0.3418 -0.6951 -1.2472
 1933TIP3    H229995  -1.849  -2.790   4.581  0.5133 -1.2932 -1.8785
 1934TIP3   OH229996  -2.759  -2.689   3.476  0.1026 -0.0365  0.8948
 1934TIP3    H129997  -2.735  -2.651   3.391 -2.0374 -1.2106 -0.3099
 1934TIP3    H229998  -2.685  -2.668   3.533  0.9749  2.0464 -0.8568
 1935TIP3   OH229999   0.957  -1.347   4.840  0.1575  0.6971 -0.4368
 1935TIP3    H130000   0.867  -1.325   4.865 -0.3027 -2.7051  1.5404
 1935TIP3    H230001   1.011  -1.293   4.897 -0.8159 -0.6051  1.8869
 1936TIP3   OH230002  -0.571  -2.909   3.823 -0.1803  0.4805  0.3738
 1936TIP3    H130003  -0.604  -2.914   3.733  1.0528  0.6981 -0.1189
 1936TIP3    H230004  -0.620  -2.975   3.871 -0.8852  0.3868 -0.4553
 1937TIP3   OH230005  -3.298  -0.520   3.010 -0.1359 -0.2832 -0.3320
 1937TIP3    H130006  -3.296  -0.537   2.915 -0.5926  0.0930 -0.4172
 1937TIP3    H230007  -3.347  -0.438   3.018 -0.4292 -0.5118  0.2629
 1938TIP3   OH230008   1.651  -3.257   3.388  0.0551 -0.2541  0.3218
 1938TIP3    H130009   1.613  -3.214   3.465  0.5681  0.2833  0.2798
 1938TIP3    H230010   1.608  -3.215   3.313  0.9169  0.5537  0.2650
 1939TIP3   OH230011   1.903  -0.636   3.189 -0.4124 -0.0847 -0.2388
 1939TIP3    H130012   1.897  -0.676   3.276  1.2373  3.4469  1.7390
 1939TIP3    H230013   1.826  -0.579   3.184  0.9913  1.9725  0.3098
 1940TIP3   OH230014  -2.704  -1.277   6.015 -0.5792 -0.0147  0.4401
 1940TIP3    H130015  -2.648  -1.247   5.943 -1.3716 -1.1598 -0.6936
 1940TIP3    H230016  -2.711  -1.201   6.073  1.0112  0.5830 -0.0827
 1941TIP3   OH230017   0.216  -1.000   2.667 -0.5338 -0.1500 -0.2824
 1941TIP3    H130018   0.217  -1.092   2.691  0.4073 -0.0378  0.1663
 1941TIP3    H230019   0.271  -0.957   2.733  1.6620  0.2605 -2.2374
 1942TIP3   OH230020  -2.974   3.075   4.050 -0.1779 -0.1070 -0.6595
 1942TIP3    H130021  -2.990   3.166   4.077 -5.2878 -0.7590 -0.4777
 1942TIP3    H230022  -2.879   3.068   4.044  0.5993  4.5684  1.5756
 1943TIP3   OH230023   2.914   1.651   4.304  0.1807 -0.9110  0.2205
 1943TIP3    H130024   2.957   1.566   4.320 -0.5760 -1.2576  0.4454
 1943TIP3    H230025   2.915   1.661   4.209  1.8191 -0.3500  0.2589
 1944TIP3   OH230026  -1.647   0.860   3.345 -0.4297  0.0473 -0.6595
 1944TIP3    H130027  -1.589   0.930   3.377 -0.3405  0.2043 -1.1615
 1944TIP3    H230028  -1.734   0.900   3.343 -0.1754  0.5655 -2.2132
 1945TIP3   OH230029  -2.515   2.184   5.620  0.3264 -0.0439 -0.1454
 1945TIP3    H130030  -2.580   2.114   5.619  0.7245 -0.7054 -4.7777
 1945TIP3    H230031  -2.446   2.152   5.678 -1.0459 -1.8482  0.5904
 1946TIP3   OH230032   0.700  -2.802   4.478 -0.0725 -0.3121  0.0175
 1946TIP3    H130033   0.744  -2.717   4.477 -0.2472 -0.2083  0.5800
 1946TIP3    H230034   0.645  -2.801   4.399  0.6385 -0.2951 -0.4895
 1947TIP3   OH230035   2.670   2.063   5.153  0.7032 -0.3454 -0.0411
 1947TIP3    H130036   2.671   2.102   5.066  0.3845 -0.6820 -0.1988
 1947TIP3    H230037   2.675   2.137   5.213  0.2868 -0.0719 -0.3388
 1948TIP3   OH230038   1.282  -1.291   4.139 -0.0684  0.1502 -0.1870
 1948TIP3    H130039   1.342  -1.250   4.076 -1.2260  0.8003 -0.9134
 1948TIP3    H230040   1.313  -1.381   4.146  1.5750  0.7069  0.2086
 1949TIP3   OH230041  -3.128   2.481   4.965  0.0004  0.0192 -0.7471
 1949TIP3    H130042  -3.216   2.444   4.961  0.4775 -1.4663  1.1540
 1949TIP3    H230043  -3.119   2.530   4.883 -2.5760  0.2319 -0.9807
 1950TIP3   OH230044  -1.430  -0.691   4.992  0.3002 -0.0445  0.0094
 1950TIP3    H130045  -1.395  -0.671   5.079  1.3466 -2.3920  0.1814
 1950TIP3    H230046  -1.481  -0.613   4.969  0.4857  0.8900  2.4497
 1951TIP3   OH230047  -2.840   1.308   2.231  0.4517  0.0608 -0.1941
 1951TIP3    H130048  -2.883   1.347   2.155  1.9490  2.6042  0.1458
 1951TIP3    H230049  -2.764   1.263   2.195 -0.5681 -1.5654 -0.4468
 1952TIP3   OH230050   0.378  -0.492   3.655 -0.3318  0.0799 -0.1715
 1952TIP3    H130051   0.339  -0.453   3.577 -0.4904  0.9227  0.3154
 1952TIP3    H230052   0.304  -0.505   3.715 -0.0638  0.5494  0.2826
 1953TIP3   OH230053  -0.710  -0.580   5.119 -0.0801 -0.0607 -0.2531
 1953TIP3    H130054  -0.769  -0.555   5.048 -0.5389  1.3196  0.5761
 1953TIP3    H230055  -0.745  -0.535   5.196  0.8609 -0.8951  0.6841
 1954TIP3   OH230056  -1.654  -1.594   2.365 -0.9262 -0.0929  0.4452
 1954TIP3    H130057  -1.690  -1.572   2.279 -1.3966 -1.4807  0.2635
 1954TIP3    H230058  -1.559  -1.588   2.353 -0.9914 -0.1362 -0.1335
 1955TIP3   OH230059  -2.613  -3.206   3.342 -0.5944  0.6884  0.2384
 1955TIP3    H130060  -2.668  -3.132   3.315 -1.7625 -0.4395 -0.5710
 1955TIP3    H230061  -2.537  -3.201   3.284 -0.2275  1.7269  0.7652
 1956TIP3   OH230062  -0.837   1.233   4.460 -0.2159  0.2924  0.3707
 1956TIP3    H130063  -0.901   1.205   4.394  0.9869 -1.3234 -0.1766
 1956TIP3    H230064  -0.835   1.162   4.523  1.1947  0.1962  0.2475
 1957TIP3   OH230065  -0.469  -0.349   5.552 -0.4536 -0.6153 -0.2520
 1957TIP3    H130066  -0.506  -0.378   5.468 -0.0114 -0.4729 -0.4974
 1957TIP3    H230067  -0.538  -0.368   5.616 -1.5041  0.8598 -0.8879
 1958TIP3   OH230068   2.528   0.100   4.770 -0.0906 -0.0040  0.3181
 1958TIP3    H130069   2.594   0.079   4.704  0.9695  3.3630  0.1266
 1958TIP3    H230070   2.541   0.034   4.839  1.7357 -0.9472 -0.8384
 1959TIP3   OH230071  -1.760  -1.070   4.828 -0.4054 -0.4063  0.3620
 1959TIP3    H130072  -1.839  -1.016   4.819 -0.0426  0.0782 -0.0081
 1959TIP3    H230073  -1.693  -1.008   4.858  0.4256 -0.2795 -1.6085
 1960TIP3   OH230074   0.648  -2.411   3.161 -0.5620 -0.2413  0.0042
 1960TIP3    H130075   0.647  -2.445   3.072 -1.3187  1.7685 -0.8092
 1960TIP3    H230076   0.656  -2.316   3.151  0.6116 -0.0528  2.1221
 1961TIP3   OH230077  -0.770  -1.788   5.023  0.6060 -0.7156  0.1665
 1961TIP3    H130078  -0.760  -1.862   5.083  0.4581 -1.3989 -0.6339
 1961TIP3    H230079  -0.838  -1.816   4.961 -0.6438  0.7461  0.8184
 1962TIP3   OH230080   3.213   0.640   4.938 -0.0818 -0.0400  0.4833
 1962TIP3    H130081   3.225   0.682   4.853 -1.6522  2.0962  1.2069
 1962TIP3    H230082   3.192   0.713   4.997  0.8163 -1.4648  2.6845
 1963TIP3   OH230083  -0.799   0.358   3.020 -0.0154  0.2703  0.6065
 1963TIP3    H130084  -0.834   0.433   2.972  0.6842  0.8157  0.9273
 1963TIP3    H230085  -0.705   0.360   3.001 -0.0690 -0.8645  0.1598
 1964TIP3   OH230086   0.000   1.359   3.091  0.2429  0.1585 -0.0692
 1964TIP3    H130087  -0.086   1.369   3.133  0.3991 -0.7239  0.5051
 1964TIP3    H230088  -0.017   1.300   3.017  0.3557 -0.0724  0.0862
 1965TIP3   OH230089   1.891  -2.384   4.421  0.4076  0.0827 -0.7593
 1965TIP3    H130090   1.938  -2.444   4.479  1.3534 -0.9288 -2.4950
 1965TIP3    H230091   1.906  -2.298   4.459  1.0806 -0.5341  0.4417
 1966TIP3   OH230092  -0.321  -0.704   2.816 -0.3248  0.0356 -0.0183
 1966TIP3    H130093  -0.365  -0.776   2.862  0.6934 -0.1394  0.7300
 1966TIP3    H230094  -0.295  -0.742   2.732 -0.3741 -0.2724  0.1035
 1967TIP3   OH230095   0.566   2.486   2.770  0.3491 -0.3099  0.3746
 1967TIP3    H130096   0.569   2.442   2.685 -1.0335 -2.2383  1.2560
 1967TIP3    H230097   0.644   2.455   2.815 -0.7926 -2.3525  1.1282
 1968TIP3   OH230098  -1.457   2.718   5.382  0.2937  0.0968  0.1879
 1968TIP3    H130099  -1.520   2.711   5.455 -0.1424  1.3794 -0.0253
 1968TIP3    H230100  -1.392   2.650   5.400  0.1452  0.3077  1.7347
 1969TIP3   OH230101  -2.920   0.944   2.725  0.0096  0.3353 -0.2338
 1969TIP3    H130102  -2.845   0.884   2.727  0.3799  0.8018  0.2092
 1969TIP3    H230103  -2.892   1.016   2.669  0.1939  0.8889  0.5556
 1970TIP3   OH230104  -1.637  -1.222   5.713  0.2619  0.6038  0.1241
 1970TIP3    H130105  -1.662  -1.303   5.757  1.1416  0.1247 -0.2522
 1970TIP3    H230106  -1.701  -1.213   5.641 -0.7681  1.0477  1.0635
 1971TIP3   OH230107   0.918  -1.105   4.417 -0.0103  0.0051 -0.4575
 1971TIP3    H130108   0.849  -1.140   4.473 -0.3643 -0.8122 -1.3783
 1971TIP3    H230109   0.960  -1.183   4.380  0.0709  0.5263 -1.4901
 1972TIP3   OH230110   2.339  -2.173   4.671  0.3000 -0.1735  0.4090
 1972TIP3    H130111   2.383  -2.236   4.728 -0.2837 -1.4627 -0.4916
 1972TIP3    H230112   2.245  -2.188   4.686  0.1205  1.7144  1.4419
 1973TIP3   OH230113   2.405   1.311   3.703  0.1976  0.1642  0.4027
 1973TIP3    H130114   2.337   1.288   3.767 -0.9154  2.0000 -0.0361
 1973TIP3    H230115   2.357   1.354   3.632  1.7291  0.5765 -0.4215
 1974TIP3   OH230116  -0.949  -0.597   4.933 -0.0618  0.0476 -0.3002
 1974TIP3    H130117  -1.036  -0.633   4.916  0.3083 -0.7414 -0.5489
 1974TIP3    H230118  -0.889  -0.652   4.883  0.7017 -0.1482  0.7780
 1975TIP3   OH230119  -3.143  -1.576   4.987  0.1808  0.1135  0.4577
 1975TIP3    H130120  -3.071  -1.538   5.037 -0.4469  1.1446  0.5946
 1975TIP3    H230121  -3.099  -1.628   4.919  1.0488  0.3807  0.7960
 1976TIP3   OH230122  -1.494  -2.740   4.488  0.3719  0.2553  0.1642
 1976TIP3    H130123  -1.504  -2.666   4.547 -0.1280  0.0409  0.3572
 1976TIP3    H230124  -1.518  -2.706   4.402  0.5519  0.4236  0.1797
 1977TIP3   OH230125   1.358   0.158   2.759  0.1385  0.6934 -0.2467
 1977TIP3    H130126   1.433   0.138   2.816 -0.1642 -0.5969 -0.2740
 1977TIP3    H230127   1.309   0.225   2.808  0.0238 -0.1976  0.9215
 1978TIP3   OH230128  -0.566  -2.375   3.734  0.1479 -0.6770 -0.4038
 1978TIP3    H130129  -0.520  -2.455   3.758 -0.6902 -0.5667  1.8726
 1978TIP3    H230130  -0.659  -2.394   3.750  0.0584  1.1876  1.8840
 1979TIP3   OH230131  -1.785  -0.784   5.474  0.5148  0.3800  0.5883
 1979TIP3    H130132  -1.711  -0.829   5.514 -0.6243 -0.9086  1.2981
 1979TIP3    H230133  -1.787  -0.698   5.516 -0.3360 -0.7383  2.9972
 1980TIP3   OH230134   1.908  -1.684   3.595  0.1893 -0.1041  0.5415
 1980TIP3    H130135   1.897  -1.775   3.625  0.2297 -0.2393  0.1470
 1980TIP3    H230136   1.903  -1.632   3.676  1.8581 -0.5860  1.0147
 1981TIP3   OH230137   1.129  -0.538   3.435  0.3476  0.2951 -0.3290
 1981TIP3    H130138   1.108  -0.551   3.342  0.5938  1.0322 -0.4926
 1981TIP3    H230139   1.197  -0.471   3.436 -1.1049  1.8566  0.4669
 1982TIP3   OH230140  -3.266  -3.122   5.453  0.1233 -0.1672  0.1269
 1982TIP3    H130141  -3.237  -3.212   5.438  1.4975  0.2155  0.3561
 1982TIP3    H230142  -3.186  -3.075   5.476 -0.4028  1.3218 -0.9367
 1983TIP3   OH230143  -0.955  -0.119   3.854 -0.4516 -0.5777  0.5612
 1983TIP3    H130144  -1.051  -0.116   3.861 -0.4970 -1.9589  0.7923
 1983TIP3    H230145  -0.936  -0.209   3.825  0.7186  0.0048 -0.5611
 1984TIP3   OH230146   0.919  -2.598   4.406 -0.2427 -0.2831  0.9026
 1984TIP3    H130147   0.928  -2.517   4.356  2.7453  1.0793  3.3198
 1984TIP3    H230148   0.983  -2.658   4.367  0.6591  0.0728  1.8302
 1985TIP3   OH230149   1.569   2.248   3.070  0.2149  0.6557  0.2077
 1985TIP3    H130150   1.662   2.264   3.053  0.2056  0.1518 -0.3878
 1985TIP3    H230151   1.568   2.171   3.126  0.1235 -2.1081 -3.1965
 1986TIP3   OH230152  -1.311  -0.981   5.011 -0.1110 -0.3578 -0.1134
 1986TIP3    H130153  -1.297  -0.929   4.932 -0.3999 -2.9524 -2.0289
 1986TIP3    H230154  -1.406  -0.980   5.024 -0.0213  0.4724  0.5209
 1987TIP3   OH230155   1.752  -2.953   3.738 -0.3919  0.2485 -0.1057
 1987TIP3    H130156   1.696  -2.879   3.714 -0.9222  0.0400  0.4673
 1987TIP3    H230157   1.693  -3.014   3.783  0.5313  0.5691  1.6281
 1988TIP3   OH230158  -3.287  -1.022   3.731  0.0460  0.2807  0.1496
 1988TIP3    H130159  -3.332  -0.951   3.684 -2.3981 -1.5090 -0.3859
 1988TIP3    H230160  -3.338  -1.034   3.811 -0.1096 -1.3487 -0.1490
 1989TIP3   OH230161   0.046   2.193   3.008 -0.7804 -0.0844 -0.4296
 1989TIP3    H130162   0.118   2.256   3.003 -2.1242  1.6124  0.5747
 1989TIP3    H230163   0.056   2.139   2.929  1.5041  0.1471 -0.3631
 1990TIP3   OH230164   2.569  -1.292   4.424 -0.3458 -0.5765  0.6395
 1990TIP3    H130165   2.609  -1.325   4.343 -0.7320  2.0600 -0.7456
 1990TIP3    H230166   2.630  -1.225   4.455 -1.4763  0.2841  1.0590
 1991TIP3   OH230167   0.909   0.182   2.967 -0.5128 -0.2036  0.2276
 1991TIP3    H130168   0.875   0.107   2.918 -0.2468 -1.3948  1.7732
 1991TIP3    H230169   0.832   0.236   2.986 -0.6087  0.3142 -1.5017
 1992TIP3   OH230170   1.909  -0.145   4.695 -0.0863 -0.3973  0.0113
 1992TIP3    H130171   1.995  -0.170   4.728 -0.8143  0.7850  3.1710
 1992TIP3    H230172   1.861  -0.227   4.688  0.8356 -0.9209 -0.3848
 1993TIP3   OH230173  -1.156  -0.542   5.572 -0.0985 -0.3244 -0.0031
 1993TIP3    H130174  -1.251  -0.547   5.580 -0.1290 -0.3916 -0.3941
 1993TIP3    H230175  -1.124  -0.624   5.609 -0.2203 -0.5019 -0.2896
 1994TIP3   OH230176   2.094  -1.388   5.125 -0.2137  0.3119  0.2290
 1994TIP3    H130177   2.045  -1.458   5.168  0.9738  0.1993  1.5035
 1994TIP3    H230178   2.129  -1.428   5.046 -0.4849 -0.2022  0.3655
 1995TIP3   OH230179  -2.125  -1.442   2.594  0.4557 -0.4912 -0.0560
 1995TIP3    H130180  -2.204  -1.388   2.587  0.7013  0.1850  1.7589
 1995TIP3    H230181  -2.118  -1.486   2.510 -0.0019  1.9925 -1.4878
 1996TIP3   OH230182   2.289  -1.074   5.140  0.6437  0.2059  0.1289
 1996TIP3    H130183   2.208  -1.094   5.185 -0.6241  1.1265 -1.5991
 1996TIP3    H230184   2.295  -1.140   5.071  0.3732  1.1892 -0.8766
 1997TIP3   OH230185   2.122   1.851   5.000  0.1242  0.4662  0.1851
 1997TIP3    H130186   2.138   1.797   5.078  2.1587  0.3050 -0.2932
 1997TIP3    H230187   2.136   1.791   4.927  1.7161  1.4164 -0.3447
 1998TIP3   OH230188  -0.145  -2.024   5.148 -0.0361  0.1281  0.4730
 1998TIP3    H130189  -0.117  -2.108   5.112  2.0192  0.2107  1.7265
 1998TIP3    H230190  -0.146  -1.964   5.073 -3.8604 -1.3897 -0.9428
 1999TIP3   OH230191  -2.410  -1.341   3.289 -0.0780  0.4480  0.5901
 1999TIP3    H130192  -2.325  -1.331   3.246 -0.4675 -1.6679 -0.8558
 1999TIP3    H230193  -2.443  -1.252   3.299  0.3380  1.1530 -3.0469
 2000TIP3   OH230194   2.248  -1.464   3.582  0.0718  0.6558  0.4062
 2000TIP3    H130195   2.227  -1.527   3.651 -1.1926  0.3260 -0.2345
 2000TIP3    H230196   2.245  -1.514   3.501 -1.3383  1.5687 -0.1582
 2001TIP3   OH230197  -2.033  -0.412   4.204 -0.1458 -0.3089 -0.6815
 2001TIP3    H130198  -1.966  -0.395   4.271 -0.7580  3.3004 -0.7827
 2001TIP3    H230199  -2.039  -0.507   4.200  0.6785 -0.7775  3.6420
 2002TIP3   OH230200   3.118   2.317   4.584  0.2171  0.6004 -0.2774
 2002TIP3    H130201   3.172   2.238   4.591 -0.0608  0.1691 -2.3792
 2002TIP3    H230202   3.117   2.353   4.673 -0.4944 -2.3003  1.0094
 2003TIP3   OH230203   1.136  -0.599   3.170  0.1351  0.2372 -0.6488
 2003TIP3    H130204   1.115  -0.681   3.125 -1.3646  1.0652 -1.5053
 2003TIP3    H230205   1.164  -0.540   3.101  1.6599  0.3353  0.0276
 2004TIP3   OH230206   2.440  -2.799   4.987 -0.2643  0.0622 -0.7228
 2004TIP3    H130207   2.446  -2.826   5.079  0.2426 -0.8965 -1.0316
 2004TIP3    H230208   2.508  -2.732   4.978  1.0138 -1.2034 -0.8508
 2005TIP3   OH230209   2.114  -1.632   5.424 -0.1864 -0.4844  0.4627
 2005TIP3    H130210   2.045  -1.647   5.360  0.1385  0.0105 -0.0083
 2005TIP3    H230211   2.080  -1.564   5.481  0.5501  0.9700 -0.7711
 2006TIP3   OH230212  -1.980  -2.525   5.398 -0.4857 -0.2882  0.5422
 2006TIP3    H130213  -1.886  -2.542   5.408 -0.4357  0.0885  0.6921
 2006TIP3    H230214  -1.997  -2.447   5.450 -0.5248  0.7756 -0.9970
 2007TIP3   OH230215   0.809  -1.983   3.453  0.6948  0.0324  0.6863
 2007TIP3    H130216   0.839  -1.909   3.399  1.8291 -1.2067 -0.4652
 2007TIP3    H230217   0.822  -1.954   3.543 -0.1119  1.7130  0.2998
 2008TIP3   OH230218  -1.157   0.654   4.687 -0.3479  0.0137  0.4693
 2008TIP3    H130219  -1.235   0.601   4.703 -0.4815  0.4272  1.2587
 2008TIP3    H230220  -1.177   0.739   4.727 -0.6690  1.1520 -1.9212
 2009TIP3   OH230221   1.948   2.216   2.394  0.5803  0.0286  0.0121
 2009TIP3    H130222   1.937   2.227   2.300 -1.2331 -0.4338  0.1407
 2009TIP3    H230223   2.039   2.187   2.405  0.4908 -0.9662 -1.6717
 2010TIP3   OH230224   2.726  -2.207   3.923 -0.3915 -0.0710  0.1787
 2010TIP3    H130225   2.684  -2.237   3.842 -0.2132 -3.7865  1.3212
 2010TIP3    H230226   2.818  -2.233   3.913 -0.4617 -0.9922  1.7285
 2011TIP3   OH230227   0.700  -3.146   5.505  0.4873 -0.2491 -0.0004
 2011TIP3    H130228   0.635  -3.082   5.478  0.6017 -0.2607 -0.3093
 2011TIP3    H230229   0.676  -3.169   5.595  0.1888 -0.1003 -0.0419
 2012TIP3   OH230230   3.078   2.441   3.295 -0.3873  0.4189  0.2179
 2012TIP3    H130231   3.164   2.453   3.335  0.0171 -1.2774 -0.0572
 2012TIP3    H230232   3.058   2.526   3.256  1.5368  0.6448 -0.4160
 2013TIP3   OH230233  -0.714   2.410   3.682 -0.0257  0.2689  0.0286
 2013TIP3    H130234  -0.697   2.333   3.629 -0.1746  0.4449 -0.2735
 2013TIP3    H230235  -0.808   2.426   3.672 -0.1343  0.0586  0.6693
 2014TIP3   OH230236  -2.760  -1.424   5.786 -0.0539 -0.2233  0.0913
 2014TIP3    H130237  -2.750  -1.380   5.870 -0.4798 -0.1605  0.1114
 2014TIP3    H230238  -2.670  -1.443   5.758  0.0738 -1.4512  1.1980
 2015TIP3   OH230239  -1.395  -0.892   3.392 -0.3963 -0.2056 -0.1246
 2015TIP3    H130240  -1.440  -0.859   3.315  0.4048 -0.1763 -0.5825
 2015TIP3    H230241  -1.382  -0.815   3.447 -0.8529 -0.2079 -0.0005
 2016TIP3   OH230242   3.297   2.706   3.805 -0.0376 -0.3450 -0.2931
 2016TIP3    H130243   3.259   2.685   3.891 -0.1478  0.3299 -0.1681
 2016TIP3    H230244   3.271   2.634   3.749 -0.5927 -0.4322  0.0645
 2017TIP3   OH230245  -3.144  -0.342   2.816 -0.1163 -0.0053 -0.0307
 2017TIP3    H130246  -3.231  -0.304   2.833  0.2444 -0.0062  2.0067
 2017TIP3    H230247  -3.146  -0.363   2.723 -2.2702  0.0970 -0.0651
 2018TIP3   OH230248  -2.867   1.517   3.966 -0.0550  0.0876  0.3487
 2018TIP3    H130249  -2.836   1.599   4.003  0.7455  0.2335 -0.6054
 2018TIP3    H230250  -2.952   1.540   3.927 -1.5680 -0.3574  3.1182
 2019TIP3   OH230251  -3.291   2.586   2.664  0.7354  0.0521  0.3129
 2019TIP3    H130252  -3.309   2.526   2.591  1.7797  0.0142  0.0809
 2019TIP3    H230253  -3.216   2.638   2.635  1.4153 -0.2291  1.5014
 2020TIP3   OH230254   1.566   1.940   5.753  0.5289 -0.7206 -0.3334
 2020TIP3    H130255   1.598   1.949   5.664 -0.5184 -2.3070 -0.9096
 2020TIP3    H230256   1.633   1.982   5.807  0.5250  1.5455 -1.9247
 2021TIP3   OH230257  -0.958   3.269   3.470 -0.0707 -0.6302  0.3050
 2021TIP3    H130258  -0.885   3.258   3.531 -0.7428 -1.9571  0.9112
 2021TIP3    H230259  -0.916   3.278   3.384  0.8028 -1.6527  0.5995
 2022TIP3   OH230260  -0.498   2.047   5.396  0.0764 -0.0546 -0.3055
 2022TIP3    H130261  -0.523   2.070   5.486 -0.8738 -0.5207 -0.4322
 2022TIP3    H230262  -0.581   2.020   5.355  0.8423 -2.0756 -0.6377
 2023TIP3   OH230263   2.781   1.182   5.396  0.3792 -0.2362  0.4139
 2023TIP3    H130264   2.817   1.103   5.436  1.6217 -0.2821 -0.7415
 2023TIP3    H230265   2.748   1.153   5.311  0.3637  0.4000  0.1983
 2024TIP3   OH230266  -1.114  -2.340   4.044 -0.9383  0.4869  0.1389
 2024TIP3    H130267  -1.146  -2.346   4.134 -0.0706  0.4375  0.4491
 2024TIP3    H230268  -1.134  -2.426   4.006 -4.0233  1.4317 -0.6697
 2025TIP3   OH230269   3.044   1.608   3.282 -0.2696 -0.2810  0.0644
 2025TIP3    H130270   2.995   1.567   3.353  0.9413  0.6134  1.4822
 2025TIP3    H230271   3.004   1.695   3.272 -2.0707 -1.2486 -2.1353
 2026TIP3   OH230272  -2.523  -3.104   4.073  0.7650 -0.1512 -0.0470
 2026TIP3    H130273  -2.591  -3.164   4.102  0.0347  0.8046  0.2795
 2026TIP3    H230274  -2.454  -3.112   4.139  0.9322 -1.0357 -0.3155
 2027TIP3   OH230275  -1.223  -1.415   3.675 -0.1527  0.1628  0.1783
 2027TIP3    H130276  -1.200  -1.500   3.639  0.8256 -0.3318  1.8567
 2027TIP3    H230277  -1.176  -1.352   3.619 -1.7868 -0.2544 -1.7787
 2028TIP3   OH230278  -2.811  -1.448   5.382 -0.0981 -0.5180 -0.0025
 2028TIP3    H130279  -2.898  -1.437   5.421 -0.7308  0.5509 -1.6140
 2028TIP3    H230280  -2.768  -1.364   5.395  1.6060 -1.6862  2.7285
 2029TIP3   OH230281  -0.970  -2.422   5.796  0.0872  0.0175 -0.6646
 2029TIP3    H130282  -0.942  -2.489   5.859  0.0711 -1.0178 -1.7253
 2029TIP3    H230283  -1.032  -2.467   5.739 -2.4354  1.7465  0.4858
 2030TIP3   OH230284   2.258   3.140   3.708 -0.4530 -0.2211  0.3991
 2030TIP3    H130285   2.181   3.088   3.684 -1.0170 -1.1237  3.6247
 2030TIP3    H230286   2.323   3.075   3.735 -0.3183  0.6078  2.2293
 2031TIP3   OH230287  -1.112   0.461   3.187 -0.1097 -0.1754 -0.7678
 2031TIP3    H130288  -1.035   0.512   3.162 -0.9311  0.7465 -1.4849
 2031TIP3    H230289  -1.157   0.443   3.105 -0.4800 -1.0225 -0.3932
 2032TIP3   OH230290   2.700   2.725   2.666  0.9348  1.0648 -0.8349
 2032TIP3    H130291   2.649   2.769   2.598 -1.9706 -0.5628  0.0975
 2032TIP3    H230292   2.664   2.636   2.670  1.2959  0.9181  2.4204
 2033TIP3   OH230293  -0.879  -0.082   2.702 -0.0560  0.1890  0.1659
 2033TIP3    H130294  -0.901  -0.146   2.769  1.4054 -2.5542 -1.8109
 2033TIP3    H230295  -0.954  -0.084   2.642 -0.6655  1.5076  0.8306
 2034TIP3   OH230296   0.341  -1.613   3.682  0.3721 -1.1894 -0.4399
 2034TIP3    H130297   0.351  -1.685   3.620 -0.2841 -1.6081 -0.0739
 2034TIP3    H230298   0.405  -1.631   3.751 -0.0924 -1.6829 -0.1226
 2035TIP3   OH230299  -2.356   0.954   5.211  0.3007  0.7192  0.5527
 2035TIP3    H130300  -2.347   0.892   5.139  1.0790  0.4582  0.8717
 2035TIP3    H230301  -2.321   0.909   5.287 -1.2898  0.6802  1.2886
 2036TIP3   OH230302  -2.445  -2.622   4.525  0.2804  0.4599  0.3298
 2036TIP3    H130303  -2.378  -2.655   4.584  1.2322  0.7424 -0.5684
 2036TIP3    H230304  -2.490  -2.701   4.494  0.4790  0.2403  0.5982
 2037TIP3   OH230305  -0.691  -2.690   4.269 -0.1623 -0.6925  0.4167
 2037TIP3    H130306  -0.779  -2.697   4.232 -0.9972  0.6181  1.9793
 2037TIP3    H230307  -0.680  -2.770   4.321 -0.2707 -1.0368 -0.0872
 2038TIP3   OH230308  -1.759   0.296   5.399  0.3231  0.3965  0.4275
 2038TIP3    H130309  -1.825   0.356   5.366 -0.7303 -1.6772 -1.5344
 2038TIP3    H230310  -1.697   0.286   5.326  1.3875  0.3482  1.3116
 2039TIP3   OH230311   0.942   2.499   5.749  0.2791  0.4245  0.2946
 2039TIP3    H130312   0.891   2.419   5.762  0.3347  0.4116  0.4315
 2039TIP3    H230313   0.877   2.566   5.729  0.3601 -0.1350 -2.2202
 2040TIP3   OH230314  -0.975  -2.700   3.324  0.3096  0.2997  0.2590
 2040TIP3    H130315  -0.933  -2.615   3.337  0.7588  0.4106 -1.5967
 2040TIP3    H230316  -0.906  -2.763   3.339  0.1306  0.2806  1.0359
 2041TIP3   OH230317  -1.464   1.881   4.540  0.2874 -0.2832 -0.4307
 2041TIP3    H130318  -1.549   1.926   4.544  0.8496  0.7261  1.5574
 2041TIP3    H230319  -1.440   1.883   4.448 -1.2330  0.6129 -0.8494
 2042TIP3   OH230320  -1.275  -0.938   2.556 -0.9080  0.7490 -0.0887
 2042TIP3    H130321  -1.218  -0.919   2.481 -0.9355  0.8185 -0.0906
 2042TIP3    H230322  -1.352  -0.981   2.517 -1.0830  1.1030 -0.1391
 2043TIP3   OH230323  -2.125   1.279   2.235  0.3081 -0.0191 -0.2843
 2043TIP3    H130324  -2.202   1.273   2.178  1.4162  0.2130 -1.8755
 2043TIP3    H230325  -2.060   1.222   2.193  1.5581  1.1069  0.0694
 2044TIP3   OH230326  -1.738   1.328   5.679  0.5053 -0.4798  0.1224
 2044TIP3    H130327  -1.649   1.362   5.670  0.6585 -0.0796  2.4912
 2044TIP3    H230328  -1.727   1.233   5.681  0.8950 -0.4349  0.3777
 2045TIP3   OH230329   0.900  -0.583   5.344 -0.1291 -0.2887  0.1766
 2045TIP3    H130330   0.879  -0.518   5.411 -1.5721 -0.5079 -0.0388
 2045TIP3    H230331   0.828  -0.646   5.348 -0.3378 -0.2143 -1.6925
 2046TIP3   OH230332  -2.055   2.382   2.480 -0.8339  0.4159  0.1272
 2046TIP3    H130333  -2.026   2.326   2.552 -0.4730 -2.4108 -2.0683
 2046TIP3    H230334  -2.151   2.374   2.480 -0.7524 -0.7522 -0.5340
 2047TIP3   OH230335  -1.523   3.312   3.856 -0.5854 -0.1444  0.3882
 2047TIP3    H130336  -1.591   3.313   3.789  0.7293  0.9236 -1.0058
 2047TIP3    H230337  -1.551   3.376   3.920 -0.7979  0.4435 -0.2845
 2048TIP3   OH230338  -1.703   2.657   4.205  0.0484  0.2608  0.0441
 2048TIP3    H130339  -1.695   2.649   4.300 -1.0517  0.9249  0.2213
 2048TIP3    H230340  -1.677   2.748   4.187  0.2870  0.1258 -0.2925
 2049TIP3   OH230341  -2.395   1.906   3.644 -0.0162 -0.3171  0.0313
 2049TIP3    H130342  -2.372   1.820   3.610  0.9569 -0.6501  1.4665
 2049TIP3    H230343  -2.312   1.952   3.653 -0.5173  0.7918 -0.6946
 2050TIP3   OH230344   2.168   3.044   4.344  0.5700  0.1689  0.5043
 2050TIP3    H130345   2.229   2.987   4.391  0.1196  0.7121  1.8022
 2050TIP3    H230346   2.152   3.117   4.405 -2.3355 -0.5818  0.7754
 2051TIP3   OH230347  -2.650  -0.382   4.415 -0.6280  0.5621 -0.0060
 2051TIP3    H130348  -2.564  -0.422   4.428 -0.6340 -0.0075 -1.5214
 2051TIP3    H230349  -2.706  -0.424   4.480 -0.6376 -2.0007 -1.5490
 2052TIP3   OH230350  -0.381   1.430   4.517 -0.1490 -0.1473 -0.2089
 2052TIP3    H130351  -0.422   1.386   4.443 -0.3923  0.0003 -0.1629
 2052TIP3    H230352  -0.291   1.445   4.489 -0.2687  0.0019 -0.5158
 2053TIP3   OH230353   0.024   0.292   5.373 -0.1305  0.0845  0.0947
 2053TIP3    H130354  -0.021   0.377   5.369 -0.5090 -0.1488 -2.0999
 2053TIP3    H230355  -0.017   0.241   5.303  2.6301 -0.6065 -1.1506
 2054TIP3   OH230356  -0.846  -2.262   4.661  0.2076 -0.0374  0.0649
 2054TIP3    H130357  -0.813  -2.297   4.578 -0.0422  1.7678 -0.8678
 2054TIP3    H230358  -0.902  -2.189   4.635 -1.8520 -0.9239  1.7634
 2055TIP3   OH230359  -1.614   0.075   4.591  0.0816  0.3067 -0.3507
 2055TIP3    H130360  -1.555   0.079   4.515  2.2488  1.9680  1.2814
 2055TIP3    H230361  -1.571   0.014   4.651  0.7126  2.2044  1.2373
 2056TIP3   OH230362   2.527   0.603   5.764 -0.0645 -0.1787 -0.2957
 2056TIP3    H130363   2.601   0.660   5.745 -0.9606  0.6134 -1.6141
 2056TIP3    H230364   2.450   0.657   5.744 -0.9846 -1.2201  0.3142
 2057TIP3   OH230365  -2.744   0.536   3.893 -0.1756 -0.5895 -0.1638
 2057TIP3    H130366  -2.717   0.451   3.929 -1.6793 -2.0379 -2.2440
 2057TIP3    H230367  -2.770   0.517   3.803 -0.0215  2.2149 -0.8798
 2058TIP3   OH230368  -1.835   0.274   3.611 -0.1782 -0.2373 -1.0600
 2058TIP3    H130369  -1.762   0.213   3.619  1.3412  1.7292  2.6164
 2058TIP3    H230370  -1.830   0.306   3.521  1.9481 -1.9526 -1.6368
 2059TIP3   OH230371  -1.985  -2.835   3.039 -0.5295  0.2048  0.2783
 2059TIP3    H130372  -2.065  -2.828   3.091 -2.1198 -3.2915 -1.3566
 2059TIP3    H230373  -2.011  -2.803   2.952 -0.2472 -1.1041 -0.3020
 2060TIP3   OH230374   1.666   0.918   3.720  0.0635 -0.4209 -0.0426
 2060TIP3    H130375   1.637   0.828   3.708  0.5794 -0.5591 -0.3034
 2060TIP3    H230376   1.590   0.964   3.756  0.2455 -1.3020  1.5623
 2061TIP3   OH230377  -1.493  -2.054   2.548  0.8932 -0.2575 -0.6504
 2061TIP3    H130378  -1.477  -1.960   2.538 -0.8713  0.4975  2.3299
 2061TIP3    H230379  -1.540  -2.079   2.468  2.3964  1.0659 -2.0176
 2062TIP3   OH230380   0.248   3.201   5.304 -0.1694 -0.3654 -0.1068
 2062TIP3    H130381   0.316   3.163   5.247  0.5597  0.6671  0.0378
 2062TIP3    H230382   0.276   3.292   5.316 -0.6682 -0.3815  1.3588
 2063TIP3   OH230383   0.060   2.528   4.993 -0.8598  0.1177  0.3307
 2063TIP3    H130384   0.040   2.621   5.005 -0.6933  0.3030 -0.7276
 2063TIP3    H230385   0.083   2.497   5.081  3.2386  2.0598  0.1766
 2064TIP3   OH230386  -1.792  -0.929   5.792  0.0440 -0.1601  0.9098
 2064TIP3    H130387  -1.716  -0.902   5.742  0.0810 -1.9866 -0.0905
 2064TIP3    H230388  -1.762  -1.003   5.844 -1.1065 -1.1787  0.1943
 2065TIP3   OH230389  -2.738  -1.785   4.117  0.3078 -0.0259 -0.2099
 2065TIP3    H130390  -2.733  -1.741   4.202  2.0585  2.4137 -1.4713
 2065TIP3    H230391  -2.649  -1.781   4.083  0.0343 -2.5867 -1.4479
 2066TIP3   OH230392  -1.042   0.636   3.694  0.3599  0.3364  0.2402
 2066TIP3    H130393  -1.048   0.673   3.606 -3.7348 -1.4633 -0.4679
 2066TIP3    H230394  -1.083   0.701   3.750  0.7401  0.4369  0.4000
 2067TIP3   OH230395   0.754   2.664   5.943 -0.1627  0.2958 -0.5735
 2067TIP3    H130396   0.744   2.577   5.904 -0.6382  0.7464 -1.4973
 2067TIP3    H230397   0.676   2.712   5.916  0.7342  1.4331 -1.2543
 2068TIP3   OH230398   2.617  -2.345   4.516 -0.0636 -0.0182 -0.2926
 2068TIP3    H130399   2.576  -2.359   4.430  1.0672 -2.0496 -0.5803
 2068TIP3    H230400   2.711  -2.341   4.497  0.0692  2.1934  0.5940
 2069TIP3   OH230401  -1.200  -0.655   4.842 -0.1671 -0.3147 -0.1030
 2069TIP3    H130402  -1.245  -0.636   4.760 -0.5914  1.4374  0.4875
 2069TIP3    H230403  -1.269  -0.678   4.904  0.1958 -2.1364 -0.3408
 2070TIP3   OH230404   2.571   2.755   4.345  0.0385  0.5315  0.0547
 2070TIP3    H130405   2.523   2.811   4.285  0.8769  1.4590  0.2115
 2070TIP3    H230406   2.658   2.796   4.351  0.4205 -0.3544  0.7765
 2071TIP3   OH230407  -2.783  -0.044   3.413 -0.2367 -0.1711 -0.0344
 2071TIP3    H130408  -2.859   0.005   3.381  0.4733  0.5507 -0.6748
 2071TIP3    H230409  -2.790  -0.129   3.369 -0.2562  0.1742 -0.7223
 2072TIP3   OH230410  -2.960   1.289   5.885 -0.5958 -0.5088 -0.3932
 2072TIP3    H130411  -2.957   1.378   5.921 -2.9779 -0.7629  0.6616
 2072TIP3    H230412  -2.898   1.290   5.813  0.2601  1.6867  0.2905
 2073TIP3   OH230413  -1.287  -1.699   4.283  0.0913  0.0160  0.0385
 2073TIP3    H130414  -1.234  -1.775   4.259  0.1317 -0.1972  0.8018
 2073TIP3    H230415  -1.255  -1.673   4.369 -1.0514 -0.1265  0.5173
 2074TIP3   OH230416  -1.877   0.092   4.983  0.0137  0.2024  0.1549
 2074TIP3    H130417  -1.807   0.043   4.940  0.4316  0.4833  0.5111
 2074TIP3    H230418  -1.868   0.073   5.076 -1.0916 -0.6555  0.1123
 2075TIP3   OH230419  -1.080  -2.747   2.755  0.9359  0.2657  0.1270
 2075TIP3    H130420  -1.092  -2.690   2.831  0.1322 -0.1689  0.3328
 2075TIP3    H230421  -1.152  -2.809   2.760  0.5688  0.5528 -1.2764
 2076TIP3   OH230422   0.965  -1.641   5.060  0.4933 -0.3213  0.7924
 2076TIP3    H130423   1.025  -1.569   5.041  0.9050 -0.2496  2.2481
 2076TIP3    H230424   0.879  -1.609   5.031  0.9135  0.1108 -0.0297
 2077TIP3   OH230425   1.770   3.153   5.430  0.3404  0.1584 -0.6133
 2077TIP3    H130426   1.776   3.102   5.511  0.3643  0.7275 -0.2518
 2077TIP3    H230427   1.677   3.175   5.423  0.3896  0.3771 -0.5763
 2078TIP3   OH230428   1.727   3.229   2.007  0.3758 -0.0813  0.2528
 2078TIP3    H130429   1.791   3.283   2.053 -0.3704  0.6695  0.4546
 2078TIP3    H230430   1.736   3.254   1.915 -0.6299  1.1674  0.4509
 2079TIP3   OH230431   1.020   0.308   4.915 -0.1892  0.0051 -0.2963
 2079TIP3    H130432   0.992   0.379   4.857 -1.4991  1.7949  2.3203
 2079TIP3    H230433   1.008   0.229   4.864  0.1039  1.5521 -2.9259
 2080TIP3   OH230434   2.353   1.824   4.333 -0.2384  0.2488 -0.1473
 2080TIP3    H130435   2.314   1.757   4.277  1.6424 -0.4584 -0.6937
 2080TIP3    H230436   2.422   1.864   4.279 -0.5542  1.8404  0.5709
 2081TIP3   OH230437  -0.713   1.074   2.994  0.0701 -0.6081  0.2982
 2081TIP3    H130438  -0.665   1.091   3.075  2.7170 -0.5465 -1.1676
 2081TIP3    H230439  -0.687   1.146   2.936 -2.8631  0.1535 -0.2517
 2082TIP3   OH230440   2.970   2.490   5.061 -0.4967  0.1049 -0.2654
 2082TIP3    H130441   3.046   2.518   5.113 -0.1043 -1.7532  0.2352
 2082TIP3    H230442   2.914   2.444   5.124  0.3892 -2.9615 -1.5349
 2083TIP3   OH230443   1.019   0.660   5.015 -0.0120  0.1497  0.2731
 2083TIP3    H130444   0.974   0.587   5.058 -1.9649  1.0560 -0.1327
 2083TIP3    H230445   1.019   0.730   5.080  0.8495  0.1746  0.2606
 2084TIP3   OH230446  -1.528   2.251   3.917 -0.1597  0.1946  0.1285
 2084TIP3    H130447  -1.613   2.237   3.876  0.0326  2.6258 -1.2889
 2084TIP3    H230448  -1.546   2.308   3.991  0.0469 -0.7880  0.9619
 2085TIP3   OH230449  -2.194  -3.201   4.758  0.0940  0.1466  0.0062
 2085TIP3    H130450  -2.101  -3.204   4.780  0.0273  2.0642  0.7330
 2085TIP3    H230451  -2.237  -3.248   4.829  0.5421 -2.1622 -1.1229
 2086TIP3   OH230452   1.925  -0.209   4.997 -0.5233  0.2667  0.3727
 2086TIP3    H130453   1.908  -0.188   4.905 -0.3395  1.6929  0.6391
 2086TIP3    H230454   1.945  -0.302   4.998 -0.5211  0.2428 -1.0316
 2087TIP3   OH230455   0.047   0.823   3.358 -0.0829 -0.9131  0.4743
 2087TIP3    H130456  -0.019   0.889   3.335  0.0693 -0.6621  0.7444
 2087TIP3    H230457   0.001   0.740   3.352  0.0039 -0.8732 -0.9017
 2088TIP3   OH230458  -3.180   2.785   3.574  0.1801 -0.9452 -0.8433
 2088TIP3    H130459  -3.221   2.792   3.487 -0.6384 -0.1540 -0.4199
 2088TIP3    H230460  -3.201   2.869   3.616  0.0592 -1.5436  0.3313
 2089TIP3   OH230461   1.233  -1.065   3.936 -0.1220 -0.0628  0.2703
 2089TIP3    H130462   1.322  -1.068   3.900 -0.5128  0.9594 -0.8355
 2089TIP3    H230463   1.240  -1.004   4.009  0.6827 -2.1801  2.0939
 2090TIP3   OH230464   2.976  -1.760   5.161 -0.0143  0.3270  0.0150
 2090TIP3    H130465   2.907  -1.784   5.223 -0.0352  0.4729  0.0492
 2090TIP3    H230466   3.020  -1.685   5.203  1.3528 -0.9149  0.8786
 2091TIP3   OH230467   3.239  -0.164   5.613 -0.1992 -0.1175 -0.3627
 2091TIP3    H130468   3.188  -0.245   5.621  1.4890 -1.2256 -0.3391
 2091TIP3    H230469   3.320  -0.182   5.661  0.4728  1.3855 -0.8718
 2092TIP3   OH230470   2.657   2.506   3.496 -0.0446 -0.6334  0.2732
 2092TIP3    H130471   2.728   2.485   3.556  1.2858  0.1911 -0.9457
 2092TIP3    H230472   2.670   2.448   3.421 -0.5417 -0.3359 -0.0547
 2093TIP3   OH230473   2.838  -1.668   5.637  0.0796 -0.2395  0.2291
 2093TIP3    H130474   2.914  -1.715   5.604  0.7408  0.6320  0.4885
 2093TIP3    H230475   2.811  -1.718   5.714 -0.1540 -1.0420 -0.3567
 2094TIP3   OH230476  -2.211   2.162   3.931  0.1637 -0.2310 -0.5072
 2094TIP3    H130477  -2.304   2.158   3.949 -0.2844  0.9070 -2.3117
 2094TIP3    H230478  -2.199   2.243   3.882  2.6158  1.3526  2.3796
 2095TIP3   OH230479  -0.866  -2.974   1.961  0.3219  0.4766 -0.1401
 2095TIP3    H130480  -0.774  -3.000   1.965 -0.1497 -1.3367 -0.3195
 2095TIP3    H230481  -0.912  -3.053   1.932 -1.2963  1.3492 -0.0457
 2096TIP3   OH230482  -0.155   2.260   3.983  0.1253  0.5145  0.0528
 2096TIP3    H130483  -0.087   2.208   3.941  0.5785 -0.3540  1.7571
 2096TIP3    H230484  -0.111   2.340   4.011  0.1289  0.5469 -0.0482
 2097TIP3   OH230485   2.247   0.955   4.862 -0.7755 -0.4824  0.4295
 2097TIP3    H130486   2.223   0.900   4.787 -1.0043 -1.0671  0.9314
 2097TIP3    H230487   2.186   0.930   4.931  0.4871 -1.1398  1.3431
 2098TIP3   OH230488  -0.270  -3.323   3.798  0.0556 -0.2213 -0.0748
 2098TIP3    H130489  -0.309  -3.389   3.855 -1.7863  1.3768  0.6382
 2098TIP3    H230490  -0.208  -3.277   3.854 -0.3707  0.1319  0.1147
 2099TIP3   OH230491   0.287   0.635   3.604  0.0833  0.3897  0.0806
 2099TIP3    H130492   0.274   0.728   3.624  1.6661  0.2991  1.8950
 2099TIP3    H230493   0.293   0.631   3.509 -2.9729  1.6689 -0.2983
 2100TIP3   OH230494   0.254  -1.115   4.609 -0.2183 -0.1596  0.2442
 2100TIP3    H130495   0.234  -1.082   4.521 -2.1363 -1.0661  0.2920
 2100TIP3    H230496   0.333  -1.168   4.596  0.0193  0.3931 -0.7534
 2101TIP3   OH230497  -0.014  -1.135   5.044 -0.1014  0.0811 -0.0669
 2101TIP3    H130498   0.041  -1.112   4.970 -0.6852  2.2613  0.0972
 2101TIP3    H230499   0.044  -1.129   5.120  0.0553 -0.2685 -0.1603
 2102TIP3   OH230500  -0.362   0.125   5.063  0.0535  0.2061  0.2128
 2102TIP3    H130501  -0.420   0.177   5.007 -0.2887 -0.7102 -0.3003
 2102TIP3    H230502  -0.418   0.100   5.137 -0.1284 -0.4513 -0.1467
 2103TIP3   OH230503   1.257  -2.507   4.290  0.2555 -0.0677  0.4921
 2103TIP3    H130504   1.233  -2.526   4.200  2.3241  0.0122 -0.1490
 2103TIP3    H230505   1.303  -2.423   4.284  0.0003  0.1724  1.7055
 2104TIP3   OH230506   1.857  -2.044   4.768  0.1401 -0.2373 -0.9200
 2104TIP3    H130507   1.827  -2.023   4.680  0.5609  0.9497 -0.8064
 2104TIP3    H230508   1.812  -2.125   4.791 -0.0088 -0.5381 -2.2031
 2105TIP3   OH230509   1.346  -2.072   3.408 -0.0770  0.2639  0.4208
 2105TIP3    H130510   1.412  -2.100   3.471 -1.0344 -1.2526  0.7707
 2105TIP3    H230511   1.265  -2.113   3.437 -0.9852  1.2761 -0.5874
 2106TIP3   OH230512  -3.307  -0.201   3.025  0.2283 -0.2058 -0.3952
 2106TIP3    H130513  -3.377  -0.199   2.959 -1.5723 -1.1023  1.4052
 2106TIP3    H230514  -3.250  -0.128   3.001 -1.5759  0.8656 -1.6685
 2107TIP3   OH230515   1.637  -1.155   5.435  0.3024 -0.1601  0.3064
 2107TIP3    H130516   1.596  -1.076   5.471  1.5553  0.4702  0.3803
 2107TIP3    H230517   1.643  -1.215   5.509 -0.2106 -0.1564  0.3572
 2108TIP3   OH230518  -2.228   0.200   2.911  0.6408 -0.0972 -0.2721
 2108TIP3    H130519  -2.143   0.243   2.925  0.7868 -0.8230  1.2678
 2108TIP3    H230520  -2.205   0.111   2.882  0.4329 -0.4331  0.5652
 2109TIP3   OH230521   1.457   1.757   4.935 -0.9880  0.5827 -0.2734
 2109TIP3    H130522   1.516   1.708   4.878 -2.7229  0.1929 -1.8264
 2109TIP3    H230523   1.514   1.817   4.983  0.6288  0.5021 -1.9915
 2110TIP3   OH230524  -1.940  -2.885   5.293  0.6029  0.2994 -0.3249
 2110TIP3    H130525  -1.851  -2.866   5.322  0.9115 -0.4528 -0.7580
 2110TIP3    H230526  -1.937  -2.975   5.261 -0.4241  0.0903  0.0984
 2111TIP3   OH230527  -2.244  -3.267   2.625 -0.5245  0.2943 -0.1769
 2111TIP3    H130528  -2.170  -3.213   2.597 -0.3012  0.6460  1.0567
 2111TIP3    H230529  -2.321  -3.215   2.602 -0.4243 -0.1217 -1.5704
 2112TIP3   OH230530  -1.083   2.111   2.924 -0.2356  0.2755  0.3097
 2112TIP3    H130531  -1.072   2.073   2.836  2.4157 -0.1080  0.7425
 2112TIP3    H230532  -1.178   2.125   2.931 -0.8683 -2.2721 -1.5177
 2113TIP3   OH230533   0.228   2.066   5.705 -0.8549  0.0933 -0.1692
 2113TIP3    H130534   0.230   2.106   5.618  0.7867  0.2211 -0.0980
 2113TIP3    H230535   0.316   2.081   5.740 -0.7140 -2.1403  0.5348
 2114TIP3   OH230536   0.434  -1.792   5.140 -0.8742 -0.4185  0.1161
 2114TIP3    H130537   0.476  -1.754   5.217 -1.2705 -0.6241  0.4385
 2114TIP3    H230538   0.342  -1.769   5.149 -0.7619  0.5232 -0.8765
 2115TIP3   OH230539   1.513   0.442   4.669 -0.1769  0.3134  0.5344
 2115TIP3    H130540   1.568   0.501   4.617 -2.1674  4.6583  2.8247
 2115TIP3    H230541   1.431   0.490   4.680 -3.4272 -4.4035 -0.0051
 2116TIP3   OH230542   0.730   1.298   4.741 -0.1770 -0.0887 -0.0864
 2116TIP3    H130543   0.799   1.233   4.728 -1.1055 -1.1300  0.0882
 2116TIP3    H230544   0.656   1.266   4.690 -0.4801  1.1320 -0.4449
 2117TIP3   OH230545  -0.610  -2.896   5.446  0.2887  0.2384 -0.0176
 2117TIP3    H130546  -0.538  -2.938   5.492  0.7239 -0.3260 -1.1732
 2117TIP3    H230547  -0.585  -2.804   5.442 -0.5828  0.6435  2.3634
 2118TIP3   OH230548  -1.851   2.437   3.769 -0.1019 -0.6623  0.1365
 2118TIP3    H130549  -1.891   2.489   3.838  0.4182 -0.6634  0.4444
 2118TIP3    H230550  -1.822   2.502   3.705  1.0823 -0.5109  0.8019
 2119TIP3   OH230551  -0.273   3.211   4.240  0.4171 -0.4379  0.1394
 2119TIP3    H130552  -0.296   3.118   4.230  0.5813 -0.5760  0.9169
 2119TIP3    H230553  -0.183   3.210   4.271  0.8536  0.0368 -1.0723
 2120TIP3   OH230554  -0.841   2.824   4.096  0.7995 -1.4472 -0.0352
 2120TIP3    H130555  -0.811   2.783   4.177  1.5957 -0.5702  0.1302
 2120TIP3    H230556  -0.770   2.884   4.071  0.9087 -2.2117 -1.7589
 2121TIP3   OH230557   1.655  -1.862   3.335 -0.4114 -0.2852 -0.2009
 2121TIP3    H130558   1.651  -1.825   3.247  0.0348 -1.7860 -0.8807
 2121TIP3    H230559   1.721  -1.930   3.330 -1.2177 -1.2091  0.9897
 2122TIP3   OH230560  -2.115   2.329   3.437 -0.3091  0.1557  0.4444
 2122TIP3    H130561  -2.054   2.322   3.364 -0.3773 -1.6608  0.5135
 2122TIP3    H230562  -2.166   2.408   3.418  0.9630  0.7897 -0.4496
 2123TIP3   OH230563   0.347  -2.760   4.493  0.3759  0.1357 -0.1424
 2123TIP3    H130564   0.379  -2.757   4.402  2.9256 -1.0443  0.6378
 2123TIP3    H230565   0.300  -2.843   4.498 -1.1456  0.9233 -0.7501
 2124TIP3   OH230566  -2.872  -1.454   4.692  0.3335 -0.1274 -0.4807
 2124TIP3    H130567  -2.967  -1.452   4.700  0.3101 -0.0862 -0.7765
 2124TIP3    H230568  -2.846  -1.362   4.696  0.3479 -0.1281 -0.5567
 2125TIP3   OH230569  -1.962  -0.914   3.858 -1.1651  0.2863  0.3855
 2125TIP3    H130570  -1.906  -0.911   3.935 -0.4824 -3.2612  0.2069
 2125TIP3    H230571  -1.909  -0.876   3.788 -0.7199  0.9749  1.0792
 2126TIP3   OH230572   2.338  -0.346   4.435 -0.2699 -0.0060 -0.6411
 2126TIP3    H130573   2.246  -0.320   4.435  0.3294  2.4201 -2.3879
 2126TIP3    H230574   2.353  -0.380   4.523 -2.5544  0.6279  0.0602
 2127TIP3   OH230575   1.239   2.062   4.292  0.4917  0.1592  0.3540
 2127TIP3    H130576   1.191   2.108   4.361  0.0739  0.1869  0.0495
 2127TIP3    H230577   1.319   2.032   4.334  1.6132  2.6407  0.1511
 2128TIP3   OH230578   1.725   3.049   6.043  0.4636 -0.1219 -0.3795
 2128TIP3    H130579   1.724   3.069   6.136  0.7060 -0.2650 -0.3449
 2128TIP3    H230580   1.642   3.083   6.010  0.3410 -0.1451 -0.0968
 2129TIP3   OH230581  -1.077  -1.758   3.032  0.8689  0.0539  0.1349
 2129TIP3    H130582  -1.058  -1.851   3.019  0.0681 -0.0154 -0.6918
 2129TIP3    H230583  -1.171  -1.750   3.013  0.8030  0.9358  0.7596
 2130TIP3   OH230584  -0.808  -2.504   3.873  0.1997 -0.0238 -0.1599
 2130TIP3    H130585  -0.822  -2.598   3.862 -0.6775  0.1664 -0.8365
 2130TIP3    H230586  -0.895  -2.465   3.858  0.4421  0.8573  0.6044
 2131TIP3   OH230587   2.743  -2.417   4.939 -0.0285 -0.0526  0.2378
 2131TIP3    H130588   2.723  -2.506   4.912 -0.9701  0.1329  0.2817
 2131TIP3    H230589   2.714  -2.363   4.865 -1.4028  0.3607  1.0499
 2132TIP3   OH230590   0.003   1.354   3.829  0.4750  0.5316  0.6419
 2132TIP3    H130591   0.036   1.267   3.854  0.7481  0.9973  1.9920
 2132TIP3    H230592  -0.085   1.357   3.865  0.6901  1.0404  1.1361
 2133TIP3   OH230593   3.287  -2.471   3.992  0.2982 -0.0434 -0.2258
 2133TIP3    H130594   3.292  -2.520   4.073  1.1542 -3.5052 -2.1604
 2133TIP3    H230595   3.369  -2.422   3.989  0.5897 -0.4596  0.6436
 2134TIP3   OH230596   3.185   2.070   4.233  0.2376 -0.0112  0.5257
 2134TIP3    H130597   3.179   1.975   4.240  1.5581 -0.2115 -0.5481
 2134TIP3    H230598   3.102   2.102   4.266  0.1714 -1.4778  1.9067
 2135TIP3   OH230599   0.485   0.667   2.291  0.1782  0.2304 -0.8239
 2135TIP3    H130600   0.473   0.601   2.360 -2.7082  0.4989 -0.9557
 2135TIP3    H230601   0.580   0.676   2.284  0.6960 -3.0045  0.0433
 2136TIP3   OH230602  -1.936  -2.944   4.288  0.5202  0.4397 -0.0382
 2136TIP3    H130603  -1.846  -2.950   4.320  0.2814 -0.4972  0.5122
 2136TIP3    H230604  -1.989  -2.930   4.367 -0.1533 -2.6319  0.1917
 2137TIP3   OH230605  -2.139   1.013   2.825 -0.7793  0.0868 -0.3198
 2137TIP3    H130606  -2.064   1.011   2.886  0.3707  1.3007 -1.6070
 2137TIP3    H230607  -2.145   0.924   2.791  0.0583 -0.0496 -0.1357
 2138TIP3   OH230608   2.983   0.182   4.007 -0.0297  0.0412 -0.0639
 2138TIP3    H130609   2.998   0.159   4.099  1.3985  0.7383 -0.0841
 2138TIP3    H230610   2.990   0.099   3.960  1.5890 -0.0265  0.2294
 2139TIP3   OH230611   0.820   2.789   3.272  0.4382 -0.1807  0.0223
 2139TIP3    H130612   0.889   2.737   3.312  2.5031  1.5298 -1.1344
 2139TIP3    H230613   0.792   2.739   3.196  0.9330 -0.5445  0.0784
 2140TIP3   OH230614   1.250   0.066   5.011 -0.3894 -0.0154  0.3259
 2140TIP3    H130615   1.164   0.097   5.039 -0.1930  1.5583 -0.7207
 2140TIP3    H230616   1.241  -0.029   5.005 -1.4398 -0.0680  2.2232
 2141TIP3   OH230617   2.844  -1.534   4.856  0.0291  0.5508  0.6517
 2141TIP3    H130618   2.839  -1.489   4.772 -0.6610  0.8003  0.8165
 2141TIP3    H230619   2.753  -1.559   4.875  0.2826 -0.1509  0.9754
 2142TIP3   OH230620   2.173   1.661   3.107 -0.2678  0.0666  0.4203
 2142TIP3    H130621   2.166   1.591   3.172  0.0603 -0.6830 -0.3350
 2142TIP3    H230622   2.087   1.663   3.065  0.0333 -0.5928 -0.2545
 2143TIP3   OH230623   2.113   1.204   3.010  0.5772 -0.2366 -0.0142
 2143TIP3    H130624   2.206   1.210   3.033  0.9682 -2.8063 -0.5468
 2143TIP3    H230625   2.067   1.206   3.094  0.9651  2.0732  0.2070
 2144TIP3   OH230626   2.453   3.213   2.803  0.0040 -0.3815  0.1362
 2144TIP3    H130627   2.441   3.295   2.852  3.0665  0.9663 -1.1345
 2144TIP3    H230628   2.465   3.240   2.713 -1.2166 -2.4992 -0.7459
 2145TIP3   OH230629  -2.751   0.059   5.373  0.4540  0.4683  0.2188
 2145TIP3    H130630  -2.843   0.076   5.397  0.7765  2.2058  0.3906
 2145TIP3    H230631  -2.701   0.102   5.442  1.3897  1.0309 -0.7817
 2146TIP3   OH230632  -0.999  -1.198   3.655  0.0903 -0.1511  0.0575
 2146TIP3    H130633  -0.957  -1.211   3.740 -0.2732 -1.2794  0.0824
 2146TIP3    H230634  -0.932  -1.222   3.591 -0.6648 -2.7330  0.1051
 2147TIP3   OH230635  -1.087  -1.044   3.449  0.6294 -0.2864 -0.7309
 2147TIP3    H130636  -1.174  -1.077   3.425  0.4103 -0.0266 -0.2965
 2147TIP3    H230637  -1.063  -1.093   3.527  0.3583  0.4793 -0.1553
 2148TIP3   OH230638  -1.573   0.866   3.052 -0.3790 -0.1443  0.2094
 2148TIP3    H130639  -1.589   0.858   3.147 -0.0305  2.1083  0.5286
 2148TIP3    H230640  -1.481   0.891   3.045 -0.3424 -0.5176 -0.7451
 2149TIP3   OH230641  -0.244  -1.894   5.508  0.0134  0.2208  0.0984
 2149TIP3    H130642  -0.213  -1.855   5.426  0.2845 -1.4621 -0.6409
 2149TIP3    H230643  -0.189  -1.972   5.520 -1.9227 -1.1559  0.3567
 2150TIP3   OH230644  -0.168   2.800   5.339  0.2924 -0.5936  0.0545
 2150TIP3    H130645  -0.222   2.730   5.377 -0.7497 -0.0017 -0.2902
 2150TIP3    H230646  -0.180   2.790   5.244  1.4659 -0.9690 -0.0643
 2151TIP3   OH230647   2.125  -1.785   5.107 -0.0478  0.5021 -0.4435
 2151TIP3    H130648   2.125  -1.797   5.012 -0.8733  1.1748 -0.5353
 2151TIP3    H230649   2.068  -1.710   5.122  0.9195  1.0727  0.5103
 2152TIP3   OH230650  -2.020  -3.054   5.068  0.1815 -0.4542 -0.1183
 2152TIP3    H130651  -2.028  -2.981   5.007 -0.2602 -2.6738 -2.9308
 2152TIP3    H230652  -1.932  -3.088   5.055  0.4010 -0.4534  1.1819
 2153TIP3   OH230653  -2.161  -1.594   5.687 -0.1073 -0.0780  0.0693
 2153TIP3    H130654  -2.194  -1.510   5.654  0.0386  0.0147  0.1586
 2153TIP3    H230655  -2.237  -1.653   5.683 -0.4443  0.2941  0.8480
 2154TIP3   OH230656  -2.097  -2.208   2.980  0.0979 -0.4547 -0.0566
 2154TIP3    H130657  -2.129  -2.131   2.933 -1.8459 -0.6059  0.9217
 2154TIP3    H230658  -2.103  -2.279   2.916 -0.4610 -0.2441 -0.2509
 2155TIP3   OH230659   3.277   1.534   3.569 -0.5617 -0.0678 -0.3231
 2155TIP3    H130660   3.311   1.484   3.495  0.5430  0.0558  0.0854
 2155TIP3    H230661   3.328   1.504   3.644  1.9400  3.3561 -0.4396
 2156TIP3   OH230662   0.556  -0.979   4.260  0.0627  0.2778 -0.1379
 2156TIP3    H130663   0.501  -0.914   4.217  1.4188  2.5082  1.2858
 2156TIP3    H230664   0.644  -0.961   4.229  0.8478  0.9278  2.2726
 2157TIP3   OH230665   0.441   3.110   4.856  0.2260 -0.8786  0.5722
 2157TIP3    H130666   0.402   3.058   4.786  0.4392 -2.3235  1.5058
 2157TIP3    H230667   0.423   3.201   4.830 -0.2718 -1.3881 -1.0116
 2158TIP3   OH230668  -1.392   0.256   4.214  0.6590 -0.5425  0.3381
 2158TIP3    H130669  -1.428   0.344   4.209  1.9077 -0.0794 -1.9347
 2158TIP3    H230670  -1.419   0.214   4.132  3.0808 -1.0070 -0.3106
 2159TIP3   OH230671  -2.073   0.357   4.577 -0.2259 -0.0867  0.1620
 2159TIP3    H130672  -2.093   0.420   4.646  0.9401 -0.4265  0.8363
 2159TIP3    H230673  -1.977   0.353   4.575 -0.2597 -0.7250 -0.8940
 2160TIP3   OH230674   0.727   1.576   4.026 -0.1413 -0.0595  0.0304
 2160TIP3    H130675   0.762   1.636   4.093 -0.9401 -0.7724  1.1277
 2160TIP3    H230676   0.777   1.495   4.038  0.0238 -0.0476 -0.5556
 2161TIP3   OH230677   0.746  -0.469   3.812  0.2693 -0.2090  0.1879
 2161TIP3    H130678   0.701  -0.538   3.861 -1.2208 -0.5568 -1.5603
 2161TIP3    H230679   0.837  -0.498   3.809  0.1100 -0.9289  1.4408
 2162TIP3   OH230680   2.860  -1.939   3.824 -0.3474  0.3740  0.4728
 2162TIP3    H130681   2.802  -1.992   3.770  0.5813 -0.2730  0.0980
 2162TIP3    H230682   2.832  -1.849   3.807  0.1150  0.2161 -1.3224
 2163TIP3   OH230683  -0.035   2.481   3.212 -0.5204 -0.0508 -0.1182
 2163TIP3    H130684   0.049   2.505   3.174 -1.8951 -1.5327 -4.7148
 2163TIP3    H230685  -0.027   2.389   3.235 -0.7626 -0.1215 -0.3023
 2164TIP3   OH230686  -1.598   2.420   2.854  0.1450 -0.0818  0.0051
 2164TIP3    H130687  -1.579   2.499   2.906 -0.9513  0.5181 -0.4714
 2164TIP3    H230688  -1.641   2.361   2.916 -0.2222  0.2237  0.0482
 2165TIP3   OH230689   0.185  -3.277   5.599 -0.3071 -0.1373  0.9314
 2165TIP3    H130690   0.126  -3.203   5.612  0.2016  0.7488 -1.2702
 2165TIP3    H230691   0.264  -3.254   5.649 -0.2138  0.7521  0.3909
 2166TIP3   OH230692  -2.963  -2.132   4.154 -0.1975 -0.4783  0.2914
 2166TIP3    H130693  -2.992  -2.191   4.085  1.6775 -0.2519 -0.7559
 2166TIP3    H230694  -2.869  -2.146   4.159 -0.1261  0.3680  2.0220
 2167TIP3   OH230695  -2.810  -2.368   4.328  0.0273 -0.1652  0.0000
 2167TIP3    H130696  -2.738  -2.386   4.268  0.5936  0.0565  0.6056
 2167TIP3    H230697  -2.837  -2.454   4.359 -0.3927 -0.2983 -0.6979
 2168TIP3   OH230698  -3.150   3.343   3.009  0.0552  0.0520  0.3067
 2168TIP3    H130699  -3.218   3.284   2.976  1.4976  0.4307 -3.9394
 2168TIP3    H230700  -3.191   3.429   3.009  0.1730  0.1284 -1.2418
 2169TIP3   OH230701  -2.801   1.418   2.678 -0.2227  0.2009  0.4153
 2169TIP3    H130702  -2.869   1.472   2.637  0.8673  2.0567  0.9387
 2169TIP3    H230703  -2.809   1.436   2.772  1.4759  1.1225  0.4266
 2170TIP3   OH230704  -2.448  -1.138   4.024 -0.2408 -0.0799 -0.2868
 2170TIP3    H130705  -2.373  -1.143   3.965  0.3702  0.4651  0.4316
 2170TIP3    H230706  -2.436  -1.212   4.084 -1.1614 -0.9743 -1.1645
 2171TIP3   OH230707   1.978  -2.700   3.068 -0.2521  0.3919  0.5658
 2171TIP3    H130708   1.995  -2.685   2.976 -0.5950 -1.8145  0.0971
 2171TIP3    H230709   1.988  -2.794   3.080 -0.8754  0.5337  2.6405
 2172TIP3   OH230710   3.184   0.002   2.935  0.1362 -0.4667 -0.5597
 2172TIP3    H130711   3.125  -0.007   3.010  0.2417 -0.8731 -0.5217
 2172TIP3    H230712   3.176   0.093   2.908  1.4979  0.2175  1.1359
 2173TIP3   OH230713   1.807  -3.269   5.823  0.2501 -0.6155 -0.2041
 2173TIP3    H130714   1.847  -3.356   5.821 -0.4450 -0.9181 -1.3490
 2173TIP3    H230715   1.856  -3.218   5.759 -0.0566 -0.4764 -0.3278
 2174TIP3   OH230716  -0.898  -0.570   2.194 -0.3784  0.3576 -0.1213
 2174TIP3    H130717  -0.942  -0.553   2.277 -1.4121 -1.0937 -0.3195
 2174TIP3    H230718  -0.838  -0.642   2.212  0.9574  1.4277 -0.1751
 2175TIP3   OH230719  -3.050   1.931   5.692 -0.5252  0.0233 -0.2416
 2175TIP3    H130720  -3.027   1.967   5.607  1.2462  1.4913  0.7700
 2175TIP3    H230721  -3.124   1.984   5.722 -1.5131 -0.8631 -1.0797
 2176TIP3   OH230722  -0.334  -3.130   3.614 -0.0457 -0.2282 -0.1737
 2176TIP3    H130723  -0.341  -3.158   3.705  1.7749 -1.7988 -0.4552
 2176TIP3    H230724  -0.242  -3.105   3.603 -0.2246 -0.0891 -1.5853
 2177TIP3   OH230725  -0.851   2.985   4.935  0.3120  0.3693 -0.1165
 2177TIP3    H130726  -0.886   3.031   5.011 -0.4655 -0.9891  0.3954
 2177TIP3    H230727  -0.788   2.923   4.971  1.0238  0.7216 -0.7370
 2178TIP3   OH230728   1.547  -1.877   4.770 -0.7160 -0.3622 -0.2038
 2178TIP3    H130729   1.592  -1.910   4.847 -0.1836  1.8871  0.5265
 2178TIP3    H230730   1.611  -1.885   4.699 -0.4166 -0.4160  0.0713
 2179TIP3   OH230731  -0.214  -0.776   4.281 -0.0873  0.5058 -0.5015
 2179TIP3    H130732  -0.157  -0.701   4.298  1.9499 -1.2793  1.2618
 2179TIP3    H230733  -0.171  -0.823   4.209  0.6157 -0.7007  0.6491
 2180TIP3   OH230734  -0.281   1.831   3.500  0.5152  0.1384 -0.2710
 2180TIP3    H130735  -0.308   1.749   3.460 -0.3271 -0.3519  1.2272
 2180TIP3    H230736  -0.186   1.835   3.484  0.3205 -0.3602 -1.6606
 2181TIP3   OH230737   1.438   2.214   3.965  0.3659 -0.1790 -0.1292
 2181TIP3    H130738   1.348   2.190   3.943  0.1873 -1.4654  1.7863
 2181TIP3    H230739   1.435   2.308   3.983 -0.5102 -0.1442 -0.4197
 2182TIP3   OH230740  -0.485   3.357   4.290 -0.8421 -0.2779  0.4629
 2182TIP3    H130741  -0.409   3.301   4.277  0.8173  1.7151  0.9502
 2182TIP3    H230742  -0.475   3.426   4.224 -1.7461  0.4696  1.0906
 2183TIP3   OH230743   2.848   1.365   3.162 -0.5591  0.9614  0.0268
 2183TIP3    H130744   2.846   1.408   3.248  0.0817  1.9018 -0.4112
 2183TIP3    H230745   2.756   1.360   3.136 -0.6663  2.0120  0.1369
 2184TIP3   OH230746   2.480   2.250   4.654  0.1332 -0.8849 -0.0628
 2184TIP3    H130747   2.435   2.282   4.576  2.3243  0.2735 -0.9341
 2184TIP3    H230748   2.567   2.226   4.624  0.0936 -3.3402  1.4997
 2185TIP3   OH230749  -1.847  -2.415   4.688  0.2548 -0.2272  0.3434
 2185TIP3    H130750  -1.925  -2.451   4.730 -0.5326 -0.2456 -1.0709
 2185TIP3    H230751  -1.823  -2.479   4.621 -0.0288  0.9454 -0.9231
 2186TIP3   OH230752  -1.642  -1.811   4.572 -0.1816  0.2200  0.3939
 2186TIP3    H130753  -1.681  -1.863   4.502  2.3202  1.1270 -1.8312
 2186TIP3    H230754  -1.550  -1.840   4.575  0.2907  1.7115  1.8151
 2187TIP3   OH230755   3.048   0.063   4.259  0.8766 -0.2907 -0.3747
 2187TIP3    H130756   3.090  -0.008   4.209  1.0805 -0.1890 -0.3488
 2187TIP3    H230757   3.005   0.018   4.332  2.6662 -0.2082  0.7730
 2188TIP3   OH230758  -0.953   0.673   3.123 -0.0469  0.3415 -0.2240
 2188TIP3    H130759  -0.977   0.726   3.047  1.5039  1.7261  0.1781
 2188TIP3    H230760  -0.934   0.737   3.192  0.9066 -0.7747  0.5953
 2189TIP3   OH230761   0.332   2.880   4.965 -0.7345 -0.2562  0.6456
 2189TIP3    H130762   0.408   2.831   4.933 -0.0896 -0.6205  2.5573
 2189TIP3    H230763   0.351   2.971   4.943  0.6854 -0.2391  1.7989
 2190TIP3   OH230764  -2.294   0.181   3.451 -0.0417  0.7415  1.0541
 2190TIP3    H130765  -2.227   0.120   3.483  0.3875 -1.5523 -3.4923
 2190TIP3    H230766  -2.375   0.130   3.451 -0.1364  0.8290 -0.6876
 2191TIP3   OH230767   2.680   3.173   4.519  0.1328 -0.5899 -0.6429
 2191TIP3    H130768   2.767   3.214   4.519 -0.3449  0.5090 -1.9792
 2191TIP3    H230769   2.629   3.226   4.581 -0.0899 -0.0291 -1.2916
 2192TIP3   OH230770   0.804  -2.223   3.660  0.6480 -0.4333  0.6075
 2192TIP3    H130771   0.816  -2.129   3.672 -0.6262  0.1529 -1.8256
 2192TIP3    H230772   0.745  -2.230   3.584  2.3440 -3.2173 -0.6272
 2193TIP3   OH230773   3.186   0.669   3.684 -0.1705 -0.4984 -0.1932
 2193TIP3    H130774   3.241   0.596   3.716 -1.1035 -0.9280  0.4759
 2193TIP3    H230775   3.237   0.747   3.704  0.2846 -0.9006  0.2716
 2194TIP3   OH230776  -2.196   0.728   5.291  0.9207  1.1732  0.0107
 2194TIP3    H130777  -2.210   0.668   5.365  1.1448  0.7273 -0.3031
 2194TIP3    H230778  -2.142   0.678   5.230  1.5810  1.9003 -0.0101
 2195TIP3   OH230779   1.299  -0.292   4.809  0.4777 -0.3991  0.0863
 2195TIP3    H130780   1.377  -0.344   4.830 -0.1474 -1.1760  0.5281
 2195TIP3    H230781   1.310  -0.268   4.717  0.5203 -1.7805 -0.2856
 2196TIP3   OH230782   3.178   1.788   4.003 -0.0477  0.3496 -0.1474
 2196TIP3    H130783   3.221   1.717   3.956 -1.1611  1.0226 -2.3459
 2196TIP3    H230784   3.249   1.847   4.028  0.5518  0.4134 -1.8618
 2197TIP3   OH230785  -2.420  -1.270   5.155  0.1416  0.9599 -0.0324
 2197TIP3    H130786  -2.341  -1.323   5.145 -0.7780 -0.5115  0.2761
 2197TIP3    H230787  -2.451  -1.288   5.243 -0.7090  1.2939 -0.2495
 2198TIP3   OH230788  -1.234  -2.734   3.422  0.4001 -0.8151  0.3041
 2198TIP3    H130789  -1.303  -2.747   3.357 -0.0370  0.1478  0.5493
 2198TIP3    H230790  -1.153  -2.729   3.370  0.1152 -0.5573 -0.1290
 2199TIP3   OH230791   1.373  -2.979   4.350 -0.1744 -0.4966  0.4479
 2199TIP3    H130792   1.444  -2.972   4.414 -0.4201 -2.1717  0.9485
 2199TIP3    H230793   1.400  -3.050   4.292 -0.6354  0.0379 -0.4337
 2200TIP3   OH230794  -0.321  -0.523   4.780  0.0629  0.6011  0.2443
 2200TIP3    H130795  -0.279  -0.563   4.856  0.2986  1.9594  0.8608
 2200TIP3    H230796  -0.279  -0.565   4.704 -1.3681 -2.0062  0.7880
 2201TIP3   OH230797  -2.057   1.208   5.305 -0.2907 -0.5464 -0.2026
 2201TIP3    H130798  -2.037   1.298   5.280  1.6988 -0.4684  1.3984
 2201TIP3    H230799  -2.150   1.208   5.327 -0.9095  0.4923 -2.5909
 2202TIP3   OH230800   1.569  -1.070   4.996 -0.3493 -0.0502  0.1282
 2202TIP3    H130801   1.558  -1.021   5.077 -2.0146 -0.5504  0.2568
 2202TIP3    H230802   1.566  -1.162   5.023 -1.2073 -0.2260 -0.5030
 2203TIP3   OH230803  -0.006   1.260   5.097 -0.1880  0.2152 -0.0722
 2203TIP3    H130804   0.046   1.263   5.016  2.2685 -2.1962  1.2737
 2203TIP3    H230805  -0.095   1.281   5.069  1.1457  3.0684 -2.7720
 2204TIP3   OH230806  -2.341  -0.260   5.820  0.1569  0.0070  0.1147
 2204TIP3    H130807  -2.433  -0.234   5.824  0.1467 -0.0454  0.2175
 2204TIP3    H230808  -2.340  -0.335   5.760  0.5447  1.8343 -2.2996
 2205TIP3   OH230809  -0.298  -2.490   4.842  0.2532  0.5616 -0.0839
 2205TIP3    H130810  -0.304  -2.432   4.917 -0.4059 -0.1317  0.4114
 2205TIP3    H230811  -0.301  -2.578   4.879  0.3888  0.2084 -0.8827
 2206TIP3   OH230812  -3.219  -1.235   4.865  0.2690  0.3680  0.1897
 2206TIP3    H130813  -3.143  -1.177   4.855 -0.5204  1.4692  0.4097
 2206TIP3    H230814  -3.222  -1.284   4.783  1.2122  0.3108  0.1771
 2207TIP3   OH230815  -0.290   0.437   5.368  0.2457 -0.0451  0.6599
 2207TIP3    H130816  -0.341   0.409   5.292 -1.4367  1.2178  1.2651
 2207TIP3    H230817  -0.245   0.358   5.398 -0.0779 -0.8413 -0.8564
 2208TIP3   OH230818  -2.343   1.118   2.653  0.8825  0.7868  1.1391
 2208TIP3    H130819  -2.301   1.041   2.691  0.2935  1.1392  2.5687
 2208TIP3    H230820  -2.290   1.138   2.576  0.1966 -1.9276 -0.1823
 2209TIP3   OH230821  -1.190  -2.388   4.631 -0.7048 -0.1000  0.1712
 2209TIP3    H130822  -1.244  -2.456   4.672  0.2678 -0.7231  0.4692
 2209TIP3    H230823  -1.102  -2.406   4.664 -0.5571  1.8437  0.9538
 2210TIP3   OH230824   0.513  -0.294   5.189 -0.8198  0.6318 -0.7041
 2210TIP3    H130825   0.475  -0.321   5.106 -0.0504 -0.4667 -0.7090
 2210TIP3    H230826   0.471  -0.349   5.255  1.1948 -1.1139 -0.7794
 2211TIP3   OH230827   1.643   3.184   4.922 -0.0382  0.0688  0.3399
 2211TIP3    H130828   1.728   3.205   4.883 -0.6448 -0.2960 -1.2494
 2211TIP3    H230829   1.630   3.251   4.989  0.2201  1.9095 -1.3391
 2212TIP3   OH230830   2.913   1.410   5.264 -0.0257  0.2981  0.3501
 2212TIP3    H130831   2.912   1.394   5.170  0.2129 -0.0242  0.3987
 2212TIP3    H230832   2.895   1.324   5.303  0.4386  0.3124  0.6054
 2213TIP3   OH230833   0.041  -1.267   2.928  0.9391 -0.3659  0.6918
 2213TIP3    H130834   0.080  -1.265   3.016  0.9492 -2.2079  0.7582
 2213TIP3    H230835   0.002  -1.354   2.921 -1.2102  0.6192 -0.2402
 2214TIP3   OH230836   0.453  -0.391   4.658 -0.2704 -0.7382  0.0675
 2214TIP3    H130837   0.479  -0.404   4.567  0.9776  1.7250 -0.0422
 2214TIP3    H230838   0.392  -0.317   4.655  0.0277 -0.4233  1.2370
 2215TIP3   OH230839  -0.109   3.276   3.608  0.1365  0.1591 -0.2434
 2215TIP3    H130840  -0.178   3.304   3.668  0.7920 -1.0538  1.1289
 2215TIP3    H230841  -0.156   3.227   3.540 -0.3276 -1.5689  1.2297
 2216TIP3   OH230842   1.924   2.164   5.126  0.3999 -0.1334  0.8259
 2216TIP3    H130843   1.875   2.210   5.057 -1.1371 -0.8077  1.4324
 2216TIP3    H230844   2.015   2.177   5.102  0.0009  2.2553  0.3374
 2217TIP3   OH230845   1.523  -0.994   3.822  0.3913 -0.0252 -0.0166
 2217TIP3    H130846   1.453  -0.934   3.797 -0.4016 -0.2420  1.5530
 2217TIP3    H230847   1.594  -0.975   3.761 -1.0963  0.0294 -1.8236
 2218TIP3   OH230848   2.203   2.832   4.520 -0.3071  0.6495 -0.0756
 2218TIP3    H130849   2.186   2.740   4.498 -0.8229  0.5337  0.7678
 2218TIP3    H230850   2.295   2.833   4.545 -0.3074  0.3495 -0.0508
 2219TIP3   OH230851   2.434  -0.088   4.389  0.3249  0.3205  0.3938
 2219TIP3    H130852   2.349  -0.045   4.399  0.5005  0.9143 -0.5342
 2219TIP3    H230853   2.416  -0.181   4.401  0.1917  0.7013  4.0011
 2220TIP3   OH230854   1.904   0.906   3.244 -0.0779  0.4713  0.5471
 2220TIP3    H130855   1.954   0.987   3.233  0.8437 -0.1106  0.3779
 2220TIP3    H230856   1.831   0.931   3.301 -0.6590  1.7657 -0.7099
 2221TIP3   OH230857  -2.861   1.858   2.799 -0.3753 -0.3633  0.3698
 2221TIP3    H130858  -2.794   1.920   2.770  0.8793 -2.2087 -0.8793
 2221TIP3    H230859  -2.813   1.777   2.819 -2.0347 -1.2094  1.1859
 2222TIP3   OH230860  -0.832   0.106   3.132 -0.0980  0.3893 -0.4518
 2222TIP3    H130861  -0.818   0.187   3.084 -2.5139  0.3892 -1.2916
 2222TIP3    H230862  -0.834   0.133   3.224 -1.6369  1.4636 -0.7570
 2223TIP3   OH230863  -2.606  -0.214   5.865  0.4570  0.2536 -0.4535
 2223TIP3    H130864  -2.658  -0.188   5.789  2.1718  0.6315 -1.5643
 2223TIP3    H230865  -2.647  -0.169   5.939 -0.0415  1.5566 -1.4753
 2224TIP3   OH230866   1.507  -1.948   2.986  0.4050  0.1470 -0.2100
 2224TIP3    H130867   1.580  -1.896   3.020  0.0712 -0.5563  1.7141
 2224TIP3    H230868   1.431  -1.891   2.993  0.1519 -0.3429  1.2929
 2225TIP3   OH230869   0.268  -1.743   1.901 -0.2959  0.2585  0.0161
 2225TIP3    H130870   0.353  -1.741   1.858 -1.0153 -0.2786 -1.5293
 2225TIP3    H230871   0.278  -1.685   1.977  0.3175  3.6097 -2.3885
 2226TIP3   OH230872  -1.303  -2.145   4.752 -0.2803  0.7564  0.0541
 2226TIP3    H130873  -1.313  -2.201   4.828  0.7149  0.5882  0.0700
 2226TIP3    H230874  -1.250  -2.196   4.691 -0.0721  1.3480 -0.2704
 2227TIP3   OH230875  -2.872   2.258   3.683  0.1209 -0.4037 -0.3082
 2227TIP3    H130876  -2.887   2.170   3.718 -0.1553 -0.0732  0.4151
 2227TIP3    H230877  -2.806   2.296   3.740 -0.3603  0.1553 -0.1096
 2228TIP3   OH230878  -3.238   3.126   4.057 -0.7094 -0.2501  0.2203
 2228TIP3    H130879  -3.164   3.075   4.024 -2.1134 -1.6001 -1.0036
 2228TIP3    H230880  -3.257   3.090   4.143  0.6556  0.7969  0.9957
 2229TIP3   OH230881  -1.637  -1.011   4.308  0.0401  0.2851 -0.1895
 2229TIP3    H130882  -1.640  -0.929   4.357  0.9368  0.0508  0.2905
 2229TIP3    H230883  -1.580  -1.067   4.360  0.2037 -0.3132 -0.9978
 2230TIP3   OH230884   2.781  -0.122   3.178  0.6473 -0.6820  0.1689
 2230TIP3    H130885   2.766  -0.110   3.271  1.0861 -2.9707  0.5865
 2230TIP3    H230886   2.841  -0.051   3.154  2.0044 -1.1191  2.0559
 2231TIP3   OH230887   1.983   2.200   4.168 -0.5678  0.1214  0.4281
 2231TIP3    H130888   2.069   2.229   4.198  0.8464 -0.9459 -2.2153
 2231TIP3    H230889   1.976   2.109   4.197  0.1144 -0.4154 -1.0046
 2232TIP3   OH230890  -0.905   1.860   4.583  0.3497 -0.1621  0.0194
 2232TIP3    H130891  -0.923   1.795   4.515  0.3725  0.2509 -0.3822
 2232TIP3    H230892  -0.990   1.902   4.599  0.4543  0.0992 -0.1221
 2233TIP3   OH230893   1.773   1.295   5.176 -0.7188  0.2474 -0.0200
 2233TIP3    H130894   1.710   1.318   5.244 -0.1890  0.2046  0.5038
 2233TIP3    H230895   1.858   1.313   5.216 -0.1701 -3.2771  0.7242
 2234TIP3   OH230896  -1.959   2.705   5.713  0.5984 -0.8715  0.3658
 2234TIP3    H130897  -1.987   2.613   5.715  1.4985 -1.3074 -2.5052
 2234TIP3    H230898  -2.005   2.742   5.637  1.8175  0.4822  0.2523
 2235TIP3   OH230899  -1.913   3.314   4.784  0.2135  0.5217  0.4693
 2235TIP3    H130900  -1.913   3.404   4.750  1.6780  0.0193 -1.0431
 2235TIP3    H230901  -1.859   3.319   4.863 -3.2557  1.7160  2.9730
 2236TIP3   OH230902  -2.958  -2.542   4.859  0.4204  0.3118  0.0117
 2236TIP3    H130903  -3.038  -2.508   4.820  1.1425  2.5501  0.3050
 2236TIP3    H230904  -2.973  -2.537   4.953 -0.5799 -3.1998  0.1402
 2237TIP3   OH230905   1.904  -1.074   3.407 -0.5271 -0.3284 -0.8155
 2237TIP3    H130906   1.973  -1.141   3.406  0.6274  0.8083 -0.1841
 2237TIP3    H230907   1.921  -1.022   3.329  0.0006  0.5900 -0.1051
 2238TIP3   OH230908   1.414  -0.680   5.235 -0.0449 -0.0542  0.0627
 2238TIP3    H130909   1.365  -0.743   5.287 -0.0825 -0.5694 -0.5813
 2238TIP3    H230910   1.446  -0.615   5.298  2.7760 -2.4159  1.3240
 2239TIP3   OH230911   2.828   0.187   5.741  0.3935 -0.3162 -0.1154
 2239TIP3    H130912   2.836   0.266   5.795 -1.4528 -0.4552  0.4508
 2239TIP3    H230913   2.918   0.157   5.729  0.9125 -0.8607  3.7753
 2240TIP3   OH230914  -3.302   2.551   4.199 -0.0391  0.4687 -0.1053
 2240TIP3    H130915  -3.304   2.458   4.177 -1.5008  0.7560 -1.3149
 2240TIP3    H230916  -3.216   2.581   4.171 -0.3319 -0.0811 -1.6478
 2241TIP3   OH230917  -0.132  -1.186   4.344  0.5325 -0.5587 -0.3639
 2241TIP3    H130918  -0.116  -1.272   4.383  3.1928 -0.1113 -0.2282
 2241TIP3    H230919  -0.091  -1.190   4.258  0.6907  0.5613 -0.3572
 2242TIP3   OH230920   1.376  -1.579   3.209 -0.3738 -0.0493 -0.6749
 2242TIP3    H130921   1.368  -1.591   3.303 -1.1761 -0.3250 -0.7780
 2242TIP3    H230922   1.457  -1.625   3.186 -1.0922 -1.5183 -0.3831
 2243TIP3   OH230923   1.177   1.025   4.663  0.3008  0.3711  0.1280
 2243TIP3    H130924   1.141   0.941   4.634  1.1201  0.2706 -0.6436
 2243TIP3    H230925   1.250   1.001   4.721 -0.0924  0.5605  0.7031
 2244TIP3   OH230926  -0.423  -2.685   4.568 -0.2785 -0.6601  0.1428
 2244TIP3    H130927  -0.384  -2.678   4.655 -0.7852 -0.5217  0.3667
 2244TIP3    H230928  -0.517  -2.679   4.584 -0.3341  1.8671 -0.6212
 2245TIP3   OH230929   2.739   2.632   5.631  0.0374  0.5069  0.0010
 2245TIP3    H130930   2.647   2.653   5.613 -0.4579 -0.7046  0.9383
 2245TIP3    H230931   2.781   2.633   5.545 -0.8506  1.0711 -0.4445
 2246TIP3   OH230932  -3.219   3.314   5.390  0.8390 -0.4190 -0.2918
 2246TIP3    H130933  -3.170   3.263   5.326 -0.2763 -0.8021 -0.8580
 2246TIP3    H230934  -3.310   3.287   5.379  0.3776  0.8430  0.1934
 2247TIP3   OH230935   1.404  -0.138   3.405 -0.5995  0.1758  0.3743
 2247TIP3    H130936   1.471  -0.127   3.338 -0.2462 -0.0614  0.6794
 2247TIP3    H230937   1.354  -0.056   3.404 -0.6510  0.1380 -0.2275
 2248TIP3   OH230938   0.902   1.623   3.100  0.1996  0.2733 -0.4710
 2248TIP3    H130939   0.824   1.603   3.153  1.2896 -0.3921  0.9397
 2248TIP3    H230940   0.898   1.560   3.028 -0.3292 -0.0389 -0.1792
 2249TIP3   OH230941   0.178   1.699   4.289 -0.1960  0.4722 -0.5515
 2249TIP3    H130942   0.170   1.787   4.252 -0.7297  0.6498 -0.0215
 2249TIP3    H230943   0.259   1.701   4.340 -0.7101  0.9516  0.2538
 2250TIP3   OH230944   0.787  -2.800   4.807  0.1326 -0.3701  0.2339
 2250TIP3    H130945   0.808  -2.883   4.850  1.2076  0.1062  0.6595
 2250TIP3    H230946   0.812  -2.733   4.871  0.1905  0.3040 -0.4864
 2251TIP3   OH230947  -0.380   1.608   3.350  0.4858 -0.3556 -0.0199
 2251TIP3    H130948  -0.395   1.520   3.385  0.6724 -0.8383 -1.1087
 2251TIP3    H230949  -0.467   1.648   3.348  0.3273 -0.6927  0.0267
 2252TIP3   OH230950   0.326  -3.113   3.236 -0.1009  0.3825 -0.2192
 2252TIP3    H130951   0.367  -3.092   3.152 -2.3425 -0.4536 -1.6106
 2252TIP3    H230952   0.313  -3.028   3.279  0.4941  0.8771 -1.0069
 2253TIP3   OH230953   0.524   1.592   3.543  0.1166  0.4374 -0.1523
 2253TIP3    H130954   0.591   1.540   3.498  0.5906  0.6191  0.3300
 2253TIP3    H230955   0.442   1.566   3.503  0.6063  1.2789 -1.7888
 2254TIP3   OH230956  -1.796  -1.808   3.093  0.3554 -0.0458 -0.1735
 2254TIP3    H130957  -1.881  -1.778   3.062  0.6521  0.4621 -0.4995
 2254TIP3    H230958  -1.744  -1.818   3.014  1.6549  2.8684  0.2046
 2255TIP3   OH230959  -2.216   1.257   4.024  0.3041 -0.4128  0.6465
 2255TIP3    H130960  -2.131   1.214   4.023  1.2435  1.2857 -1.2223
 2255TIP3    H230961  -2.253   1.238   3.938 -0.0477  0.9263  0.4791
 2256TIP3   OH230962   1.907  -2.102   4.474 -0.6051 -0.2068 -0.4013
 2256TIP3    H130963   1.980  -2.074   4.418  1.7553 -0.4356  2.2750
 2256TIP3    H230964   1.836  -2.041   4.454  0.5896  0.5951 -2.5320
 2257TIP3   OH230965  -2.770  -2.532   2.629 -0.0850  0.3892 -0.3951
 2257TIP3    H130966  -2.719  -2.600   2.586 -0.8867  0.1196 -0.9499
 2257TIP3    H230967  -2.805  -2.480   2.556  0.0917  1.0791  0.0050
 2258TIP3   OH230968  -0.432  -0.823   4.460 -0.7154 -0.3526  0.4612
 2258TIP3    H130969  -0.466  -0.735   4.481  0.0231 -0.2718  1.3576
 2258TIP3    H230970  -0.346  -0.807   4.422 -0.4942 -0.7025  0.8175
 2259TIP3   OH230971  -0.281   3.327   3.320 -0.3482 -0.5875  0.0785
 2259TIP3    H130972  -0.253   3.239   3.296 -0.0552 -0.3171 -0.5969
 2259TIP3    H230973  -0.300   3.322   3.414  3.0940 -0.4939  0.8868
 2260TIP3   OH230974  -2.757   0.720   2.781 -0.1981 -0.0364 -0.5398
 2260TIP3    H130975  -2.726   0.705   2.870 -2.5684 -0.9650  0.2041
 2260TIP3    H230976  -2.725   0.645   2.731  0.8199  0.2989 -0.4102
 2261TIP3   OH230977   0.865   0.960   5.695 -0.2030  0.0248 -0.5785
 2261TIP3    H130978   0.956   0.990   5.694 -0.4539  0.8102 -2.1466
 2261TIP3    H230979   0.813   1.039   5.679 -1.1666 -0.4637  0.0197
 2262TIP3   OH230980   0.677  -1.894   5.032 -0.0594 -0.4083 -0.2444
 2262TIP3    H130981   0.639  -1.964   4.979  0.5759 -1.1309  0.2406
 2262TIP3    H230982   0.604  -1.859   5.082 -0.5462 -0.1379 -1.1243
 2263TIP3   OH230983   1.958  -2.739   3.903 -0.6847  0.6551 -0.3723
 2263TIP3    H130984   1.942  -2.833   3.902 -0.3737  0.5993 -1.1231
 2263TIP3    H230985   2.053  -2.730   3.894 -0.7392  1.0407 -0.6151
 2264TIP3   OH230986   2.760   1.029   2.934 -0.2139  0.2606 -0.3789
 2264TIP3    H130987   2.813   1.105   2.910  1.4314 -0.5489  0.5106
 2264TIP3    H230988   2.761   1.029   3.030 -1.2989 -0.1563 -0.3546
 2265TIP3   OH230989   1.011  -0.459   5.869 -0.0724 -0.1105  0.4179
 2265TIP3    H130990   1.005  -0.364   5.864 -0.3584 -0.1167  0.6340
 2265TIP3    H230991   1.105  -0.476   5.875  0.1177  0.0522 -1.4964
 2266TIP3   OH230992   3.288  -0.974   3.064 -0.1363  0.2154 -0.2097
 2266TIP3    H130993   3.199  -0.939   3.064 -0.1800  0.1062 -0.1771
 2266TIP3    H230994   3.338  -0.914   3.009 -0.2708  0.1740 -0.3796
 2267TIP3   OH230995   2.959  -2.792   2.606 -0.1625 -0.3680 -0.2248
 2267TIP3    H130996   2.950  -2.731   2.534  0.0606 -0.9209 -0.7309
 2267TIP3    H230997   2.941  -2.740   2.685 -1.9407 -0.1163 -0.7694
 2268TIP3   OH230998  -0.933  -1.585   3.771  0.4274 -0.1294  0.1238
 2268TIP3    H130999  -0.910  -1.513   3.829 -1.9669  0.0679  0.9468
 2268TIP3    H231000  -0.959  -1.544   3.689  1.0189 -0.2018 -0.1000
 2269TIP3   OH231001   3.060  -1.488   2.531  0.5320 -0.0168  0.4442
 2269TIP3    H131002   2.970  -1.518   2.546 -0.3278  1.7968 -0.7091
 2269TIP3    H231003   3.081  -1.519   2.442  0.5257  0.6977  0.1875
 2270TIP3   OH231004  -3.100  -2.195   5.228  0.1227  0.2341  0.1220
 2270TIP3    H131005  -3.171  -2.234   5.177 -0.6386  1.8540 -0.1157
 2270TIP3    H231006  -3.043  -2.269   5.250 -1.4696 -1.0631  0.0577
 2271TIP3   OH231007   0.465  -1.596   4.537 -0.3788  0.7206  0.3407
 2271TIP3    H131008   0.377  -1.562   4.526 -1.2095 -1.3431  0.1388
 2271TIP3    H231009   0.457  -1.691   4.523  1.5667  0.2400  1.9225
 2272TIP3   OH231010  -3.064  -1.508   3.774 -0.0613  0.1777 -0.2688
 2272TIP3    H131011  -3.035  -1.422   3.744 -1.5485  0.8747  0.1969
 2272TIP3    H231012  -3.159  -1.503   3.773 -0.1825 -0.7468  1.8022
 2273TIP3   OH231013  -0.422   2.030   3.340  0.3373 -0.4574 -0.1401
 2273TIP3    H131014  -0.450   2.107   3.389  0.5150 -0.4912  0.0184
 2273TIP3    H231015  -0.392   1.968   3.407  1.2337 -0.2407 -0.3204
 2274TIP3   OH231016  -1.500   3.150   4.248 -0.0978 -0.4933  0.1449
 2274TIP3    H131017  -1.555   3.127   4.322  1.0018 -0.1642  1.0918
 2274TIP3    H231018  -1.498   3.246   4.249  0.6576 -0.5038  0.2600
 2275TIP3   OH231019   0.810   0.047   3.439  0.0651 -0.6147  0.0975
 2275TIP3    H131020   0.825   0.110   3.369 -0.4671  1.0476  1.4094
 2275TIP3    H231021   0.796  -0.036   3.394  0.0857  0.3282 -1.7320
 2276TIP3   OH231022   1.698  -0.918   4.332 -0.4429 -0.5605 -0.1012
 2276TIP3    H131023   1.775  -0.967   4.361 -0.8162 -0.5951  0.8944
 2276TIP3    H231024   1.639  -0.985   4.297 -0.7680 -0.7835  0.8471
 2277TIP3   OH231025  -3.048   2.193   4.966  0.0142 -0.8469 -0.0919
 2277TIP3    H131026  -3.057   2.204   4.872 -1.2646 -1.6878 -0.0816
 2277TIP3    H231027  -3.077   2.277   5.003 -0.6635 -0.9339 -0.4096
 2278TIP3   OH231028  -2.463   2.435   4.984  0.1556  0.5367  0.2737
 2278TIP3    H131029  -2.435   2.346   5.005  0.4765  0.6226  0.2133
 2278TIP3    H231030  -2.433   2.488   5.057  3.2523  1.2171 -1.3096
 2279TIP3   OH231031   1.035  -0.824   5.702  0.1631 -0.2674  0.4755
 2279TIP3    H131032   1.066  -0.779   5.623 -2.1569  1.2093  0.2860
 2279TIP3    H231033   1.073  -0.912   5.696  4.2505  1.2715  0.4130
 2280TIP3   OH231034  -2.922   2.550   3.834  0.8251  0.0009 -0.3597
 2280TIP3    H131035  -2.910   2.456   3.821 -0.2452 -0.2094  0.0730
 2280TIP3    H231036  -2.959   2.558   3.922 -0.8202  0.6738 -1.0759
 2281TIP3   OH231037  -2.289   2.609   4.006 -0.8199  0.3959 -0.2759
 2281TIP3    H131038  -2.264   2.682   4.062  3.5249 -0.7683 -0.3380
 2281TIP3    H231039  -2.264   2.637   3.918 -0.1841 -0.6637 -0.4529
 2282TIP3   OH231040   2.783   1.123   4.559  0.4848  0.6399  0.0505
 2282TIP3    H131041   2.698   1.136   4.518 -1.2165 -0.4973  2.9202
 2282TIP3    H231042   2.832   1.070   4.497 -1.0980  0.8450 -1.4320
 2283TIP3   OH231043  -1.163  -0.108   4.506  0.1310 -0.4914  0.1032
 2283TIP3    H131044  -1.114  -0.031   4.478  0.0218 -1.3026 -2.5650
 2283TIP3    H231045  -1.098  -0.164   4.549  0.7530 -0.0390 -0.2327
 2284TIP3   OH231046  -1.326   1.853   3.377  0.2239 -0.2791 -0.7756
 2284TIP3    H131047  -1.300   1.921   3.316 -0.6722  0.3513 -0.4756
 2284TIP3    H231048  -1.373   1.789   3.323  1.3448 -0.8523 -1.1141
 2285TIP3   OH231049   0.478  -0.686   5.121 -0.1604  0.0387 -0.0355
 2285TIP3    H131050   0.394  -0.670   5.164 -0.2174 -0.3500 -0.0012
 2285TIP3    H231051   0.467  -0.649   5.033  0.7594  3.0194  0.9898
 2286TIP3   OH231052   0.390   2.599   5.118  0.0365  0.2193 -0.0589
 2286TIP3    H131053   0.401   2.515   5.161 -1.9822 -0.5735 -0.9565
 2286TIP3    H231054   0.417   2.663   5.183 -0.2646 -1.0423  1.3613
 2287TIP3   OH231055  -1.431  -0.477   5.599 -0.2791  0.5038  0.2820
 2287TIP3    H131056  -1.506  -0.506   5.652 -1.5458 -2.3074 -2.6657
 2287TIP3    H231057  -1.472  -0.432   5.524  1.0792  0.2768 -0.6196
 2288TIP3   OH231058  -1.127   2.201   4.957  0.3673  0.7018  0.2322
 2288TIP3    H131059  -1.066   2.272   4.938  0.5244  0.5570  0.1908
 2288TIP3    H231060  -1.079   2.122   4.935 -0.2682  0.6286 -0.9798
 2289TIP3   OH231061   1.871   2.617   3.625 -0.0602 -0.2674  0.3801
 2289TIP3    H131062   1.951   2.589   3.579 -0.5651  1.4263 -1.6820
 2289TIP3    H231063   1.902   2.643   3.712  1.4854 -0.5328 -0.0481
 2290TIP3   OH231064  -1.951   0.353   4.997 -0.3788  0.3931  0.0486
 2290TIP3    H131065  -1.917   0.263   4.995 -1.2820  0.0591 -1.3285
 2290TIP3    H231066  -1.919   0.393   4.916 -0.4923  1.1349  0.3579
 2291TIP3   OH231067  -1.832  -0.057   4.196 -0.4060 -0.2511 -0.5144
 2291TIP3    H131068  -1.820   0.038   4.190  0.0253 -0.0413  2.3057
 2291TIP3    H231069  -1.871  -0.071   4.283  0.8478 -2.7577 -0.2651
 2292TIP3   OH231070  -2.895   0.442   2.886 -0.3759  0.7222 -0.0698
 2292TIP3    H131071  -2.810   0.456   2.846 -0.0516  0.6475  0.5758
 2292TIP3    H231072  -2.879   0.377   2.954 -0.7171  1.5324  0.8079
 2293TIP3   OH231073  -2.349  -3.144   4.536 -0.3387 -0.5114 -0.4571
 2293TIP3    H131074  -2.284  -3.154   4.606  1.0050  0.1828 -1.5413
 2293TIP3    H231075  -2.430  -3.122   4.581  0.2361 -1.1209  0.9336
 2294TIP3   OH231076   2.335   1.787   2.856  0.1330 -0.3132  0.0949
 2294TIP3    H131077   2.319   1.731   2.932  1.4970  0.3440  0.9199
 2294TIP3    H231078   2.263   1.849   2.856 -0.1271 -0.6118  0.5848
 2295TIP3   OH231079  -2.467  -0.109   3.643  0.8687 -0.0221  0.4986
 2295TIP3    H131080  -2.487  -0.124   3.735 -0.9834 -0.4618  0.0696
 2295TIP3    H231081  -2.530  -0.042   3.615 -0.4250 -1.7385 -1.0266
 2296TIP3   OH231082  -0.319  -2.818   4.829 -0.2591 -0.9435  0.4519
 2296TIP3    H131083  -0.290  -2.831   4.919 -1.9436 -1.3941  0.9630
 2296TIP3    H231084  -0.278  -2.890   4.780  0.6832 -0.6770  0.8273
 2297TIP3   OH231085   2.909   1.766   4.042 -0.4453  0.3367 -0.0237
 2297TIP3    H131086   2.869   1.743   3.958  1.4205  3.6822 -2.0736
 2297TIP3    H231087   3.001   1.738   4.033  0.3071  2.6276 -0.0881
 2298TIP3   OH231088   3.310   0.887   3.896 -0.1224 -0.3067 -0.4754
 2298TIP3    H131089   3.235   0.926   3.852 -0.1683  1.6411  1.1945
 2298TIP3    H231090   3.277   0.859   3.981  0.2990 -2.6571 -1.0169
 2299TIP3   OH231091  -0.312  -2.571   4.344 -0.3922 -0.3971 -0.2775
 2299TIP3    H131092  -0.252  -2.505   4.378 -1.4660  0.6886 -0.3868
 2299TIP3    H231093  -0.353  -2.609   4.421  0.4331 -1.1651 -0.2006
 2300TIP3   OH231094   1.821  -2.059   3.211 -0.5857  0.4807  0.2313
 2300TIP3    H131095   1.860  -2.141   3.244 -0.4001  1.3993  2.4616
 2300TIP3    H231096   1.894  -2.013   3.169 -0.5450 -0.1797 -0.4473
 2301TIP3   OH231097   1.722  -1.947   5.371  0.6504 -0.3206  0.7327
 2301TIP3    H131098   1.631  -1.968   5.347  0.3748 -0.6579  2.0214
 2301TIP3    H231099   1.754  -1.893   5.298 -0.6609  0.0240  0.3876
 2302TIP3   OH231100   2.518  -0.717   5.322 -0.2326  0.3879 -0.1372
 2302TIP3    H131101   2.594  -0.742   5.373  0.3234 -0.3529 -1.2900
 2302TIP3    H231102   2.462  -0.795   5.322 -0.0167  0.2156 -0.9995
 2303TIP3   OH231103  -0.064  -1.035   3.018 -0.0653  0.4835  0.4246
 2303TIP3    H131104  -0.017  -1.105   2.973  0.2043  0.7121  0.3457
 2303TIP3    H231105  -0.003  -0.961   3.017 -1.1837  1.4757 -1.5706
 2304TIP3   OH231106  -1.792   2.756   5.419  0.4618  0.0855  0.2592
 2304TIP3    H131107  -1.773   2.813   5.345 -1.0312  0.5712  0.2219
 2304TIP3    H231108  -1.877   2.717   5.399  0.1346  0.0460  1.6002
 2305TIP3   OH231109   2.640  -1.552   5.405  0.0373 -0.2750 -0.1814
 2305TIP3    H131110   2.563  -1.552   5.462  0.8362 -2.1133  1.0169
 2305TIP3    H231111   2.605  -1.556   5.316 -1.2242  0.5975  0.2365
 2306TIP3   OH231112  -2.710   0.506   4.287 -0.7331  0.1005 -0.0666
 2306TIP3    H131113  -2.628   0.537   4.247 -0.6081  0.0942  0.1844
 2306TIP3    H231114  -2.779   0.545   4.233 -0.5711 -1.3173 -1.3834
 2307TIP3   OH231115  -1.666   1.044   5.745  0.1955  0.2632  0.2685
 2307TIP3    H131116  -1.716   1.072   5.822  0.5953 -0.2152  0.7205
 2307TIP3    H231117  -1.632   0.957   5.770  3.2086  1.5017  0.9704
 2308TIP3   OH231118  -2.470  -0.795   2.261 -0.3623 -0.0864 -0.0660
 2308TIP3    H131119  -2.395  -0.759   2.307 -0.8907  3.1838 -1.5289
 2308TIP3    H231120  -2.450  -0.783   2.169 -2.1762 -0.2310 -0.5143
 2309TIP3   OH231121  -2.211   0.449   3.862  0.3110 -0.7017  0.2989
 2309TIP3    H131122  -2.260   0.424   3.940 -2.0306 -3.0021 -1.7379
 2309TIP3    H231123  -2.178   0.367   3.826  0.2207  0.1075 -1.8094
 2310TIP3   OH231124   2.516  -1.349   5.696 -0.0313  0.4924  0.0318
 2310TIP3    H131125   2.511  -1.370   5.603 -1.4177 -2.4990  0.6732
 2310TIP3    H231126   2.604  -1.315   5.708  1.3584 -2.0783 -1.8967
 2311TIP3   OH231127  -1.899   2.015   3.733 -0.0545  0.0327  0.1552
 2311TIP3    H131128  -1.913   1.938   3.788  0.9878 -0.3181 -0.0648
 2311TIP3    H231129  -1.859   2.080   3.791  1.9960 -0.6828 -0.3899
 2312TIP3   OH231130  -2.469   0.278   3.050  0.8421  0.2750  0.2274
 2312TIP3    H131131  -2.400   0.272   2.983  0.4826 -2.1400  0.0016
 2312TIP3    H231132  -2.424   0.313   3.127  2.0837 -0.1955 -0.2472
 2313TIP3   OH231133  -3.245  -0.225   3.501 -0.8258 -0.2432 -0.3090
 2313TIP3    H131134  -3.250  -0.286   3.427 -0.5937 -1.0028  0.2905
 2313TIP3    H231135  -3.151  -0.216   3.518 -0.8266  0.7497 -0.7629
 2314TIP3   OH231136  -2.665  -0.207   4.210 -0.2161  0.2242  0.0944
 2314TIP3    H131137  -2.606  -0.255   4.152  0.9736  0.3756  1.1419
 2314TIP3    H231138  -2.662  -0.255   4.292  0.4413  1.6649  0.9424
 2315TIP3   OH231139  -2.621   0.867   5.790 -0.4090  0.0226  0.2315
 2315TIP3    H131140  -2.592   0.850   5.700 -0.9727 -0.6422  0.1631
 2315TIP3    H231141  -2.669   0.949   5.785  0.2968  0.4388  0.0960
 2316TIP3   OH231142   2.551   0.016   4.109 -0.0466 -0.3940 -0.3834
 2316TIP3    H131143   2.482  -0.050   4.114  0.4910 -0.9837 -0.7053
 2316TIP3    H231144   2.504   0.100   4.113 -0.5787 -0.7393  2.3460
 2317TIP3   OH231145  -2.590  -0.784   4.706 -0.5551 -0.0139  0.3242
 2317TIP3    H131146  -2.586  -0.688   4.704 -0.0054 -0.0364 -0.0507
 2317TIP3    H231147  -2.505  -0.810   4.741  0.2722 -0.4148 -1.8431
 2318TIP3   OH231148  -1.682  -0.754   4.087  0.3399  0.3729  0.2057
 2318TIP3    H131149  -1.723  -0.797   4.163  2.8066 -1.3570  0.6749
 2318TIP3    H231150  -1.723  -0.668   4.083 -3.6786 -1.3022  0.2631
 2319TIP3   OH231151   0.154  -0.556   4.669 -0.9492  0.5869  0.2674
 2319TIP3    H131152   0.180  -0.480   4.617  0.2157 -0.2679 -0.4249
 2319TIP3    H231153   0.225  -0.619   4.658 -1.8410 -0.5759  0.9217
 2320TIP3   OH231154   0.156  -3.314   3.607 -0.3216  0.3947 -0.2958
 2320TIP3    H131155   0.071  -3.357   3.594 -0.6650  1.3227 -1.2057
 2320TIP3    H231156   0.209  -3.342   3.533 -0.3307  0.9864 -0.5351
 2321TIP3   OH231157  -1.360   2.156   3.426  0.1324 -0.5351 -0.0598
 2321TIP3    H131158  -1.284   2.121   3.381  0.9407 -0.0768  0.9268
 2321TIP3    H231159  -1.343   2.141   3.519  0.2547  1.9044  0.3834
 2322TIP3   OH231160   1.505  -0.740   3.999  0.0191 -0.2748 -0.2747
 2322TIP3    H131161   1.436  -0.735   3.934 -0.2265 -2.2275 -0.2277
 2322TIP3    H231162   1.467  -0.790   4.071  0.7514  0.5990  0.7580
 2323TIP3   OH231163   0.769  -1.207   2.599 -0.0705 -0.3218 -0.6525
 2323TIP3    H131164   0.746  -1.299   2.609  0.3132 -0.2378  1.4517
 2323TIP3    H231165   0.779  -1.194   2.504  0.9471 -2.6980 -0.9293
 2324TIP3   OH231166   0.919  -3.207   4.798 -0.4271 -0.1825 -0.4633
 2324TIP3    H131167   0.831  -3.241   4.779 -0.1727 -1.6343  0.7972
 2324TIP3    H231168   0.913  -3.175   4.888  0.1773  0.3088 -0.5921
 2325TIP3   OH231169   0.617  -2.451   4.296 -0.6442 -0.3308  0.4486
 2325TIP3    H131170   0.595  -2.433   4.387 -2.1610  0.6357 -0.0651
 2325TIP3    H231171   0.673  -2.378   4.270  0.4629 -1.0309  0.8130
 2326TIP3   OH231172   3.101  -2.892   4.518  0.3474 -0.4815  0.1400
 2326TIP3    H131173   3.170  -2.932   4.464 -0.6837 -0.3743 -1.3094
 2326TIP3    H231174   3.027  -2.952   4.511 -0.7455  0.9166 -0.9130
 2327TIP3   OH231175   1.315  -3.275   5.074 -0.1000  0.3811  0.1225
 2327TIP3    H131176   1.273  -3.226   5.003 -0.1875 -1.0261 -0.8432
 2327TIP3    H231177   1.286  -3.231   5.154 -0.2282  1.8366 -0.6944
 2328TIP3   OH231178   0.499  -3.068   3.027  0.4364 -0.3934 -0.5705
 2328TIP3    H131179   0.576  -3.063   3.085 -0.7529  1.3075  0.9939
 2328TIP3    H231180   0.509  -2.993   2.968 -0.6731  0.7685  0.6249
 2329TIP3   OH231181  -2.626   0.306   3.537 -0.2917 -0.1280 -0.0156
 2329TIP3    H131182  -2.537   0.325   3.568 -1.2405  0.1894  2.6942
 2329TIP3    H231183  -2.633   0.210   3.543 -0.5878 -0.0413  1.1526
 2330TIP3   OH231184  -0.042  -0.019   2.384  0.1699  0.2288 -0.6884
 2330TIP3    H131185  -0.130  -0.056   2.394  0.8122 -0.8076  2.1335
 2330TIP3    H231186  -0.003  -0.069   2.311 -0.5860 -1.4744  0.0134
 2331TIP3   OH231187  -2.147   2.152   2.661 -0.2985 -0.6375 -0.2599
 2331TIP3    H131188  -2.144   2.085   2.592  1.9002  1.2322 -2.1750
 2331TIP3    H231189  -2.134   2.104   2.742 -2.7129 -2.9241 -1.0686
 2332TIP3   OH231190  -3.020   0.677   5.391  0.1917 -0.6733  0.0551
 2332TIP3    H131191  -3.048   0.659   5.481  1.8968  2.0822  1.3046
 2332TIP3    H231192  -2.938   0.628   5.381 -0.0777 -1.1036 -0.0739
 2333TIP3   OH231193  -2.918  -1.483   5.129  0.0941 -0.0452  0.3178
 2333TIP3    H131194  -2.875  -1.398   5.117  0.1314 -0.2203 -0.9446
 2333TIP3    H231195  -2.890  -1.512   5.216 -1.0576  1.8568  1.3888
 2334TIP3   OH231196   1.707  -1.432   4.764  0.4256  0.7310  0.1053
 2334TIP3    H131197   1.644  -1.384   4.818 -0.3552  0.0456 -0.1869
 2334TIP3    H231198   1.654  -1.493   4.713  1.4590 -1.0747  1.0966
 2335TIP3   OH231199  -2.873   2.848   3.821 -0.2107  0.0064 -0.1661
 2335TIP3    H131200  -2.919   2.764   3.822 -0.5053  0.1363 -1.5834
 2335TIP3    H231201  -2.938   2.911   3.789  0.6420  0.3704 -1.2401
 2336TIP3   OH231202   0.159  -1.245   3.519  0.0118 -0.0121 -0.1427
 2336TIP3    H131203   0.166  -1.337   3.547  0.8888  0.0298 -0.1763
 2336TIP3    H231204   0.085  -1.210   3.568 -0.3716 -0.7530 -0.1723
 2337TIP3   OH231205  -0.537   2.362   4.476  0.0076 -0.2312  0.1860
 2337TIP3    H131206  -0.568   2.329   4.392 -2.6280  0.9564  0.5950
 2337TIP3    H231207  -0.499   2.285   4.519  1.1777 -0.9211 -1.9125
 2338TIP3   OH231208  -2.179  -1.934   3.260  0.1654  0.3595  0.2449
 2338TIP3    H131209  -2.227  -1.938   3.178 -0.3906 -0.1033  0.5839
 2338TIP3    H231210  -2.089  -1.955   3.236  0.0878  0.6230 -0.3025
 2339TIP3   OH231211   3.001  -0.736   4.640  0.0804 -0.0227 -0.0379
 2339TIP3    H131212   2.963  -0.704   4.722  0.5663 -1.1254  0.6365
 2339TIP3    H231213   3.003  -0.659   4.583 -0.9208  0.6021  0.7337
 2340TIP3   OH231214   1.672   0.533   5.348 -0.0502  0.2990 -0.3096
 2340TIP3    H131215   1.646   0.612   5.395  1.0683  0.7095 -0.3511
 2340TIP3    H231216   1.608   0.525   5.277 -0.4319  0.9245 -0.0393
 2341TIP3   OH231217   0.215   0.009   2.489  0.0731  0.5837 -0.3162
 2341TIP3    H131218   0.130  -0.001   2.446  0.3224  0.1725 -0.7268
 2341TIP3    H231219   0.226  -0.072   2.538  1.0067 -0.1702 -1.6835
 2342TIP3   OH231220  -2.548   2.541   3.236 -0.0102  0.4512  0.0175
 2342TIP3    H131221  -2.557   2.474   3.304  0.0976 -0.6371 -1.0014
 2342TIP3    H231222  -2.500   2.497   3.165 -1.8687  0.8674 -1.6012
 2343TIP3   OH231223  -2.393   1.337   5.499  0.6923 -0.4053 -0.5003
 2343TIP3    H131224  -2.315   1.324   5.445  1.1574 -0.6027  0.2052
 2343TIP3    H231225  -2.404   1.254   5.546  0.3119 -0.2293 -0.2701
 2344TIP3   OH231226  -3.134  -3.316   4.859 -0.1443  0.2063 -0.0702
 2344TIP3    H131227  -3.130  -3.267   4.777 -1.2864  0.1943 -0.1444
 2344TIP3    H231228  -3.084  -3.396   4.841 -1.0399 -0.1658 -1.0371
 2345TIP3   OH231229  -1.206  -2.964   2.840  0.6024  0.3320 -0.1724
 2345TIP3    H131230  -1.175  -3.054   2.841  2.9335  1.0668 -0.3318
 2345TIP3    H231231  -1.291  -2.967   2.885  1.4618 -1.6532  1.4546
 2346TIP3   OH231232  -2.725   0.316   4.065 -0.0436 -0.2923  0.6194
 2346TIP3    H131233  -2.666   0.242   4.050 -0.6689 -0.9559  1.3477
 2346TIP3    H231234  -2.813   0.278   4.059 -0.3621 -0.0268  2.9598
 2347TIP3   OH231235  -0.950  -1.920   5.525  0.6934 -0.2109  0.8571
 2347TIP3    H131236  -0.923  -2.002   5.484  1.7902  0.6346 -0.1776
 2347TIP3    H231237  -0.950  -1.856   5.453 -0.7779  0.5737  1.5118
 2348TIP3   OH231238  -3.021  -0.362   4.387  0.0387  0.4479 -0.3115
 2348TIP3    H131239  -3.015  -0.315   4.304  2.5931  0.6495 -0.1128
 2348TIP3    H231240  -3.044  -0.296   4.451 -0.3111  0.6179 -0.6088
 2349TIP3   OH231241   0.250   2.420   3.113 -0.5103 -0.2943  0.4202
 2349TIP3    H131242   0.287   2.356   3.173  0.0485 -0.8168 -0.4446
 2349TIP3    H231243   0.261   2.504   3.157  1.5302 -0.4568  0.3099
 2350TIP3   OH231244  -0.603  -2.794   3.052 -0.1406  0.0491  0.1878
 2350TIP3    H131245  -0.516  -2.756   3.042  0.0536 -0.5429 -0.4875
 2350TIP3    H231246  -0.644  -2.743   3.121 -0.2678  2.1601 -1.3535
 2351TIP3   OH231247   0.412  -2.477   5.739  0.1995  0.0839  0.2943
 2351TIP3    H131248   0.365  -2.394   5.745  0.5940  0.5304 -1.9335
 2351TIP3    H231249   0.485  -2.467   5.800  1.5734  2.3774 -1.5204
 2352TIP3   OH231250  -0.141  -1.641   5.687  0.1300 -0.0414 -0.0847
 2352TIP3    H131251  -0.222  -1.595   5.666  0.4426  0.0768 -1.0550
 2352TIP3    H231252  -0.160  -1.733   5.669 -0.3295 -0.2487  1.3562
 2353TIP3   OH231253  -0.607  -2.121   4.921 -0.1630  0.4503 -0.4640
 2353TIP3    H131254  -0.694  -2.142   4.956  1.1527 -0.8120  2.3561
 2353TIP3    H231255  -0.584  -2.038   4.963 -0.2653  1.2168 -1.8493
 2354TIP3   OH231256   1.736  -0.015   4.279  0.0744 -0.7407  0.8174
 2354TIP3    H131257   1.822  -0.015   4.321  0.8905 -2.5453 -0.6794
 2354TIP3    H231258   1.744   0.047   4.207 -0.0225 -0.5959  0.9305
 2355TIP3   OH231259  -3.111  -0.290   4.012 -0.2162 -0.0683  0.1654
 2355TIP3    H131260  -3.043  -0.256   4.070 -0.0922 -0.0361  0.0004
 2355TIP3    H231261  -3.066  -0.354   3.957 -0.8188 -1.9855  1.7762
 2356TIP3   OH231262  -2.255   1.205   2.984  0.0679  0.3301  0.0219
 2356TIP3    H131263  -2.278   1.121   2.944 -2.2531  0.0912  1.6892
 2356TIP3    H231264  -2.212   1.253   2.913 -0.7286 -1.3365 -1.6997
 2357TIP3   OH231265   0.531  -1.569   4.803 -0.2265  0.4394  0.1165
 2357TIP3    H131266   0.528  -1.474   4.809  1.4067  0.5809 -0.6053
 2357TIP3    H231267   0.531  -1.587   4.709 -3.8557 -0.5095  0.1344
 2358TIP3   OH231268  -1.623   0.965   2.323  0.1208  0.0484  0.6443
 2358TIP3    H131269  -1.694   0.910   2.290  1.4608 -1.6574  0.5278
 2358TIP3    H231270  -1.588   1.008   2.245 -0.3012  0.3547  0.6156
 2359TIP3   OH231271  -1.649  -2.390   2.184 -0.5486 -0.1662  0.2445
 2359TIP3    H131272  -1.569  -2.426   2.220  0.1147  0.1792 -0.8384
 2359TIP3    H231273  -1.718  -2.417   2.245  0.2407 -1.3216  0.6476
 2360TIP3   OH231274  -0.100   0.835   4.404 -0.0998  0.1130 -0.2422
 2360TIP3    H131275  -0.042   0.869   4.336 -1.5372  1.4943 -0.8426
 2360TIP3    H231276  -0.076   0.885   4.482  0.2055 -0.0654 -0.2186
 2361TIP3   OH231277   3.306  -1.921   5.354 -0.2907  0.3450 -0.0455
 2361TIP3    H131278   3.261  -1.839   5.375 -0.1812  0.3284  0.2645
 2361TIP3    H231279   3.391  -1.894   5.319 -0.0915  0.3612  0.4397
 2362TIP3   OH231280   3.242  -1.599   2.744  0.2583  0.6156 -0.2203
 2362TIP3    H131281   3.172  -1.562   2.690  0.2305  0.5411 -0.2354
 2362TIP3    H231282   3.313  -1.619   2.682  0.7580  1.7993 -0.0536
 2363TIP3   OH231283   2.452  -0.938   4.929 -0.1099 -0.2809  0.1163
 2363TIP3    H131284   2.479  -1.002   4.995  2.9315 -0.0821 -0.7474
 2363TIP3    H231285   2.501  -0.858   4.953  1.6002 -0.3808 -2.5842
 2364TIP3   OH231286   2.449   3.306   5.074  0.3635 -0.1984  0.0484
 2364TIP3    H131287   2.414   3.275   5.157  1.2522  0.0990  0.5469
 2364TIP3    H231288   2.484   3.227   5.032 -0.3696 -0.4014 -0.1973
 2365TIP3   OH231289   0.324   1.052   4.450  0.6478  0.2250 -0.1404
 2365TIP3    H131290   0.343   0.985   4.516  1.6375 -0.4048 -1.0203
 2365TIP3    H231291   0.279   1.004   4.380  0.1091  0.7679 -0.1705
 2366TIP3   OH231292   2.620   1.456   5.401  0.8361  0.1396  0.1818
 2366TIP3    H131293   2.531   1.482   5.375  0.4097 -0.9319  0.5038
 2366TIP3    H231294   2.626   1.364   5.376  1.9010  0.2194  0.0901
 2367TIP3   OH231295   1.746   0.845   2.887  0.4445  0.6515  0.5061
 2367TIP3    H131296   1.744   0.775   2.822  0.9403  1.0363  0.0632
 2367TIP3    H231297   1.830   0.889   2.872 -0.4624  2.2392 -0.1844
 2368TIP3   OH231298   1.379  -2.255   4.732 -0.0890 -0.1438  0.1947
 2368TIP3    H131299   1.439  -2.230   4.662 -0.5336 -0.4500 -0.3028
 2368TIP3    H231300   1.294  -2.262   4.690 -0.3073 -0.6418  0.6975
 2369TIP3   OH231301   0.867  -1.170   3.357 -0.1917  0.6313 -0.1344
 2369TIP3    H131302   0.856  -1.260   3.388 -0.6599  0.7263 -0.0176
 2369TIP3    H231303   0.949  -1.141   3.396 -0.4566  0.5339  0.5044
 2370TIP3   OH231304   0.365  -0.751   3.027 -0.0016  0.4032  0.0332
 2370TIP3    H131305   0.447  -0.788   3.061 -1.1552  0.0161  2.6756
 2370TIP3    H231306   0.362  -0.663   3.063 -0.8596  0.3229  0.1641
 2371TIP3   OH231307  -1.162   1.256   3.040 -0.5500  0.3289 -0.5774
 2371TIP3    H131308  -1.119   1.188   3.092 -0.5216 -0.5349 -1.7119
 2371TIP3    H231309  -1.100   1.330   3.043 -0.7666  0.4808  0.9899
 2372TIP3   OH231310   0.846  -0.052   2.830 -0.0156 -0.0256 -0.6269
 2372TIP3    H131311   0.866  -0.093   2.746  0.3008 -1.0772 -0.0703
 2372TIP3    H231312   0.855  -0.124   2.894 -3.0385  0.0009 -0.0040
 2373TIP3   OH231313   2.985   1.562   4.950 -0.4068  0.1164 -0.1403
 2373TIP3    H131314   2.899   1.560   4.992 -0.7253 -1.4797 -0.7950
 2373TIP3    H231315   2.966   1.571   4.856  0.1066 -0.5626 -0.3211
 2374TIP3   OH231316  -0.710   0.249   4.645  0.3008 -0.0683 -0.5048
 2374TIP3    H131317  -0.740   0.158   4.639 -0.2181  0.1382 -1.2724
 2374TIP3    H231318  -0.788   0.301   4.627  0.1019  0.6001  1.9640
 2375TIP3   OH231319   0.074   1.265   2.394  0.2394  0.2100  0.1083
 2375TIP3    H131320   0.017   1.316   2.452  1.7624  1.9244  0.1836
 2375TIP3    H231321   0.078   1.179   2.435 -1.4108  0.3706  0.6787
 2376TIP3   OH231322  -0.402   0.323   5.674 -0.3422 -0.1194 -0.3850
 2376TIP3    H131323  -0.365   0.309   5.587  0.2635 -1.9600  0.1282
 2376TIP3    H231324  -0.327   0.314   5.733 -1.1305 -1.1933  0.4803
 2377TIP3   OH231325   2.793   0.132   2.300 -0.2085  0.7851 -0.1891
 2377TIP3    H131326   2.789   0.037   2.289  0.1364  0.9331 -1.8757
 2377TIP3    H231327   2.703   0.157   2.323 -0.5173  0.1488 -0.6828
 2378TIP3   OH231328   0.633   0.227   5.096 -0.0937 -0.1244  0.0494
 2378TIP3    H131329   0.587   0.151   5.059  0.0382 -0.9628  1.5464
 2378TIP3    H231330   0.711   0.191   5.138 -0.5915  0.6698  1.7580
 2379TIP3   OH231331  -0.716   1.817   5.354  0.4053 -0.3665  0.0616
 2379TIP3    H131332  -0.792   1.758   5.354  0.1406 -0.0463 -0.6874
 2379TIP3    H231333  -0.643   1.763   5.325  0.3283 -0.5150  0.1454
 2380TIP3   OH231334  -1.516   1.810   2.200 -0.1740 -0.3201 -0.8022
 2380TIP3    H131335  -1.505   1.749   2.127 -1.1518 -1.2355 -0.2051
 2380TIP3    H231336  -1.606   1.797   2.229 -0.8014  2.2688 -1.3902
 2381TIP3   OH231337   3.193   2.243   2.592  0.5927 -0.3900 -0.1224
 2381TIP3    H131338   3.247   2.284   2.659  0.0246 -1.5564  1.0994
 2381TIP3    H231339   3.104   2.272   2.610  0.6976  1.3567 -2.0000
 2382TIP3   OH231340   3.198  -0.463   3.819 -0.0758  0.2894  0.2107
 2382TIP3    H131341   3.109  -0.439   3.793 -0.2648 -0.2881  0.3025
 2382TIP3    H231342   3.245  -0.380   3.826 -0.5265  0.5762 -0.1365
 2383TIP3   OH231343  -0.193   3.036   5.718  0.2437  0.1584  0.3729
 2383TIP3    H131344  -0.221   2.947   5.695  1.1107 -0.2394  0.8221
 2383TIP3    H231345  -0.272   3.078   5.752 -0.1938 -0.4010  0.0683
 2384TIP3   OH231346  -2.815  -1.835   5.613 -0.9294  0.6522 -0.1294
 2384TIP3    H131347  -2.873  -1.767   5.647 -1.9762 -0.0286 -0.5134
 2384TIP3    H231348  -2.848  -1.853   5.525  0.0777  0.4903 -0.4802
 2385TIP3   OH231349   0.850  -1.638   4.582  0.0663 -0.4508 -0.1354
 2385TIP3    H131350   0.837  -1.655   4.675  0.8134 -0.1650  0.0354
 2385TIP3    H231351   0.898  -1.714   4.550 -0.1108 -0.5078 -0.2649
 2386TIP3   OH231352   2.580   0.561   3.708  0.2451  0.1870 -0.3103
 2386TIP3    H131353   2.571   0.639   3.654  2.2767  1.5130  1.1371
 2386TIP3    H231354   2.554   0.589   3.796  2.1713 -0.3380  0.4921
 2387TIP3   OH231355  -2.465   2.791   4.656 -0.2885 -0.1629  0.0827
 2387TIP3    H131356  -2.544   2.836   4.625 -0.6130 -0.4889  0.4412
 2387TIP3    H231357  -2.495   2.706   4.686  0.2394 -0.3879 -0.0130
 2388TIP3   OH231358  -3.256  -0.169   5.763 -0.0484  0.3764  0.2247
 2388TIP3    H131359  -3.173  -0.144   5.722  0.8560 -0.1297  1.6492
 2388TIP3    H231360  -3.259  -0.119   5.844 -1.2582  0.5503  0.0854
 2389TIP3   OH231361  -0.027   1.343   3.561 -0.0394 -0.5110 -0.0028
 2389TIP3    H131362  -0.017   1.342   3.656 -0.3840 -1.1150  0.0290
 2389TIP3    H231363   0.048   1.394   3.530 -0.6656  0.8657  0.6652
 2390TIP3   OH231364  -1.892   3.164   4.003  0.0970 -0.0264 -0.4613
 2390TIP3    H131365  -1.797   3.150   4.009  0.0767 -0.6729 -1.4833
 2390TIP3    H231366  -1.919   3.182   4.093  0.9400 -1.5898  0.1451
 2391TIP3   OH231367  -3.075  -1.000   5.413 -0.3140 -0.0873  0.0288
 2391TIP3    H131368  -3.120  -1.014   5.330  0.9523 -1.7740 -0.4536
 2391TIP3    H231369  -2.996  -0.952   5.390  0.1352 -0.7200  0.1987
 2392TIP3   OH231370   0.242  -1.039   4.348  0.3918  0.2216 -0.2171
 2392TIP3    H131371   0.314  -0.999   4.299 -1.0500  0.8434 -1.9464
 2392TIP3    H231372   0.164  -0.992   4.319 -0.9230 -1.4159  0.4705
 2393TIP3   OH231373  -2.916   2.102   2.891 -0.1614 -0.2193 -0.0719
 2393TIP3    H131374  -2.948   2.016   2.862  0.9761 -0.4132 -0.8323
 2393TIP3    H231375  -2.888   2.145   2.810 -0.5582  0.8075  0.3247
 2394TIP3   OH231376   0.959  -0.088   5.201 -0.6855 -0.1531  0.0932
 2394TIP3    H131377   0.921  -0.167   5.239 -0.1202 -0.2204  0.5263
 2394TIP3    H231378   1.034  -0.119   5.150 -1.6696 -0.1066 -1.4183
 2395TIP3   OH231379   0.176   2.853   3.544  0.0761 -0.0025 -0.2737
 2395TIP3    H131380   0.197   2.760   3.535  0.5595  0.0548  0.1927
 2395TIP3    H231381   0.251   2.899   3.505 -0.8128  0.1987 -1.8234
 2396TIP3   OH231382  -0.407   0.505   3.355  0.1412  0.3062  0.0413
 2396TIP3    H131383  -0.432   0.545   3.438 -2.4230  0.7206 -0.8571
 2396TIP3    H231384  -0.433   0.569   3.289  3.1529  0.4955 -1.1220
 2397TIP3   OH231385   0.307   0.888   3.484 -0.1279 -0.4898 -0.1989
 2397TIP3    H131386   0.375   0.924   3.427 -0.9575  0.5033 -0.6105
 2397TIP3    H231387   0.231   0.878   3.426 -1.0574  0.7368  0.7623
 2398TIP3   OH231388   2.598   2.550   5.024 -0.0125 -0.0918 -0.0987
 2398TIP3    H131389   2.503   2.550   5.019 -0.2564 -0.4294  2.7515
 2398TIP3    H231390   2.618   2.490   5.095  2.3982 -0.5228 -1.0399
 2399TIP3   OH231391   3.196  -2.242   3.167 -0.2328  0.0075  0.1201
 2399TIP3    H131392   3.168  -2.333   3.172  0.1261 -0.0622  1.2597
 2399TIP3    H231393   3.244  -2.227   3.249 -2.5994  1.9681  1.2914
 2400TIP3   OH231394  -2.531   2.901   5.642 -0.9317  0.4910  0.2745
 2400TIP3    H131395  -2.594   2.951   5.694 -0.8486 -0.4053  1.2737
 2400TIP3    H231396  -2.515   2.955   5.565 -2.1347  1.2054  0.5015
 2401TIP3   OH231397  -0.879   0.439   3.436  0.3628  0.4683  0.0372
 2401TIP3    H131398  -0.798   0.440   3.386  1.5162 -1.5624  1.6840
 2401TIP3    H231399  -0.902   0.346   3.442 -0.1594  0.6936  2.5122
 2402TIP3   OH231400   2.013  -1.275   3.812  0.0274 -0.0202  0.1317
 2402TIP3    H131401   2.099  -1.237   3.832 -0.5819  0.6445  1.6129
 2402TIP3    H231402   1.967  -1.206   3.765  0.3176 -0.4114 -0.7463
 2403TIP3   OH231403  -0.268   1.877   5.368  0.1343  0.2162  0.4168
 2403TIP3    H131404  -0.322   1.956   5.371  0.4319  0.5935 -1.8374
 2403TIP3    H231405  -0.179   1.908   5.381  0.0873 -0.0053  1.2928
 2404TIP3   OH231406  -3.005  -1.738   4.836  0.1414  0.7047 -0.1584
 2404TIP3    H131407  -2.966  -1.732   4.748 -0.7791 -1.0133 -0.7463
 2404TIP3    H231408  -2.959  -1.812   4.876  0.0220  0.9968  0.5203
 2405TIP3   OH231409   0.370   1.156   5.876  0.8111  0.7020 -0.3632
 2405TIP3    H131410   0.332   1.201   5.951  1.1329  1.4664 -0.6558
 2405TIP3    H231411   0.296   1.141   5.817  0.1541 -1.6446  0.9072
 2406TIP3   OH231412   0.094  -0.641   2.611  0.2957  0.4630  0.2274
 2406TIP3    H131413   0.150  -0.564   2.611  0.5929  0.2893 -1.3988
 2406TIP3    H231414   0.046  -0.636   2.528 -1.3853  0.0901  1.1358
 2407TIP3   OH231415   2.418   0.965   3.598  0.1956 -0.3472  0.5583
 2407TIP3    H131416   2.457   1.052   3.609 -0.6274  0.1880 -0.5533
 2407TIP3    H231417   2.492   0.904   3.603  0.7100  0.3416  2.0169
 2408TIP3   OH231418  -0.999  -1.258   5.826 -0.8357  0.0776  0.1843
 2408TIP3    H131419  -0.925  -1.305   5.788 -0.1817  2.8580 -2.2914
 2408TIP3    H231420  -1.075  -1.294   5.781 -0.3356  1.2873 -1.7400
 2409TIP3   OH231421  -0.960  -0.165   3.385 -0.3697  0.0148 -0.3004
 2409TIP3    H131422  -0.919  -0.223   3.321  0.5643 -2.0685  2.0308
 2409TIP3    H231423  -0.888  -0.116   3.424 -0.7760  0.3951 -0.0074
 2410TIP3   OH231424  -0.965   0.074   4.971  0.4481  0.0941  0.8671
 2410TIP3    H131425  -1.044   0.020   4.969  1.4540 -1.4570  1.4352
 2410TIP3    H231426  -0.942   0.086   4.879 -1.1705  1.7066  0.6335
 2411TIP3   OH231427  -1.099  -3.290   5.132  0.0026  0.6674  0.0668
 2411TIP3    H131428  -1.102  -3.225   5.202 -0.3883  0.6580  0.0593
 2411TIP3    H231429  -1.041  -3.252   5.066  1.2724  0.2047  0.8671
 2412TIP3   OH231430  -0.965  -1.935   4.886  0.4587 -0.0427 -0.3908
 2412TIP3    H131431  -1.050  -1.892   4.896  1.5486  2.1133  0.2162
 2412TIP3    H231432  -0.960  -1.957   4.793  0.6915  3.2702 -1.3091
 2413TIP3   OH231433   3.211   1.400   2.532  0.0215  1.1053  0.3472
 2413TIP3    H131434   3.141   1.434   2.476 -0.1177  1.3418  0.6642
 2413TIP3    H231435   3.263   1.344   2.474  0.4355  2.0930 -0.2601
 2414TIP3   OH231436  -0.012  -0.910   2.560  0.6303  0.3752 -0.1397
 2414TIP3    H131437   0.065  -0.959   2.589  0.7581  1.0918  0.7509
 2414TIP3    H231438   0.011  -0.818   2.576  0.1991  0.7081 -1.3220
 2415TIP3   OH231439  -1.311  -0.196   2.809  0.1118  0.1931 -0.1365
 2415TIP3    H131440  -1.310  -0.179   2.715 -0.5112 -2.2464 -0.6434
 2415TIP3    H231441  -1.398  -0.166   2.837 -1.3632 -2.7354 -1.1951
 2416TIP3   OH231442  -3.158   0.369   5.313  0.4677 -0.2795  0.7420
 2416TIP3    H131443  -3.145   0.278   5.340  0.5153  0.1059  2.1260
 2416TIP3    H231444  -3.091   0.418   5.362  1.0067  0.4129 -0.6287
 2417TIP3   OH231445  -2.360   3.183   4.749  0.0717 -0.0388  0.1162
 2417TIP3    H131446  -2.377   3.221   4.835  0.9825 -0.6202  0.5658
 2417TIP3    H231447  -2.442   3.196   4.700 -0.4667  0.2580  1.0793
 2418TIP3   OH231448   3.065   3.326   4.748 -0.2418  0.0243 -0.2905
 2418TIP3    H131449   3.108   3.327   4.663 -0.0076 -0.8656 -0.1983
 2418TIP3    H231450   3.138   3.331   4.811 -0.4983  3.1968 -0.0847
 2419TIP3   OH231451  -0.500   2.712   5.297 -0.4853  0.0332  0.3183
 2419TIP3    H131452  -0.437   2.677   5.359  0.6081 -1.2464 -1.4122
 2419TIP3    H231453  -0.555   2.638   5.273  1.0098 -0.3370 -2.4008
 2420TIP3   OH231454   0.951  -3.016   5.023  0.5939 -0.1516 -0.2362
 2420TIP3    H131455   1.046  -3.009   5.014  0.5677 -0.1739 -0.5492
 2420TIP3    H231456   0.921  -2.926   5.036  0.6453 -0.1295 -0.2701
 2421TIP3   OH231457  -0.868  -2.208   4.938 -0.3202 -0.1335 -0.3123
 2421TIP3    H131458  -0.886  -2.116   4.924 -3.0378 -0.3948  0.9534
 2421TIP3    H231459  -0.840  -2.240   4.852  0.9998  1.8725 -0.6924
 2422TIP3   OH231460  -2.973   0.961   5.483 -0.5780 -0.0374  0.1316
 2422TIP3    H131461  -2.996   0.895   5.417  0.6716  2.3987 -2.9948
 2422TIP3    H231462  -3.052   0.972   5.535 -1.9751 -1.4060 -1.5762
 2423TIP3   OH231463   2.150  -1.178   4.155  0.7892  0.4576 -0.6649
 2423TIP3    H131464   2.186  -1.093   4.182  2.0906  0.5372 -2.4065
 2423TIP3    H231465   2.165  -1.181   4.060  0.6032 -1.6401 -0.6805
 2424TIP3   OH231466  -0.182  -1.844   4.018  0.5806 -0.2813 -0.0010
 2424TIP3    H131467  -0.203  -1.863   3.927  0.6744 -1.2353  0.1693
 2424TIP3    H231468  -0.103  -1.895   4.036  2.8643  2.8022 -0.4735
 2425TIP3   OH231469  -0.817  -1.869   4.127 -0.2541  0.7214 -0.5983
 2425TIP3    H131470  -0.764  -1.825   4.061 -0.0478  1.3750 -0.0183
 2425TIP3    H231471  -0.840  -1.953   4.088  0.0025  1.0256 -1.4274
 2426TIP3   OH231472   0.480   0.438   5.411  0.1591  0.0299 -0.3255
 2426TIP3    H131473   0.467   0.529   5.441  0.6245  0.1250 -0.3980
 2426TIP3    H231474   0.414   0.425   5.344 -0.2756  0.1309  0.0763
 2427TIP3   OH231475  -0.499  -0.751   3.837 -0.0160 -0.3457 -0.3038
 2427TIP3    H131476  -0.562  -0.731   3.768  1.1039 -0.1651 -1.3146
 2427TIP3    H231477  -0.536  -0.711   3.916 -2.0374 -1.7925 -0.4532
 2428TIP3   OH231478   2.205  -1.112   3.863 -0.3100  0.3439 -0.2116
 2428TIP3    H131479   2.274  -1.176   3.847  0.4296  1.2130 -0.6080
 2428TIP3    H231480   2.248  -1.027   3.848 -1.1291  0.9469  0.8029
 2429TIP3   OH231481   3.180   2.976   2.602 -0.0013 -0.3688  0.2057
 2429TIP3    H131482   3.165   3.036   2.529 -0.5139 -0.8925 -0.1360
 2429TIP3    H231483   3.274   2.957   2.598  0.1298  0.2769  0.2155
 2430TIP3   OH231484   0.271   0.674   4.425  0.3037 -0.0462 -0.2926
 2430TIP3    H131485   0.349   0.653   4.477  2.4011 -1.0620 -3.5209
 2430TIP3    H231486   0.221   0.593   4.425  1.1861 -0.6117 -1.2184
 2431TIP3   OH231487   2.841   2.812   4.414 -0.3942  0.0186 -0.1870
 2431TIP3    H131488   2.878   2.730   4.381  1.3851  0.9121 -0.5099
 2431TIP3    H231489   2.876   2.879   4.357 -0.4549  1.1928  1.0977
 2432TIP3   OH231490   1.921  -2.394   4.157  0.1585  0.0382 -0.4718
 2432TIP3    H131491   2.002  -2.445   4.160 -0.1028 -0.4247 -0.9856
 2432TIP3    H231492   1.892  -2.389   4.248  0.6660  0.0492 -0.3094
 2433TIP3   OH231493  -1.683  -3.126   5.057  0.5132 -0.6175 -0.3347
 2433TIP3    H131494  -1.613  -3.108   5.120  0.4837  1.1306 -0.7220
 2433TIP3    H231495  -1.660  -3.071   4.981 -0.6843 -0.8747 -0.9007
 2434TIP3   OH231496   0.706  -1.970   5.419  0.0749 -0.2284 -0.8403
 2434TIP3    H131497   0.711  -2.053   5.372  2.0197  0.4472 -1.9539
 2434TIP3    H231498   0.775  -1.975   5.484  0.1641  0.4739 -0.8714
 2435TIP3   OH231499   0.106  -2.959   2.817  0.6518  0.3611 -0.2320
 2435TIP3    H131500   0.119  -3.050   2.844 -0.3043  0.1164 -0.5666
 2435TIP3    H231501   0.182  -2.938   2.764  1.2801  0.0220  0.5110
 2436TIP3   OH231502   2.592   1.747   4.034 -0.1700 -0.2861 -0.3229
 2436TIP3    H131503   2.580   1.793   4.116  1.3584 -1.6019  0.7021
 2436TIP3    H231504   2.618   1.658   4.059 -0.5760 -1.0030 -2.2180
 2437TIP3   OH231505   0.496   0.384   5.681  0.0303 -0.9338 -0.3705
 2437TIP3    H131506   0.466   0.474   5.696  1.3393 -0.4304 -0.6707
 2437TIP3    H231507   0.502   0.377   5.586  1.2076 -0.8928 -0.3096
 2438TIP3   OH231508   0.003  -2.751   5.659 -0.3042  0.3495 -0.3229
 2438TIP3    H131509   0.068  -2.682   5.670  0.0843  0.2054 -1.6132
 2438TIP3    H231510  -0.081  -2.704   5.654 -0.0228  0.7598 -1.3894
 2439TIP3   OH231511   0.913   1.254   3.224  0.5530  0.0573  0.0867
 2439TIP3    H131512   0.955   1.212   3.149  2.0561  2.6071 -0.6084
 2439TIP3    H231513   0.968   1.329   3.244 -0.9192  0.6069  2.5015
 2440TIP3   OH231514   1.930   0.631   5.141 -0.3748 -0.3654  0.2707
 2440TIP3    H131515   1.941   0.595   5.228  0.6403  1.8057  1.1348
 2440TIP3    H231516   2.009   0.604   5.093 -1.1682 -1.9817 -0.1907
 2441TIP3   OH231517  -3.337  -2.052   3.362 -0.4520  0.2946 -0.3513
 2441TIP3    H131518  -3.351  -2.000   3.283 -0.9244  0.0518 -0.4347
 2441TIP3    H231519  -3.249  -2.029   3.391 -1.2804  2.4824  0.6159
 2442TIP3   OH231520   0.986   2.158   4.141 -0.2372  0.3510 -0.4037
 2442TIP3    H131521   1.073   2.157   4.101 -1.0597  3.2870 -2.7021
 2442TIP3    H231522   1.002   2.171   4.234  1.7559 -1.0698 -0.4995
 2443TIP3   OH231523   1.060  -0.272   5.468  0.4891 -0.0422  0.1133
 2443TIP3    H131524   1.118  -0.310   5.534 -0.4305 -0.7967  0.5185
 2443TIP3    H231525   0.980  -0.251   5.516 -0.7839 -2.0417 -1.0141
 2444TIP3   OH231526  -2.793   3.144   3.553 -0.0670 -0.7462 -0.3368
 2444TIP3    H131527  -2.865   3.081   3.542 -1.0988  0.5200 -1.1123
 2444TIP3    H231528  -2.785   3.187   3.468  0.9893 -0.2082  0.0172
 2445TIP3   OH231529  -2.481  -2.094   2.852 -0.1466 -0.1308  0.3774
 2445TIP3    H131530  -2.496  -2.158   2.922 -0.2873  0.3682  0.8047
 2445TIP3    H231531  -2.470  -2.148   2.773  3.5442 -0.9751  1.2782
 2446TIP3   OH231532   3.295  -2.877   5.069  0.5334 -0.2347  0.7391
 2446TIP3    H131533   3.379  -2.922   5.075  1.6745  1.5549 -0.9167
 2446TIP3    H231534   3.269  -2.886   4.977 -0.6259  0.0675  1.0207
 2447TIP3   OH231535   0.757  -1.231   5.156 -0.7694 -0.2549  0.2388
 2447TIP3    H131536   0.785  -1.264   5.242  0.0454  0.4575  0.2575
 2447TIP3    H231537   0.823  -1.165   5.133 -0.8254 -0.6330 -1.0628
 2448TIP3   OH231538  -2.622   2.872   5.140 -0.5920  0.3275  0.3073
 2448TIP3    H131539  -2.575   2.876   5.223  0.7613 -3.6733 -0.0465
 2448TIP3    H231540  -2.556   2.893   5.074 -0.9441  0.7625  0.0864
 2449TIP3   OH231541   0.072   3.019   5.698 -0.1838 -0.1674 -0.2722
 2449TIP3    H131542  -0.015   3.059   5.705 -0.0355  0.0100  0.6602
 2449TIP3    H231543   0.120   3.077   5.639 -0.8061 -0.4722 -1.1046
 2450TIP3   OH231544   2.462   3.325   2.280 -0.9822  0.2889  0.1236
 2450TIP3    H131545   2.557   3.331   2.275 -0.8657 -1.1846  0.0755
 2450TIP3    H231546   2.438   3.387   2.349 -0.0754  1.1995 -0.3448
 2451TIP3   OH231547  -3.083  -1.984   5.808  0.3842 -0.4784 -0.1813
 2451TIP3    H131548  -3.017  -2.013   5.745  1.4705 -1.2676  1.2394
 2451TIP3    H231549  -3.079  -1.889   5.806  2.0511 -0.5090  0.3265
 2452TIP3   OH231550  -2.376   2.969   5.086 -0.0271  0.1115 -0.1674
 2452TIP3    H131551  -2.407   3.037   5.025 -0.2321 -0.5450 -0.8159
 2452TIP3    H231552  -2.320   3.016   5.148 -3.5460  1.7408  2.1134
 2453TIP3   OH231553  -0.018   2.516   4.054  0.4964  0.4378  0.5274
 2453TIP3    H131554   0.004   2.609   4.066  0.7443  0.1162  2.8844
 2453TIP3    H231555   0.057   2.469   4.087  0.1381 -0.6440 -0.1458
 2454TIP3   OH231556   0.324   1.727   3.809  0.2503  0.4276  0.5723
 2454TIP3    H131557   0.278   1.645   3.794  1.4964 -0.3770  0.9778
 2454TIP3    H231558   0.414   1.709   3.782  1.0404  0.9646  2.6697
 2455TIP3   OH231559  -1.345  -2.104   4.371 -0.1101 -0.0805 -0.0698
 2455TIP3    H131560  -1.351  -2.083   4.278 -1.2765  0.7826  0.1791
 2455TIP3    H231561  -1.325  -2.198   4.373  1.2158  0.1368 -1.1737
 2456TIP3   OH231562   1.500  -2.755   3.552 -0.5210  0.4159 -0.5163
 2456TIP3    H131563   1.540  -2.706   3.625 -0.1456 -0.7826  0.1131
 2456TIP3    H231564   1.434  -2.810   3.594  0.7878 -1.4789 -0.8019
 2457TIP3   OH231565   0.971  -2.210   3.955  0.0222 -0.4648 -0.2018
 2457TIP3    H131566   0.922  -2.288   3.929 -1.4192 -0.2638  1.7148
 2457TIP3    H231567   0.912  -2.137   3.937 -1.0133 -0.2937  3.1454
 2458TIP3   OH231568  -0.962  -0.736   3.996  0.4247  0.4823  0.0937
 2458TIP3    H131569  -0.973  -0.641   3.990 -1.6775  0.2009 -1.6261
 2458TIP3    H231570  -1.044  -0.768   4.034  1.3760 -0.6325  1.3052
 2459TIP3   OH231571   1.960  -3.293   5.378  0.1050  0.0876 -0.1807
 2459TIP3    H131572   1.953  -3.250   5.292 -0.5636  1.9980  0.7751
 2459TIP3    H231573   1.887  -3.355   5.379 -0.9240  1.2701 -0.3539
 2460TIP3   OH231574   0.808   0.979   4.126  0.4335  0.2436 -0.4811
 2460TIP3    H131575   0.760   0.898   4.110 -0.4508  0.7455 -0.3970
 2460TIP3    H231576   0.879   0.953   4.186 -2.4928  0.2739  3.4048
 2461TIP3   OH231577  -2.850  -0.569   4.807  0.0658 -0.3212 -0.2023
 2461TIP3    H131578  -2.918  -0.631   4.781  1.8741 -2.9484  0.9740
 2461TIP3    H231579  -2.883  -0.529   4.888  0.4425 -2.7059  1.2261
 2462TIP3   OH231580  -1.437   0.602   5.362 -0.5131  0.0778 -0.3453
 2462TIP3    H131581  -1.454   0.534   5.428  1.5253 -0.8499 -0.6929
 2462TIP3    H231582  -1.518   0.653   5.359 -0.2678  1.1044  3.9267
 2463TIP3   OH231583   2.696  -0.691   4.755  0.2019  0.9692 -0.0856
 2463TIP3    H131584   2.626  -0.626   4.747 -0.8005 -0.2524 -1.7012
 2463TIP3    H231585   2.723  -0.709   4.665 -1.0444 -2.3793  0.0687
 2464TIP3   OH231586  -3.120  -3.121   2.821  0.4395 -0.2988 -0.0226
 2464TIP3    H131587  -3.074  -3.084   2.896  0.5687 -1.2474  0.3853
 2464TIP3    H231588  -3.211  -3.091   2.832  0.3425 -0.8574  0.8125
 2465TIP3   OH231589  -1.133  -0.220   5.918  0.2596  0.0093 -0.0009
 2465TIP3    H131590  -1.048  -0.176   5.916 -0.8584  2.7852  3.5452
 2465TIP3    H231591  -1.196  -0.153   5.894 -1.1647 -1.1110  0.4323
 2466TIP3   OH231592  -2.670   0.725   3.548  0.0484 -0.0707 -0.2861
 2466TIP3    H131593  -2.749   0.743   3.598 -0.0155 -0.3730 -0.2782
 2466TIP3    H231594  -2.701   0.686   3.466  0.1659  0.1988 -0.4631
 2467TIP3   OH231595   1.760   0.088   4.803  0.1735 -0.3740 -0.0016
 2467TIP3    H131596   1.765   0.001   4.765 -1.7168 -0.5101 -0.0642
 2467TIP3    H231597   1.740   0.146   4.729  0.8227  0.0302  0.1319
 2468TIP3   OH231598   2.587   1.286   3.156 -0.0742 -0.5650  0.2984
 2468TIP3    H131599   2.498   1.261   3.131 -1.4943  2.4283  1.7748
 2468TIP3    H231600   2.617   1.215   3.214 -1.5986 -1.5076 -0.0048
 2469TIP3   OH231601  -1.151  -0.901   5.278 -0.3528 -0.0093  0.6490
 2469TIP3    H131602  -1.180  -0.909   5.370 -0.8168 -1.8268  0.3870
 2469TIP3    H231603  -1.091  -0.826   5.278  0.6868 -0.7606  2.7034
 2470TIP3   OH231604  -2.343  -1.674   4.834  0.1054  0.2980  0.4529
 2470TIP3    H131605  -2.377  -1.596   4.877 -0.1115  1.7398 -2.1617
 2470TIP3    H231606  -2.402  -1.689   4.760  2.4311  0.1157 -1.4842
 2471TIP3   OH231607   0.455  -1.517   3.264 -0.6126 -0.7284  0.4117
 2471TIP3    H131608   0.535  -1.567   3.280  0.1572 -0.0308 -1.0413
 2471TIP3    H231609   0.442  -1.465   3.343  2.4205  1.8030 -0.5557
 2472TIP3   OH231610   0.341   0.860   2.154 -0.1512 -0.2315 -0.0948
 2472TIP3    H131611   0.423   0.909   2.152  0.2612 -0.9147 -0.9068
 2472TIP3    H231612   0.363   0.778   2.199 -0.5987 -0.0813  0.4100
 2473TIP3   OH231613   0.612   0.700   2.694 -1.2900 -0.3169 -0.1943
 2473TIP3    H131614   0.568   0.635   2.638 -3.2694 -0.2244  1.1305
 2473TIP3    H231615   0.596   0.669   2.783  0.0526  0.5980  0.3934
 2474TIP3   OH231616   3.119  -2.600   5.285 -0.5916 -0.3182  0.1620
 2474TIP3    H131617   3.193  -2.580   5.343 -0.3095 -0.5213 -0.1247
 2474TIP3    H231618   3.042  -2.595   5.342 -0.3239 -0.4440  0.5386
 2475TIP3   OH231619  -0.663  -0.208   4.821  0.0982  0.1271 -0.3498
 2475TIP3    H131620  -0.580  -0.165   4.839 -0.0196  1.5138 -2.6903
 2475TIP3    H231621  -0.646  -0.301   4.836  1.6797  0.5094  0.4208
 2476TIP3   OH231622   2.105   0.398   5.663 -0.1337 -0.0452 -0.1620
 2476TIP3    H131623   2.172   0.459   5.632  0.5946 -0.7529 -0.0120
 2476TIP3    H231624   2.154   0.324   5.699 -0.9853 -1.1642 -1.2173
 2477TIP3   OH231625  -2.702  -1.170   3.928  0.3382  0.1459 -0.2487
 2477TIP3    H131626  -2.613  -1.164   3.962  0.6100  1.2138 -1.0931
 2477TIP3    H231627  -2.756  -1.126   3.994  0.8631  2.2246 -1.1286
 2478TIP3   OH231628   1.924   0.528   4.825 -0.1855 -0.0425 -0.4460
 2478TIP3    H131629   1.849   0.492   4.871 -0.8840  2.2646  0.3649
 2478TIP3    H231630   2.000   0.485   4.864 -0.9752 -1.2390 -0.1761
 2479TIP3   OH231631  -1.540  -0.750   2.787 -0.7092  0.3751  0.0262
 2479TIP3    H131632  -1.571  -0.747   2.697 -0.9092 -1.4221  0.0077
 2479TIP3    H231633  -1.445  -0.756   2.780 -0.7083  0.4764 -0.0490
 2480TIP3   OH231634   0.113   2.770   3.842  0.7113 -0.3104 -0.4995
 2480TIP3    H131635   0.142   2.685   3.809 -1.0246 -0.5167 -1.5937
 2480TIP3    H231636   0.159   2.834   3.787 -0.2152 -0.6156 -1.6580
 2481TIP3   OH231637  -0.903  -1.135   4.341 -0.0518  0.4961  0.5208
 2481TIP3    H131638  -0.947  -1.074   4.282  2.3953  0.1771 -1.8466
 2481TIP3    H231639  -0.833  -1.082   4.381  2.4036 -0.6661 -1.9181
 2482TIP3   OH231640  -2.972   0.874   5.200  0.4663 -0.1808 -0.0000
 2482TIP3    H131641  -2.877   0.861   5.198  0.3823 -0.8985  0.2134
 2482TIP3    H231642  -3.004   0.802   5.253 -0.2726 -0.4199 -0.7501
 2483TIP3   OH231643   1.714   2.502   5.493  0.8961 -0.1117  0.5140
 2483TIP3    H131644   1.806   2.492   5.469  1.3133  3.5632 -0.0567
 2483TIP3    H231645   1.715   2.506   5.589  1.9244  2.8225  0.5030
 2484TIP3   OH231646  -1.277   1.838   2.873 -0.1776 -0.9199 -0.0045
 2484TIP3    H131647  -1.205   1.819   2.812  0.5252  0.5036  0.3451
 2484TIP3    H231648  -1.233   1.851   2.957 -0.8149  0.1975  0.1656
 2485TIP3   OH231649  -1.608  -1.751   3.884 -0.1904  0.5091 -0.1891
 2485TIP3    H131650  -1.660  -1.672   3.869 -0.6031  0.2973  0.1047
 2485TIP3    H231651  -1.565  -1.736   3.968  1.2695  1.2367 -1.0286
 2486TIP3   OH231652  -2.969   3.190   3.167  0.4180 -0.3276  0.3761
 2486TIP3    H131653  -3.028   3.250   3.122 -1.5009 -1.2052  1.5721
 2486TIP3    H231654  -2.944   3.125   3.101  0.2393  0.1927 -0.2073
 2487TIP3   OH231655  -0.040  -2.617   5.208  0.5214  0.2167  0.6248
 2487TIP3    H131656   0.038  -2.645   5.161 -0.2593 -0.1623 -0.5075
 2487TIP3    H231657  -0.061  -2.689   5.268  1.5092  0.6882  1.5587
 2488TIP3   OH231658  -3.206  -3.184   4.614 -0.1395  0.5189 -0.5043
 2488TIP3    H131659  -3.292  -3.172   4.575  0.0153 -0.7439 -1.3114
 2488TIP3    H231660  -3.147  -3.196   4.539  0.3576 -0.7818  0.0527
 2489TIP3   OH231661   2.340   2.118   4.401 -0.1445  0.0950 -0.1840
 2489TIP3    H131662   2.346   2.024   4.381  1.6715  0.0302  0.5094
 2489TIP3    H231663   2.254   2.128   4.441  0.0352 -1.4806  0.6792
 2490TIP3   OH231664   1.996  -1.144   5.042 -0.1208 -0.2382 -1.0186
 2490TIP3    H131665   2.045  -1.226   5.052 -1.0316 -0.8257 -1.1731
 2490TIP3    H231666   1.965  -1.145   4.952  1.0098  0.9660 -1.4471
 2491TIP3   OH231667   0.583  -3.295   3.404 -0.7468  0.8960  0.2166
 2491TIP3    H131668   0.591  -3.202   3.383 -1.8286  0.9982  0.2093
 2491TIP3    H231669   0.603  -3.301   3.497  1.5251  0.8007 -0.2078
 2492TIP3   OH231670   0.576   0.199   4.416  0.1562 -0.4506  0.4681
 2492TIP3    H131671   0.632   0.250   4.474  0.1455  0.6271 -0.4523
 2492TIP3    H231672   0.614   0.209   4.329 -1.1566 -0.1026 -0.0964
 2493TIP3   OH231673   0.119  -1.283   2.663  0.1598 -0.6009 -0.4655
 2493TIP3    H131674   0.102  -1.268   2.756 -1.4277  0.3088 -0.8741
 2493TIP3    H231675   0.101  -1.376   2.650 -1.3333 -0.3776 -0.1845
 2494TIP3   OH231676   3.199   0.401   5.309 -0.1494 -0.2774  0.8760
 2494TIP3    H131677   3.285   0.380   5.272 -0.6382  1.2010 -1.3146
 2494TIP3    H231678   3.146   0.324   5.290  0.5815 -1.0755  1.9688
 2495TIP3   OH231679   1.224   1.718   3.470  0.1778  0.0887 -0.3752
 2495TIP3    H131680   1.245   1.738   3.379 -0.7536 -2.4546 -1.2400
 2495TIP3    H231681   1.306   1.686   3.508  0.4200  0.5754 -0.4776
 2496TIP3   OH231682   1.398   0.093   5.632  0.3854  0.1207 -0.2335
 2496TIP3    H131683   1.429   0.007   5.661  2.2402  1.4155  1.9243
 2496TIP3    H231684   1.422   0.097   5.540  0.0414 -1.7357 -0.4519
 2497TIP3   OH231685   2.561   1.241   2.815  0.0959 -0.1247  0.4177
 2497TIP3    H131686   2.645   1.220   2.856  0.6839 -1.4714 -1.3264
 2497TIP3    H231687   2.583   1.258   2.723 -1.3251  1.3855  0.3030
 2498TIP3   OH231688  -2.804  -3.319   5.298  0.5780 -0.1619  0.4160
 2498TIP3    H131689  -2.865  -3.255   5.261 -0.2050  0.0078  1.9601
 2498TIP3    H231690  -2.857  -3.375   5.354  1.6109 -0.9087  0.6919
 2499TIP3   OH231691  -1.849   1.782   3.909  0.3863 -0.6501 -0.0126
 2499TIP3    H131692  -1.789   1.710   3.892  0.2237 -0.7506 -0.1595
 2499TIP3    H231693  -1.929   1.740   3.941  0.7411 -0.4607  1.1879
 2500TIP3   OH231694   1.846  -1.097   3.082  0.5771  0.3971  0.8357
 2500TIP3    H131695   1.900  -1.021   3.103  2.4662 -0.2623 -1.3227
 2500TIP3    H231696   1.775  -1.062   3.028  3.0211  0.4253 -2.6683
 2501TIP3   OH231697   1.665   1.269   4.110  0.2785  0.8591  0.3062
 2501TIP3    H131698   1.606   1.248   4.183 -0.3411 -0.8536 -0.6325
 2501TIP3    H231699   1.626   1.347   4.070 -0.6176  0.5335  0.5138
 2502TIP3   OH231700   2.762  -2.103   5.615 -0.3023  0.0316 -0.3370
 2502TIP3    H131701   2.786  -2.067   5.529 -2.9681  3.2770  0.0450
 2502TIP3    H231702   2.815  -2.053   5.677 -0.5911 -0.0739 -0.0015
 2503TIP3   OH231703   2.219   1.362   4.433  0.0340  0.4330  0.7236
 2503TIP3    H131704   2.188   1.289   4.486 -1.0571  2.0476  2.4419
 2503TIP3    H231705   2.294   1.397   4.480 -0.0118  0.9716  0.4129
 2504TIP3   OH231706  -3.225   2.045   2.918 -0.2427  0.0737  0.0901
 2504TIP3    H131707  -3.237   1.969   2.861  1.3531  0.7158 -1.1613
 2504TIP3    H231708  -3.145   2.024   2.967 -1.8121 -0.6745  2.5209
 2505TIP3   OH231709   1.379  -1.874   4.143  0.0006  0.0364 -0.1121
 2505TIP3    H131710   1.404  -1.796   4.094  0.6273  1.3753  2.2088
 2505TIP3    H231711   1.462  -1.918   4.163 -0.0375  0.6135  1.4363
 2506TIP3   OH231712   2.707  -0.074   3.489 -0.6246  0.0121 -0.0891
 2506TIP3    H131713   2.613  -0.062   3.496 -0.5383  2.2401 -1.7151
 2506TIP3    H231714   2.744  -0.016   3.556 -0.3928  0.7882 -0.8721
 2507TIP3   OH231715  -0.836  -2.250   2.890 -0.0609 -0.2780  0.0640
 2507TIP3    H131716  -0.857  -2.340   2.863  0.7912 -0.5444  0.2576
 2507TIP3    H231717  -0.883  -2.195   2.827 -2.0993 -0.8116  1.0511
 2508TIP3   OH231718   1.412   2.488   4.855 -0.2397 -0.3242 -0.0842
 2508TIP3    H131719   1.350   2.469   4.925 -1.2883  1.4710 -0.4735
 2508TIP3    H231720   1.391   2.577   4.827 -0.0652 -1.0768 -2.9020
 2509TIP3   OH231721  -1.576   2.708   2.758  0.6217  0.4191 -0.0753
 2509TIP3    H131722  -1.540   2.682   2.843 -0.0822  1.7989  0.6804
 2509TIP3    H231723  -1.501   2.741   2.710  0.9934 -0.1939  0.0646
 2510TIP3   OH231724  -0.848  -0.188   2.289 -1.0742  0.8860 -0.1362
 2510TIP3    H131725  -0.838  -0.232   2.205  0.8520 -1.1150  1.0563
 2510TIP3    H231726  -0.906  -0.244   2.339 -0.1574  0.6910  0.7349
 2511TIP3   OH231727   0.221  -0.129   4.895 -0.2691  0.4599  0.3369
 2511TIP3    H131728   0.297  -0.136   4.836 -0.6234  1.4807 -0.2781
 2511TIP3    H231729   0.147  -0.159   4.842 -0.1935 -1.4388  1.2347
 2512TIP3   OH231730   0.048  -0.486   5.413  0.5138  0.3169 -0.3064
 2512TIP3    H131731   0.080  -0.511   5.499  2.1144 -0.9100 -1.1894
 2512TIP3    H231732  -0.047  -0.480   5.422  0.5529 -0.8808  1.2604
 2513TIP3   OH231733   3.021   3.023   5.273  0.0246  0.3278  0.0695
 2513TIP3    H131734   2.954   3.085   5.302 -0.7156 -0.9930  1.3501
 2513TIP3    H231735   2.991   2.994   5.187 -1.1086 -0.2525  0.6322
 2514TIP3   OH231736   0.537   1.882   3.470 -0.4769  0.3167 -0.2959
 2514TIP3    H131737   0.543   1.796   3.512  3.0572  0.5628  0.0176
 2514TIP3    H231738   0.578   1.869   3.384 -1.7406  1.2789 -1.0747
 2515TIP3   OH231739   1.934   3.327   2.160  0.2078  0.4898 -0.6920
 2515TIP3    H131740   1.997   3.378   2.211 -0.0145 -0.0309  0.1209
 2515TIP3    H231741   1.966   3.237   2.165 -0.1854  0.3345 -0.9195
 2516TIP3   OH231742  -1.768  -0.676   2.910 -0.3353 -0.2695 -0.2013
 2516TIP3    H131743  -1.830  -0.713   2.847 -0.4936 -1.2645  0.5133
 2516TIP3    H231744  -1.683  -0.712   2.884 -0.2229  0.1982 -0.4988
 2517TIP3   OH231745  -0.533   0.724   5.162 -0.0842  1.0333 -0.0307
 2517TIP3    H131746  -0.621   0.760   5.165 -0.1462  0.8578  0.4288
 2517TIP3    H231747  -0.542   0.640   5.119 -0.5293 -0.0030  1.9580
 2518TIP3   OH231748   1.443  -0.670   3.297 -0.4206 -0.0995  0.4553
 2518TIP3    H131749   1.447  -0.743   3.358  1.3921  0.3898  0.9695
 2518TIP3    H231750   1.410  -0.597   3.350  2.0287  0.5666  1.1780
 2519TIP3   OH231751  -1.592  -0.951   3.899 -0.1952  0.4678  0.0195
 2519TIP3    H131752  -1.574  -0.906   3.816  0.4632  0.4016  0.1243
 2519TIP3    H231753  -1.616  -0.881   3.960 -0.9063  0.4967 -0.2771
 2520TIP3   OH231754  -0.873  -1.429   5.648  0.5143  0.0871  0.2908
 2520TIP3    H131755  -0.931  -1.504   5.638 -3.2998  2.6598  0.7914
 2520TIP3    H231756  -0.840  -1.411   5.560 -1.9414  0.2374 -0.6654
 2521TIP3   OH231757  -0.660  -2.098   3.840  0.2285  0.1828 -0.4741
 2521TIP3    H131758  -0.602  -2.043   3.891  0.3978  2.3265 -2.7852
 2521TIP3    H231759  -0.603  -2.162   3.797  0.4558  0.2664 -0.2937
 2522TIP3   OH231760   2.912  -1.104   3.627  0.0346  0.0668  0.6515
 2522TIP3    H131761   2.831  -1.064   3.659 -0.6386  1.3399 -2.3016
 2522TIP3    H231762   2.883  -1.163   3.557  1.6609  1.9721 -1.7925
 2523TIP3   OH231763   3.012   0.270   4.484 -0.3177  0.5676 -0.1578
 2523TIP3    H131764   3.003   0.242   4.393 -0.9454  0.8515 -0.1822
 2523TIP3    H231765   3.103   0.247   4.506 -0.4925 -0.5367 -0.4993
 2524TIP3   OH231766  -2.155   1.333   2.772  0.4953 -0.4208 -0.6426
 2524TIP3    H131767  -2.190   1.248   2.744 -1.6303  0.8778 -2.2431
 2524TIP3    H231768  -2.082   1.349   2.712 -1.5639  0.5415 -3.0946
 2525TIP3   OH231769  -1.900  -1.984   4.688  0.4824 -0.7063 -1.0543
 2525TIP3    H131770  -1.959  -2.058   4.674  0.1113 -0.3750 -1.2505
 2525TIP3    H231771  -1.816  -2.024   4.712 -0.4623 -1.1915  1.9567
 2526TIP3   OH231772   0.635   0.415   3.572 -0.7376 -0.5502  0.0712
 2526TIP3    H131773   0.619   0.505   3.545  0.3165 -0.5370 -0.5867
 2526TIP3    H231774   0.719   0.418   3.618 -1.0159 -1.0880  0.6246
 2527TIP3   OH231775   2.089   1.044   2.492  1.2662  0.0706  0.5114
 2527TIP3    H131776   2.015   1.009   2.442  0.9470 -0.2746  1.2126
 2527TIP3    H231777   2.137   1.098   2.429  0.0939  0.7729  0.1879
 2528TIP3   OH231778   0.829  -0.731   4.880  0.0675  0.2037 -0.0735
 2528TIP3    H131779   0.873  -0.669   4.821 -3.1222  1.8864 -0.9236
 2528TIP3    H231780   0.793  -0.676   4.950  0.3235 -1.2499  1.2374
 2529TIP3   OH231781   2.140   2.489   4.850  0.1592 -0.1531 -0.2191
 2529TIP3    H131782   2.104   2.422   4.908  2.4898 -0.1229  1.4211
 2529TIP3    H231783   2.153   2.444   4.766  0.6621 -1.4713  0.5270
 2530TIP3   OH231784  -2.368   1.771   1.838 -0.2821  0.0208  0.3268
 2530TIP3    H131785  -2.399   1.762   1.748 -1.0466  0.4939  0.5253
 2530TIP3    H231786  -2.444   1.807   1.886 -0.1356 -0.9260  1.3162
 2531TIP3   OH231787  -1.455   0.332   2.522 -0.0661  0.4816 -0.0144
 2531TIP3    H131788  -1.506   0.262   2.482 -0.0109 -0.1558  0.9807
 2531TIP3    H231789  -1.520   0.396   2.550 -0.4288 -0.5619  1.7103
 2532TIP3   OH231790  -1.773  -1.795   3.529 -0.0752 -0.0336  0.0291
 2532TIP3    H131791  -1.694  -1.804   3.476  0.2345 -2.0777  0.7572
 2532TIP3    H231792  -1.780  -1.701   3.545  2.3529  0.1982  0.1466
 2533TIP3   OH231793  -2.549  -2.654   3.660  0.0605 -0.2958 -0.9405
 2533TIP3    H131794  -2.494  -2.729   3.682  1.7790  0.5105 -2.2371
 2533TIP3    H231795  -2.537  -2.593   3.732  1.1376 -0.0072 -1.3470
 2534TIP3   OH231796  -1.717   0.536   5.790 -0.0333 -0.2612  0.1757
 2534TIP3    H131797  -1.776   0.474   5.746 -0.2574  0.6033 -0.7897
 2534TIP3    H231798  -1.749   0.539   5.880 -0.0509 -1.4859  0.2405
 2535TIP3   OH231799  -2.093   1.642   2.547 -0.2262  0.0681 -0.1346
 2535TIP3    H131800  -2.052   1.591   2.477 -1.2346 -2.3854  0.9508
 2535TIP3    H231801  -2.083   1.733   2.519  1.2148 -0.7128 -2.4418
 2536TIP3   OH231802  -1.542  -1.390   3.938 -0.6631 -0.0834  0.2941
 2536TIP3    H131803  -1.540  -1.317   4.000 -0.5251  0.2539 -0.1065
 2536TIP3    H231804  -1.613  -1.368   3.878 -0.4154 -0.1250 -0.0130
 2537TIP3   OH231805  -0.829   1.778   3.414  0.6229 -0.1065 -0.7714
 2537TIP3    H131806  -0.877   1.806   3.336  0.3018  1.3333 -0.0941
 2537TIP3    H231807  -0.874   1.699   3.443 -0.2062  0.2117 -1.1729
 2538TIP3   OH231808   1.430  -1.746   5.044  0.5394  0.2437 -0.4523
 2538TIP3    H131809   1.405  -1.822   4.990  1.1740  0.9630 -1.8191
 2538TIP3    H231810   1.451  -1.678   4.980  2.2812  0.8374  0.6881
 2539TIP3   OH231811   2.666  -2.650   4.053  0.5213  0.4236 -0.4011
 2539TIP3    H131812   2.583  -2.605   4.036  0.6647  2.1918  2.7961
 2539TIP3    H231813   2.641  -2.731   4.097  0.4532  0.4285 -0.4305
 2540TIP3   OH231814   0.506   0.743   3.154 -0.1677 -0.8967 -0.7882
 2540TIP3    H131815   0.411   0.747   3.143 -0.0680  1.7018 -1.3049
 2540TIP3    H231816   0.522   0.778   3.241  0.2915 -2.5029 -0.1877
 2541TIP3   OH231817  -1.567   2.161   5.866 -0.3143 -0.0537 -0.0343
 2541TIP3    H131818  -1.554   2.203   5.951  0.1341  0.4725 -0.3547
 2541TIP3    H231819  -1.650   2.196   5.834  0.4210  1.1984 -0.6344
 2542TIP3   OH231820  -2.862   1.399   2.946 -0.5808  0.0367  0.2642
 2542TIP3    H131821  -2.849   1.407   3.040 -2.2387  0.6205  0.4839
 2542TIP3    H231822  -2.876   1.306   2.931  0.6408 -0.1921  0.4308
 2543TIP3   OH231823  -0.472   1.105   3.905 -0.1891  0.2083  0.6652
 2543TIP3    H131824  -0.469   1.143   3.817 -0.1450  0.4311  0.7613
 2543TIP3    H231825  -0.523   1.025   3.895 -0.7084  0.5497  0.5579
 2544TIP3   OH231826   1.128   0.549   5.354  0.4064 -0.3919 -0.2068
 2544TIP3    H131827   1.130   0.460   5.317 -1.6307  0.1166 -1.7578
 2544TIP3    H231828   1.037   0.576   5.344  1.1508  2.2302 -0.6331
 2545TIP3   OH231829  -1.094  -2.144   2.308  0.2069  0.7435  0.5275
 2545TIP3    H131830  -1.005  -2.167   2.282  0.4210  2.3548 -0.2927
 2545TIP3    H231831  -1.119  -2.212   2.371  1.6812 -0.2218  0.1164
 2546TIP3   OH231832   1.202   0.888   2.985  0.0098 -0.3428 -0.5624
 2546TIP3    H131833   1.173   0.842   3.064  0.3663  0.8490  0.2984
 2546TIP3    H231834   1.219   0.819   2.922 -0.4587 -1.3184  0.3431
 2547TIP3   OH231835  -2.387  -2.055   5.838 -0.0074  0.0095 -0.2125
 2547TIP3    H131836  -2.478  -2.024   5.840  0.7941  2.6340  0.0277
 2547TIP3    H231837  -2.393  -2.148   5.815 -2.8288 -0.3005  1.2934
 2548TIP3   OH231838   3.115   0.415   4.768  0.3099  0.4270  0.2530
 2548TIP3    H131839   3.052   0.449   4.704 -0.5905 -0.9083  0.3928
 2548TIP3    H231840   3.191   0.391   4.715 -0.0391  0.2824 -0.1938
 2549TIP3   OH231841  -0.807  -0.744   3.299 -0.3384 -0.4425 -0.6273
 2549TIP3    H131842  -0.838  -0.775   3.384  0.3233 -0.5120 -0.4031
 2549TIP3    H231843  -0.877  -0.689   3.266 -1.2280 -1.5753 -0.6979
 2550TIP3   OH231844   3.084  -2.122   4.170 -0.2536  0.4762 -0.4894
 2550TIP3    H131845   3.076  -2.093   4.079 -0.3679  2.7617  0.1854
 2550TIP3    H231846   3.094  -2.217   4.165  0.0795  0.5956 -2.8949
 2551TIP3   OH231847  -3.264   2.981   2.550  0.0765  0.1799 -0.3907
 2551TIP3    H131848  -3.282   3.070   2.521 -2.3751 -0.4261 -0.9544
 2551TIP3    H231849  -3.237   2.935   2.470 -1.7106 -0.2691 -0.7876
 2552TIP3   OH231850  -1.801   2.292   5.788 -0.1474  0.0840 -0.1936
 2552TIP3    H131851  -1.764   2.303   5.700 -0.5161  0.2961 -0.3222
 2552TIP3    H231852  -1.853   2.371   5.802 -0.7491 -0.3247 -0.1053
 2553TIP3   OH231853  -0.774  -2.012   4.356 -0.1539 -0.0630 -0.4901
 2553TIP3    H131854  -0.814  -1.958   4.289 -2.1319  1.5487  1.8151
 2553TIP3    H231855  -0.813  -2.099   4.344 -0.2407  0.1242 -1.5812
 2554TIP3   OH231856   3.346  -0.352   4.138 -0.4568 -0.0693 -0.0429
 2554TIP3    H131857   3.334  -0.381   4.229 -1.4111 -0.5782 -0.3179
 2554TIP3    H231858   3.440  -0.360   4.123 -0.3842 -0.6896  0.6658
 2555TIP3   OH231859   1.115  -1.965   5.337  0.3557  0.3819  0.3976
 2555TIP3    H131860   1.041  -1.977   5.277 -0.3701 -0.0908  1.3702
 2555TIP3    H231861   1.162  -1.889   5.302 -0.1642  0.2332 -0.6567
 2556TIP3   OH231862  -1.101  -1.575   4.989 -0.4766 -0.0656 -0.5445
 2556TIP3    H131863  -1.110  -1.597   4.896 -0.3897 -1.8394 -0.1768
 2556TIP3    H231864  -1.015  -1.534   4.996 -0.2959 -0.3149 -1.1912
 2557TIP3   OH231865   0.230  -0.681   5.565  0.6391  0.0480 -0.6463
 2557TIP3    H131866   0.144  -0.643   5.580  0.2805  0.2561 -2.8787
 2557TIP3    H231867   0.213  -0.775   5.552  0.5299  0.2728 -2.3549
 2558TIP3   OH231868   1.652   0.139   3.360  0.0394  0.4870 -0.3029
 2558TIP3    H131869   1.664   0.233   3.348  0.0876  0.5272  0.0518
 2558TIP3    H231870   1.602   0.111   3.283  0.8269  0.6386 -0.8854
 2559TIP3   OH231871   3.053  -1.711   4.896  0.7327 -0.3990 -0.2413
 2559TIP3    H131872   3.041  -1.732   4.988  0.9237 -1.6183 -0.4705
 2559TIP3    H231873   2.979  -1.654   4.874  0.8010  0.0734  0.6990
 2560TIP3   OH231874   0.639  -0.679   3.996  0.2478 -0.2480  0.1835
 2560TIP3    H131875   0.695  -0.734   4.050  0.2114 -0.9569 -0.4748
 2560TIP3    H231876   0.583  -0.741   3.949  1.0184  0.2533 -1.4753
 2561TIP3   OH231877   0.544  -1.915   2.564 -0.1645 -0.1812 -0.2246
 2561TIP3    H131878   0.558  -1.936   2.657  1.1928 -0.9492 -0.5777
 2561TIP3    H231879   0.549  -1.820   2.560 -0.0481 -0.1512  0.4663
 2562TIP3   OH231880   2.354  -0.895   5.616  0.0128  0.3002 -0.5475
 2562TIP3    H131881   2.366  -0.943   5.534  0.9089 -0.7227  0.1505
 2562TIP3    H231882   2.350  -0.803   5.590 -1.6755 -0.1180 -1.9055
 2563TIP3   OH231883  -0.376  -0.054   2.683 -0.1732 -0.2901 -0.0126
 2563TIP3    H131884  -0.342   0.030   2.652 -2.8638  0.2990 -1.6989
 2563TIP3    H231885  -0.465  -0.059   2.648 -1.4178 -2.2806  2.9809
 2564TIP3   OH231886   3.158   2.030   5.526  0.1879 -0.1273 -0.1814
 2564TIP3    H131887   3.188   2.019   5.616 -2.1115  0.3129  0.7129
 2564TIP3    H231888   3.096   1.958   5.512 -0.0611  0.2568 -1.1420
 2565TIP3   OH231889   2.749  -0.202   3.944 -0.6247 -0.3044 -0.2527
 2565TIP3    H131890   2.665  -0.160   3.962 -0.9058 -0.8249 -0.3315
 2565TIP3    H231891   2.727  -0.276   3.888 -0.2420 -1.0114  0.5003
 2566TIP3   OH231892   0.828   1.058   2.855  0.0800  0.3150 -0.4587
 2566TIP3    H131893   0.861   0.983   2.804  0.9595  0.7443 -0.5320
 2566TIP3    H231894   0.782   1.111   2.791  1.0271  0.7593 -0.7907
 2567TIP3   OH231895  -1.070   1.971   3.748 -0.0998 -0.1304  0.7065
 2567TIP3    H131896  -1.040   1.987   3.837  1.2250  1.1917  0.0601
 2567TIP3    H231897  -1.145   2.030   3.737  1.2630  1.5788  0.1860
 2568TIP3   OH231898  -0.712   0.247   5.437 -0.0718 -0.5149 -0.0880
 2568TIP3    H131899  -0.646   0.286   5.379  0.1538  1.3473  1.3177
 2568TIP3    H231900  -0.786   0.228   5.380  0.6259  0.0251 -1.2101
 2569TIP3   OH231901  -1.844   2.710   2.703 -0.0304 -0.2760 -0.5558
 2569TIP3    H131902  -1.750   2.723   2.719 -0.2572 -0.3363  0.9666
 2569TIP3    H231903  -1.854   2.615   2.699 -0.1850 -0.3181  0.4892
 2570TIP3   OH231904   1.732  -0.236   5.677  0.1465 -0.0059 -0.8245
 2570TIP3    H131905   1.703  -0.219   5.587 -0.7693 -0.4053 -0.6209
 2570TIP3    H231906   1.724  -0.151   5.721  0.2066  0.1013 -1.0190
 2571TIP3   OH231907   1.935   1.274   4.740 -0.2709  0.0496  0.1253
 2571TIP3    H131908   1.840   1.266   4.730 -0.5133  1.6388  0.8392
 2571TIP3    H231909   1.951   1.258   4.833  0.4532 -2.2686 -0.3245
 2572TIP3   OH231910   0.218  -1.568   5.278 -0.0906 -0.1927 -0.1680
 2572TIP3    H131911   0.186  -1.571   5.368 -0.7918 -0.7459 -0.4280
 2572TIP3    H231912   0.185  -1.648   5.237  1.2362 -0.5413 -0.5880
 2573TIP3   OH231913   1.548  -3.216   4.838 -0.4994  0.2755 -0.3039
 2573TIP3    H131914   1.478  -3.197   4.775 -0.8725 -0.6347 -0.1802
 2573TIP3    H231915   1.537  -3.308   4.860 -0.4002  0.5744  1.1332
 2574TIP3   OH231916   1.796   0.390   4.385  0.3597  0.2955 -0.4981
 2574TIP3    H131917   1.739   0.412   4.311 -1.5037  2.1599  1.3487
 2574TIP3    H231918   1.853   0.466   4.395  0.4124  0.1775  0.1352
 2575TIP3   OH231919  -1.806   0.594   4.072  0.2490  0.2512  0.1687
 2575TIP3    H131920  -1.723   0.638   4.054 -0.6865  1.7660 -0.6503
 2575TIP3    H231921  -1.863   0.619   3.999 -2.0917  2.3224  2.5233
 2576TIP3   OH231922  -1.642   3.375   5.311  0.2458  0.0914  0.4854
 2576TIP3    H131923  -1.566   3.418   5.274 -0.4179  0.7630 -0.1414
 2576TIP3    H231924  -1.683   3.441   5.367 -1.2620  0.6146 -1.1540
 2577TIP3   OH231925   2.378  -1.368   5.236  0.2759  0.5407 -0.3258
 2577TIP3    H131926   2.412  -1.453   5.209 -0.3973  0.4512 -0.9185
 2577TIP3    H231927   2.298  -1.357   5.184  0.2943  1.4756 -0.1636
 2578TIP3   OH231928  -1.253  -0.916   3.054  0.0719  0.4866 -0.3246
 2578TIP3    H131929  -1.336  -0.953   3.025 -0.6523  1.4762  0.4177
 2578TIP3    H231930  -1.202  -0.992   3.083 -0.3590 -0.1828 -1.2533
 2579TIP3   OH231931   3.301  -1.949   3.982  0.4347 -0.0471 -0.4247
 2579TIP3    H131932   3.326  -1.931   3.891  0.3717  0.9589 -0.2475
 2579TIP3    H231933   3.213  -1.986   3.975  0.3329  0.2510 -0.7574
 2580TIP3   OH231934   0.317   3.329   3.802  0.9193 -0.6426  0.5422
 2580TIP3    H131935   0.246   3.358   3.745 -0.1292  0.5547  2.3562
 2580TIP3    H231936   0.397   3.347   3.753  0.0480 -0.4079 -0.8450
 2581TIP3   OH231937   1.485   2.392   3.292 -0.0137 -0.3374 -0.1351
 2581TIP3    H131938   1.504   2.344   3.211 -1.5835  0.6397 -1.1393
 2581TIP3    H231939   1.414   2.343   3.333  1.0962 -1.1001  0.9463
 2582TIP3   OH231940   1.860   2.508   2.873  0.4311  0.0546  0.2285
 2582TIP3    H131941   1.838   2.552   2.791  2.2186  0.3995 -0.1158
 2582TIP3    H231942   1.789   2.530   2.933 -0.3234  0.7409 -0.8870
 2583TIP3   OH231943   2.424   0.328   2.146 -0.3898  0.1008 -0.1376
 2583TIP3    H131944   2.482   0.385   2.097 -0.3974  1.3946  1.2874
 2583TIP3    H231945   2.336   0.348   2.113 -0.3909  0.9349  0.3456
 2584TIP3   OH231946   2.648   3.066   2.913 -0.1489 -0.2430  0.5759
 2584TIP3    H131947   2.585   3.125   2.870 -0.4613  0.0400  1.3980
 2584TIP3    H231948   2.608   2.980   2.905  0.4257 -0.3945 -0.8463
 2585TIP3   OH231949   1.132   0.044   2.488  0.5011 -0.3507 -0.1796
 2585TIP3    H131950   1.112  -0.045   2.516  0.2101 -0.5491 -0.9892
 2585TIP3    H231951   1.059   0.096   2.521  1.3105 -0.1851  1.4015
 2586TIP3   OH231952   0.119   1.874   3.127 -0.2631 -0.3122  0.3351
 2586TIP3    H131953   0.178   1.826   3.185 -0.1164 -1.5716 -0.7995
 2586TIP3    H231954   0.061   1.922   3.186  1.0612 -0.0611  1.4900
 2587TIP3   OH231955  -1.283  -1.514   3.934 -0.0852 -0.4853  0.0935
 2587TIP3    H131956  -1.374  -1.484   3.940 -0.8493 -2.3022 -1.2929
 2587TIP3    H231957  -1.241  -1.452   3.875 -1.0019 -0.7409 -0.8665
 2588TIP3   OH231958  -1.335   2.484   4.530 -0.5153  0.4059 -0.0784
 2588TIP3    H131959  -1.288   2.419   4.582  1.8582  1.9242 -0.1622
 2588TIP3    H231960  -1.364   2.437   4.452  2.3248 -0.3234 -0.7907
 2589TIP3   OH231961  -0.939   0.167   5.218 -0.1080  0.2107 -0.5706
 2589TIP3    H131962  -0.965   0.077   5.234  0.7172 -0.0265 -0.5389
 2589TIP3    H231963  -0.932   0.173   5.123 -0.3313  0.2926 -0.5826
 2590TIP3   OH231964   2.716   0.823   5.228  0.4185  0.1404  0.1602
 2590TIP3    H131965   2.741   0.910   5.257  1.3949 -0.2610  0.5817
 2590TIP3    H231966   2.788   0.766   5.257 -0.1083 -0.7743 -0.2600
 2591TIP3   OH231967  -2.627   2.145   2.372 -0.5284  0.1065  0.0296
 2591TIP3    H131968  -2.645   2.119   2.281  0.5791  1.4868 -0.6247
 2591TIP3    H231969  -2.703   2.197   2.398 -0.7451 -0.0981 -0.1917
 2592TIP3   OH231970   2.250  -3.304   3.729 -0.6135  0.6141  0.2129
 2592TIP3    H131971   2.246  -3.395   3.700  0.6782  0.3370  0.8578
 2592TIP3    H231972   2.262  -3.308   3.823 -0.8702  1.4653  0.2961
 2593TIP3   OH231973   0.362   0.095   3.321  1.0704  0.3425 -0.0321
 2593TIP3    H131974   0.429   0.145   3.275  1.6214  1.4033  1.7964
 2593TIP3    H231975   0.409   0.020   3.357  0.3622 -1.2624 -2.2752
 2594TIP3   OH231976   2.951   2.948   5.025 -0.1848 -0.0537 -0.3651
 2594TIP3    H131977   2.923   3.025   4.976  0.3575 -0.1312 -0.8047
 2594TIP3    H231978   2.892   2.878   4.996 -0.4539  0.1111 -0.2207
 2595TIP3   OH231979  -0.356  -3.046   4.305 -0.1461 -0.5298 -0.5686
 2595TIP3    H131980  -0.307  -2.980   4.354 -0.8999  0.0862 -0.6269
 2595TIP3    H231981  -0.289  -3.099   4.262  0.4759  0.0028 -0.2683
 2596TIP3   OH231982  -3.196   0.338   4.144 -0.0665 -0.0836 -0.3697
 2596TIP3    H131983  -3.220   0.328   4.236 -1.0754  1.4303 -0.4410
 2596TIP3    H231984  -3.193   0.432   4.130 -0.6096 -0.2934 -2.0645
 2597TIP3   OH231985  -3.133  -1.702   2.755  0.0109  0.4367  0.4819
 2597TIP3    H131986  -3.149  -1.626   2.810 -1.9518 -0.1982  0.8541
 2597TIP3    H231987  -3.200  -1.765   2.780 -0.5106 -0.1589 -2.1398
 2598TIP3   OH231988  -0.813   1.522   4.897  0.2511 -0.2394  0.4286
 2598TIP3    H131989  -0.902   1.556   4.891  0.8340  1.3657  0.4230
 2598TIP3    H231990  -0.761   1.581   4.842  0.8040 -3.1799 -2.4964
 2599TIP3   OH231991   1.996  -1.976   3.435  0.1852 -0.1234  0.3948
 2599TIP3    H131992   1.975  -1.958   3.526 -2.4239  0.1646 -0.1719
 2599TIP3    H231993   1.995  -1.890   3.392 -0.7648 -0.4411 -0.2584
 2600TIP3   OH231994  -2.427   0.323   5.722  0.1362 -0.2552  0.4745
 2600TIP3    H131995  -2.442   0.410   5.760 -1.0239 -0.8720  1.4869
 2600TIP3    H231996  -2.350   0.290   5.768  1.2699  0.6514 -0.7040
 2601TIP3   OH231997  -1.928  -0.919   4.571 -0.4191  0.0453 -0.2179
 2601TIP3    H131998  -1.923  -1.007   4.534 -1.6773  0.0212 -0.3771
 2601TIP3    H231999  -1.895  -0.862   4.501 -2.2277 -0.0572 -1.1977
 2602TIP3   OH232000  -2.968   1.010   5.774 -0.3483 -0.6350 -0.1564
 2602TIP3    H132001  -2.890   1.047   5.734  0.5635 -1.1767  1.0573
 2602TIP3    H232002  -3.000   1.078   5.833 -1.3925 -0.0361 -1.3628
 2603TIP3   OH232003   0.950   1.507   3.425  0.3770  0.0746  0.1038
 2603TIP3    H132004   0.957   1.593   3.465 -1.1391 -0.5359  1.8348
 2603TIP3    H232005   0.950   1.446   3.499 -2.4766 -1.1285 -0.7485
 2604TIP3   OH232006  -2.238  -0.276   4.072 -0.1105  0.1246 -0.4889
 2604TIP3    H132007  -2.181  -0.323   4.132  0.0825  0.4753 -0.3964
 2604TIP3    H232008  -2.230  -0.184   4.098 -0.1456  0.2594 -0.9486
 2605TIP3   OH232009  -1.884  -1.308   3.666  0.0143  0.2832  0.2963
 2605TIP3    H132010  -1.833  -1.292   3.587 -0.4305  1.0106  0.1342
 2605TIP3    H232011  -1.865  -1.232   3.722  1.7067 -1.0841  1.6607
 2606TIP3   OH232012   2.985  -3.089   2.736 -0.3140  0.0056 -0.4883
 2606TIP3    H132013   3.029  -3.163   2.693 -1.0882 -0.8324  0.1200
 2606TIP3    H232014   2.984  -3.113   2.829 -0.6541  0.7491 -0.2945
 2607TIP3   OH232015   3.361  -0.826   2.831  0.0936  0.3439  0.5227
 2607TIP3    H132016   3.445  -0.820   2.877  0.4108  0.3309 -0.0524
 2607TIP3    H232017   3.384  -0.849   2.741 -0.3977  2.2759 -0.1365
 2608TIP3   OH232018   3.150   2.874   4.184 -0.1052  0.4136 -0.3266
 2608TIP3    H132019   3.228   2.919   4.218 -0.6012  1.8357 -0.9890
 2608TIP3    H232020   3.184   2.816   4.116  0.4602  0.4591 -0.0875
 2609TIP3   OH232021  -2.146  -1.587   4.194  0.2140  0.4269  0.3204
 2609TIP3    H132022  -2.126  -1.654   4.259  1.1752 -0.0006 -0.3940
 2609TIP3    H232023  -2.141  -1.633   4.110 -2.0891  0.6948 -0.0436
 2610TIP3   OH232024   2.886  -2.553   5.652 -0.5176 -0.4300  0.8737
 2610TIP3    H132025   2.897  -2.553   5.557 -0.3564 -0.3839  0.8919
 2610TIP3    H232026   2.808  -2.501   5.668 -0.3503 -0.1484  0.7883
 2611TIP3   OH232027  -1.954   3.049   5.364  0.3907 -0.1945  0.0076
 2611TIP3    H132028  -1.906   3.123   5.400  1.3532 -0.1278 -1.3736
 2611TIP3    H232029  -1.984   3.001   5.442 -0.5218  1.7667  0.9384
 2612TIP3   OH232030  -0.408  -0.874   4.812  0.0676  0.1977  0.2327
 2612TIP3    H132031  -0.334  -0.928   4.839 -0.4646  0.2895  1.9666
 2612TIP3    H232032  -0.380  -0.835   4.729  2.7917  1.7761  1.7293
 2613TIP3   OH232033  -0.779  -3.184   3.489 -0.2508  0.3338  0.3085
 2613TIP3    H132034  -0.844  -3.255   3.492 -0.2403  0.1373 -2.0871
 2613TIP3    H232035  -0.695  -3.228   3.492 -0.2309  0.4208  1.1037
 2614TIP3   OH232036   2.469  -0.794   4.397  0.1609 -0.2850 -0.1339
 2614TIP3    H132037   2.393  -0.766   4.447  0.3574  0.4124 -0.2222
 2614TIP3    H232038   2.438  -0.803   4.307 -0.1455 -1.3561  0.0575
 2615TIP3   OH232039  -1.087  -2.013   3.466  0.4599 -0.2944  0.3826
 2615TIP3    H132040  -1.051  -1.933   3.428 -1.4971  0.3945 -0.0975
 2615TIP3    H232041  -1.131  -1.984   3.546 -1.1721 -0.6960 -0.3374
 2616TIP3   OH232042  -2.790  -1.085   5.617 -0.2738  0.5163 -0.3576
 2616TIP3    H132043  -2.871  -1.121   5.654 -0.2449 -1.7944 -2.2806
 2616TIP3    H232044  -2.724  -1.151   5.638  0.3166  0.5915 -1.8811
 2617TIP3   OH232045   1.223   1.634   5.120  0.2973 -0.1431 -0.5567
 2617TIP3    H132046   1.283   1.630   5.194 -0.8669  1.7984  0.5551
 2617TIP3    H232047   1.275   1.670   5.048  1.3616 -1.8073 -0.6760
 2618TIP3   OH232048  -1.000  -2.880   3.689 -0.1128 -0.0918  0.5959
 2618TIP3    H132049  -1.033  -2.790   3.679  0.0477 -0.1350 -0.5558
 2618TIP3    H232050  -1.071  -2.935   3.657  0.1213 -0.3197  0.4608
 2619TIP3   OH232051   0.932  -3.200   3.718  0.2568 -0.1916  0.4569
 2619TIP3    H132052   1.018  -3.170   3.687  0.6659 -0.9556  0.8031
 2619TIP3    H232053   0.870  -3.138   3.681  0.8215 -0.4576 -1.0167
 2620TIP3   OH232054   3.310  -3.034   4.055 -0.3827 -0.3716 -0.7738
 2620TIP3    H132055   3.315  -3.127   4.030  0.7613 -0.4413 -0.3417
 2620TIP3    H232056   3.321  -2.987   3.973  2.7863 -0.6058 -0.5806
 2621TIP3   OH232057   0.472   1.405   3.879  0.1101 -0.0015  0.3266
 2621TIP3    H132058   0.456   1.473   3.945  0.2265  1.0358 -0.6734
 2621TIP3    H232059   0.416   1.431   3.806  2.1995  0.6094 -1.1401
 2622TIP3   OH232060   2.314   1.007   3.866 -0.2590 -0.4187  0.0694
 2622TIP3    H132061   2.261   1.087   3.861  1.8793  1.1980  1.4727
 2622TIP3    H232062   2.366   1.008   3.786 -0.9326 -0.9784 -0.3885
 2623TIP3   OH232063   3.049  -0.455   2.327  0.1500 -0.5156 -0.2790
 2623TIP3    H132064   3.017  -0.396   2.258 -0.4234  0.4574  0.7786
 2623TIP3    H232065   2.976  -0.514   2.344 -0.1855  0.0793  0.3816
 2624TIP3   OH232066  -1.694  -1.754   4.843 -0.3558  0.7898  0.3417
 2624TIP3    H132067  -1.660  -1.667   4.819 -1.6503  0.8798 -1.3360
 2624TIP3    H232068  -1.697  -1.802   4.761  0.3033 -0.8681  1.2524
 2625TIP3   OH232069   2.766  -0.353   3.474  0.3011  0.1027 -0.1993
 2625TIP3    H132070   2.810  -0.381   3.554  2.3071 -1.1116 -1.6394
 2625TIP3    H232071   2.763  -0.258   3.481  2.6288  0.2098  0.3094
 2626TIP3   OH232072  -0.044  -2.596   4.098  0.0988 -0.7381  0.2125
 2626TIP3    H132073  -0.126  -2.622   4.058  0.2962 -1.3024  0.1684
 2626TIP3    H232074  -0.056  -2.503   4.119 -0.8773 -1.0231  1.0134
 2627TIP3   OH232075  -3.036   2.684   2.560  0.3695  0.3700 -0.1503
 2627TIP3    H132076  -2.989   2.731   2.491  0.8246 -1.2946 -1.0255
 2627TIP3    H232077  -2.980   2.609   2.581  0.3456  0.9254  2.2117
 2628TIP3   OH232078   2.133   1.947   2.986 -0.0091 -0.3737 -0.3404
 2628TIP3    H132079   2.184   1.964   3.065 -0.1897  0.2602 -0.3540
 2628TIP3    H232080   2.124   2.033   2.944 -1.3664 -0.4083 -0.1719
 2629TIP3   OH232081   2.273  -2.323   3.398 -0.3985  0.1994 -0.0410
 2629TIP3    H132082   2.241  -2.273   3.322  1.5224  1.4323 -0.0981
 2629TIP3    H232083   2.209  -2.304   3.467 -0.0525  2.3462 -0.2237
 2630TIP3   OH232084   2.243  -2.756   3.951 -0.5474 -0.1377  0.0219
 2630TIP3    H132085   2.286  -2.834   3.987 -0.3132 -0.3316 -0.6664
 2630TIP3    H232086   2.305  -2.723   3.885 -0.6096  0.6751  0.3582
 2631TIP3   OH232087   0.189  -0.329   4.200  0.4881 -0.5688 -0.0552
 2631TIP3    H132088   0.127  -0.401   4.216  0.2544 -0.3444  0.0635
 2631TIP3    H232089   0.214  -0.339   4.108 -0.2815 -0.2374 -0.3087
 2632TIP3   OH232090  -1.396   1.031   4.390 -0.3088 -0.0166  0.5460
 2632TIP3    H132091  -1.379   0.980   4.311 -0.2839  0.5554  0.1784
 2632TIP3    H232092  -1.371   1.120   4.367  0.3888  0.0258  1.4385
 2633TIP3   OH232093  -2.552   2.053   4.694  0.3782 -0.2998  0.1995
 2633TIP3    H132094  -2.581   2.143   4.683 -0.5816 -0.7228 -0.8356
 2633TIP3    H232095  -2.461   2.061   4.724  0.0892  1.0059  0.7967
 2634TIP3   OH232096   3.050  -1.330   4.947  1.0401  0.0282 -0.2830
 2634TIP3    H132097   2.978  -1.393   4.935  0.6644  0.4643 -0.3257
 2634TIP3    H232098   3.129  -1.384   4.945  0.7262 -0.4337 -0.4336
 2635TIP3   OH232099  -0.544   1.254   2.742 -0.0993 -0.4823  0.3124
 2635TIP3    H132100  -0.579   1.212   2.663  1.2758 -0.3740 -0.3851
 2635TIP3    H232101  -0.454   1.221   2.749  0.1471  0.3340  1.2347
 2636TIP3   OH232102   1.782  -0.386   4.693  0.2304  0.4511  0.4260
 2636TIP3    H132103   1.717  -0.406   4.760 -1.1374  0.8600 -0.7205
 2636TIP3    H232104   1.821  -0.471   4.672  0.5512  0.2949  1.5791
 2637TIP3   OH232105  -3.175   2.802   3.926 -0.1332  0.6871  0.2034
 2637TIP3    H132106  -3.158   2.887   3.886  0.9504 -0.6135 -2.3143
 2637TIP3    H232107  -3.250   2.768   3.879  0.7401 -0.6084 -0.3058
 2638TIP3   OH232108  -1.888   1.447   3.663 -0.2857  0.8139 -0.0107
 2638TIP3    H132109  -1.903   1.371   3.719 -2.9497  0.1559 -1.4347
 2638TIP3    H232110  -1.939   1.517   3.704  1.3049  1.5742  0.7193
 2639TIP3   OH232111  -0.019   0.723   3.950  0.6502 -0.0200 -0.0303
 2639TIP3    H132112   0.072   0.750   3.962  0.5021  1.0253 -1.1122
 2639TIP3    H232113  -0.026   0.701   3.857 -0.2136 -0.0361  0.0280
 2640TIP3   OH232114  -1.038   2.780   3.221 -0.2150 -0.4118 -0.6309
 2640TIP3    H132115  -1.113   2.721   3.235 -0.7862  0.0975 -1.4626
 2640TIP3    H232116  -1.066   2.863   3.261  0.3875 -0.5528  0.0968
 2641TIP3   OH232117   0.763  -3.128   5.210 -0.1896  0.4399 -0.2980
 2641TIP3    H132118   0.762  -3.130   5.306 -0.3220  0.3695 -0.3009
 2641TIP3    H232119   0.847  -3.087   5.188 -1.1080  2.5453 -0.1124
 2642TIP3   OH232120  -1.462  -1.504   2.974 -0.1868  0.2331 -0.0263
 2642TIP3    H132121  -1.425  -1.517   2.887  0.9262  1.3998  0.2371
 2642TIP3    H232122  -1.553  -1.479   2.958  0.2659  1.3942 -0.9240
 2643TIP3   OH232123   3.095  -2.048   5.247  0.0776 -0.4455  0.1828
 2643TIP3    H132124   3.066  -1.970   5.199 -0.6055 -0.7369  0.1072
 2643TIP3    H232125   3.176  -2.021   5.289  0.5479 -0.0891 -0.9060
 2644TIP3   OH232126  -1.397   0.758   3.829 -0.0898 -0.0118 -0.3018
 2644TIP3    H132127  -1.466   0.816   3.795 -1.7139 -0.1979  2.3978
 2644TIP3    H232128  -1.411   0.676   3.782 -2.7151 -0.4897  1.1215
 2645TIP3   OH232129   0.886   3.100   3.403 -0.0918  0.3984  0.2494
 2645TIP3    H132130   0.869   3.184   3.445 -1.7678 -0.7842  2.1035
 2645TIP3    H232131   0.919   3.044   3.473 -2.9755 -1.6496  0.1526
 2646TIP3   OH232132   1.449  -3.055   2.968  0.4942  0.4572 -0.3228
 2646TIP3    H132133   1.395  -2.982   2.998 -1.6167 -1.5459  1.0737
 2646TIP3    H232134   1.434  -3.058   2.873  0.2455  1.5257 -0.3305
 2647TIP3   OH232135   1.877   3.018   5.141 -0.6584  1.2461 -0.7955
 2647TIP3    H132136   1.866   3.028   5.047 -1.7925  0.1806 -0.8046
 2647TIP3    H232137   1.788   3.013   5.175 -0.2813 -0.8144  0.0264
 2648TIP3   OH232138  -2.360  -0.850   4.836 -0.3280 -0.6542  0.3042
 2648TIP3    H132139  -2.374  -0.897   4.918  0.9526 -1.0689  0.3095
 2648TIP3    H232140  -2.272  -0.875   4.809  0.1531  1.2656 -0.0243
 2649TIP3   OH232141   0.526  -2.407   4.568  0.3112  0.0317  0.1225
 2649TIP3    H132142   0.512  -2.496   4.600 -1.3386  0.4923  0.7577
 2649TIP3    H232143   0.452  -2.357   4.601  0.0132  1.1726 -2.0637
 2650TIP3   OH232144   0.250   0.717   3.011  0.9688  0.3086  0.0061
 2650TIP3    H132145   0.242   0.654   2.940  1.4905 -2.7447  2.4121
 2650TIP3    H232146   0.162   0.756   3.019 -0.1563 -2.0540 -0.0016
 2651TIP3   OH232147   0.943   2.431   3.598  0.4757  0.1391 -0.1280
 2651TIP3    H132148   1.026   2.469   3.625  0.7735  0.2328 -1.1390
 2651TIP3    H232149   0.903   2.401   3.679  1.0969  0.8857  0.4684
 2652TIP3   OH232150   0.274  -0.555   2.856  0.0163 -0.2921 -0.6387
 2652TIP3    H132151   0.288  -0.537   2.763  1.8055 -0.2552 -0.4037
 2652TIP3    H232152   0.304  -0.645   2.867 -0.5546 -0.4263 -0.1670
 2653TIP3   OH232153  -0.886   2.756   1.836 -0.6732  0.0683  0.0491
 2653TIP3    H132154  -0.979   2.771   1.851 -0.7995  0.1121 -0.7736
 2653TIP3    H232155  -0.856   2.714   1.917 -1.5668 -0.6565  0.0277
 2654TIP3   OH232156   1.108  -2.896   3.837 -0.8375  0.0554  0.2486
 2654TIP3    H132157   1.161  -2.951   3.779 -2.3351 -1.1625 -0.0339
 2654TIP3    H232158   1.025  -2.886   3.791 -0.8666  1.9601  0.6638
 2655TIP3   OH232159   2.698   1.471   4.094  0.0303  0.2476  0.4775
 2655TIP3    H132160   2.787   1.506   4.081  0.2758 -0.6236 -0.2815
 2655TIP3    H232161   2.693   1.396   4.035 -0.8917 -0.2874  1.2092
 2656TIP3   OH232162  -0.389  -0.568   5.094  0.4034 -0.3723 -0.2908
 2656TIP3    H132163  -0.302  -0.609   5.092 -0.0936 -1.4735 -0.0901
 2656TIP3    H232164  -0.438  -0.619   5.159 -0.9099 -0.8846 -1.6123
 2657TIP3   OH232165   1.460  -2.924   3.780  0.2239  0.0487  0.0399
 2657TIP3    H132166   1.417  -2.993   3.830  0.7887 -0.3289  0.0157
 2657TIP3    H232167   1.490  -2.862   3.847 -1.2019  0.8183 -0.0071
 2658TIP3   OH232168  -2.485   1.467   4.127  0.0256  0.0692  0.2701
 2658TIP3    H132169  -2.545   1.522   4.177 -0.4032 -2.1757  2.4164
 2658TIP3    H232170  -2.537   1.391   4.102  1.6311 -1.4119  1.2181
 2659TIP3   OH232171  -3.116  -0.114   4.816  0.1757 -0.4615  0.3202
 2659TIP3    H132172  -3.119  -0.072   4.902  0.5389  3.0048 -1.1750
 2659TIP3    H232173  -3.026  -0.100   4.786 -0.2873 -0.3949 -1.1405
 2660TIP3   OH232174  -0.778  -2.432   2.615  0.4275  0.2174  0.5262
 2660TIP3    H132175  -0.729  -2.374   2.557 -0.3367 -0.1763 -0.5691
 2660TIP3    H232176  -0.753  -2.406   2.703 -0.1895  2.4959  0.0945
 2661TIP3   OH232177   2.136   1.335   2.771  0.3156  0.0879 -0.6241
 2661TIP3    H132178   2.204   1.321   2.706  0.3682  2.5258 -1.2211
 2661TIP3    H232179   2.144   1.261   2.831  2.7767 -0.2711 -1.2764
 2662TIP3   OH232180  -0.330   1.989   2.554 -0.0884 -0.9761 -0.6654
 2662TIP3    H132181  -0.258   2.000   2.491 -0.9273 -1.3374 -1.7212
 2662TIP3    H232182  -0.328   2.068   2.607  0.1974 -0.3187 -1.6341
 2663TIP3   OH232183  -3.059   2.600   5.834  0.0614 -0.1016  0.4152
 2663TIP3    H132184  -3.131   2.658   5.811 -0.3121 -0.6045  0.3036
 2663TIP3    H232185  -2.981   2.645   5.802 -0.4775 -1.3174 -3.1313
 2664TIP3   OH232186   3.245   0.541   2.739 -0.2983 -0.0611  0.1536
 2664TIP3    H132187   3.319   0.575   2.688 -0.3670 -0.9179 -0.5275
 2664TIP3    H232188   3.171   0.545   2.680 -0.3383 -1.2551  0.0960
 2665TIP3   OH232189   0.293   0.167   2.693  0.2915 -0.1661 -0.0098
 2665TIP3    H132190   0.250   0.123   2.619 -1.3535  0.5048  0.4856
 2665TIP3    H232191   0.318   0.252   2.658  0.8348 -0.3927 -0.1792
 2666TIP3   OH232192   0.461  -0.887   2.789  0.2289 -0.4115 -0.0335
 2666TIP3    H132193   0.506  -0.970   2.807  2.2731  0.4822 -0.6796
 2666TIP3    H232194   0.477  -0.835   2.868 -1.7056 -0.8355  0.6960
 2667TIP3   OH232195  -2.679   0.032   2.580 -0.1915  0.1037 -0.3261
 2667TIP3    H132196  -2.673   0.074   2.494 -2.7337  3.1667  0.7818
 2667TIP3    H232197  -2.696   0.104   2.641 -1.7274 -2.2522  2.2712
 2668TIP3   OH232198   2.782  -0.422   5.511 -0.1081  0.0289  0.0479
 2668TIP3    H132199   2.794  -0.342   5.459  0.3421 -0.6551 -0.9297
 2668TIP3    H232200   2.696  -0.411   5.552 -0.5819  0.5017 -1.0342
 2669TIP3   OH232201   2.585  -3.121   4.100  0.1713  0.8286  0.5301
 2669TIP3    H132202   2.620  -3.204   4.132 -0.4847  0.4449  0.2756
 2669TIP3    H232203   2.599  -3.059   4.172  0.0344  0.3312  0.9869
 2670TIP3   OH232204   2.375  -1.766   5.593 -0.1559 -0.2717 -0.6757
 2670TIP3    H132205   2.404  -1.738   5.680  0.9588 -0.2660 -1.0327
 2670TIP3    H232206   2.397  -1.692   5.536 -0.2122 -0.5732 -1.0902
 2671TIP3   OH232207  -2.037  -2.552   4.329  0.6097  0.0321  0.5823
 2671TIP3    H132208  -2.120  -2.598   4.338  0.7182 -0.5051 -0.8009
 2671TIP3    H232209  -2.018  -2.556   4.235  4.2433 -3.5631  1.1684
 2672TIP3   OH232210  -0.793   0.825   3.296  0.4066  0.0491  0.0166
 2672TIP3    H132211  -0.741   0.902   3.272  1.3009  0.2077  2.2417
 2672TIP3    H232212  -0.734   0.751   3.281  0.1269 -0.0736 -0.5153
 2673TIP3   OH232213  -1.264  -3.252   4.886  0.1377  0.2212  0.0406
 2673TIP3    H132214  -1.183  -3.246   4.835  0.2498  2.0330  0.3467
 2673TIP3    H232215  -1.241  -3.304   4.962  0.7364 -0.1452 -0.3804
 2674TIP3   OH232216   0.718   2.552   2.277 -0.2461 -0.1988 -0.1394
 2674TIP3    H132217   0.794   2.593   2.318  0.4891 -0.9970 -0.6448
 2674TIP3    H232218   0.711   2.594   2.191  0.3331 -0.8878 -0.5427
 2675TIP3   OH232219   2.089  -0.976   5.604  0.1404  0.3282 -0.2314
 2675TIP3    H132220   2.044  -0.891   5.600 -0.2214  0.0969 -1.2207
 2675TIP3    H232221   2.178  -0.957   5.576 -0.0184  0.3356 -0.7423
 2676TIP3   OH232222   2.396   3.158   5.464 -0.4689 -0.3313 -0.0229
 2676TIP3    H132223   2.472   3.103   5.482 -1.4448 -1.6977  0.0893
 2676TIP3    H232224   2.354   3.118   5.388  0.2640  1.8785 -1.7077
 2677TIP3   OH232225   0.369   2.537   5.485 -0.1584 -0.8836 -0.0749
 2677TIP3    H132226   0.357   2.588   5.565 -0.3368 -1.4501  0.2646
 2677TIP3    H232227   0.417   2.595   5.426  0.4828 -0.6737  0.6501
 2678TIP3   OH232228   0.230  -1.730   3.993  0.2026  0.2758 -0.7805
 2678TIP3    H132229   0.313  -1.773   3.975  0.6999  0.7361  0.3105
 2678TIP3    H232230   0.251  -1.661   4.056 -0.6352  1.8799 -2.1672
 2679TIP3   OH232231  -2.951   2.281   5.337  0.5668  0.2678 -0.6618
 2679TIP3    H132232  -2.963   2.368   5.299  0.2962  0.1495 -0.8496
 2679TIP3    H232233  -2.913   2.297   5.423  2.3910  0.4957 -1.4679
 2680TIP3   OH232234   3.347  -0.632   5.075  0.1751  0.6232 -0.3752
 2680TIP3    H132235   3.408  -0.695   5.037 -1.0449 -0.9810  0.2059
 2680TIP3    H232236   3.400  -0.554   5.090  1.8623 -0.3957 -0.6832
 2681TIP3   OH232237  -0.395   1.893   3.747 -0.0714 -0.3420  0.2460
 2681TIP3    H132238  -0.352   1.855   3.824  1.1838  1.4669  0.5084
 2681TIP3    H232239  -0.338   1.869   3.674 -1.2063 -1.9671 -0.1520
 2682TIP3   OH232240  -3.315   1.978   3.997 -0.3735 -0.3601 -0.1608
 2682TIP3    H132241  -3.348   1.954   3.910 -1.0088 -0.4904  0.1078
 2682TIP3    H232242  -3.336   2.071   4.005  1.1841  0.0650 -0.7999
 2683TIP3   OH232243   0.947  -2.622   4.068  0.5741  0.3902 -0.1229
 2683TIP3    H132244   0.855  -2.616   4.042 -0.0220 -2.5690  0.9697
 2683TIP3    H232245   0.964  -2.538   4.112 -1.7381  0.8317  0.0762
 2684TIP3   OH232246  -0.824  -0.949   5.139  0.0697  0.3929  0.6043
 2684TIP3    H132247  -0.750  -0.925   5.083 -1.1872  0.4913 -1.1315
 2684TIP3    H232248  -0.807  -0.905   5.222  2.1958 -0.0260  0.4589
 2685TIP3   OH232249  -0.787  -2.451   5.050  0.1831  0.0037  0.0949
 2685TIP3    H132250  -0.709  -2.491   5.013  1.0314  1.0353  0.7304
 2685TIP3    H232251  -0.803  -2.373   4.997 -0.3311 -0.1202  0.0571
 2686TIP3   OH232252   0.513  -0.704   5.531  0.2331  0.3553 -0.1627
 2686TIP3    H132253   0.570  -0.637   5.570  1.5040 -0.8872  0.1798
 2686TIP3    H232254   0.435  -0.705   5.587  0.6437  0.8216  0.4306
 2687TIP3   OH232255  -1.297   2.124   4.292 -0.1632 -0.0666 -0.0590
 2687TIP3    H132256  -1.291   2.170   4.376 -0.8266 -1.1820  0.6119
 2687TIP3    H232257  -1.234   2.052   4.300 -0.8015 -0.6477 -0.2044
 2688TIP3   OH232258   3.082  -1.723   3.311  0.3032  0.2286  0.7681
 2688TIP3    H132259   3.169  -1.744   3.345  0.6006  0.2570  0.0445
 2688TIP3    H232260   3.025  -1.721   3.388  0.0846 -3.8186  0.9216
 2689TIP3   OH232261   3.111  -2.717   2.997  0.0658  0.3263  0.0463
 2689TIP3    H132262   3.039  -2.677   2.949 -1.0764  1.7338  2.7127
 2689TIP3    H232263   3.076  -2.801   3.027  0.1279  0.2774 -0.0171
 2690TIP3   OH232264   2.398   1.558   5.023 -0.1137 -0.1160  0.3670
 2690TIP3    H132265   2.448   1.544   4.943  0.9536  1.6607  0.6768
 2690TIP3    H232266   2.308   1.568   4.994 -0.2197 -2.3242 -0.2980
 2691TIP3   OH232267  -1.278  -3.069   3.141 -0.3220  0.0775 -0.0798
 2691TIP3    H132268  -1.348  -3.134   3.131 -0.1067 -0.0248 -1.0635
 2691TIP3    H232269  -1.307  -2.994   3.089  0.9168 -0.5042 -1.6929
 2692TIP3   OH232270   1.935   1.731   4.630  0.0906  0.4769 -0.0147
 2692TIP3    H132271   2.025   1.757   4.612  1.2299 -0.9242  3.0343
 2692TIP3    H232272   1.938   1.637   4.644 -2.0237  0.2629 -0.5761
 2693TIP3   OH232273  -2.184  -1.241   4.572  0.3001 -0.3141 -0.7601
 2693TIP3    H132274  -2.127  -1.282   4.637 -0.3739  1.9833  1.4529
 2693TIP3    H232275  -2.257  -1.302   4.561  0.0940 -0.4726  1.2055
 2694TIP3   OH232276   3.057   1.989   1.804 -0.0553  0.3576 -0.0190
 2694TIP3    H132277   3.074   2.066   1.750  0.9682  0.5268  0.5241
 2694TIP3    H232278   3.037   2.025   1.891  0.1891  0.0203  0.1768
 2695TIP3   OH232279   3.216  -1.592   3.092 -0.5121 -0.1018 -0.0149
 2695TIP3    H132280   3.154  -1.523   3.071 -0.9787 -0.6886 -0.6217
 2695TIP3    H232281   3.163  -1.659   3.137  0.0497  0.1872  1.1141
 2696TIP3   OH232282   2.161   0.898   3.120 -0.1104 -0.3477 -0.0273
 2696TIP3    H132283   2.202   0.880   3.035 -0.0813  1.6333 -0.4842
 2696TIP3    H232284   2.083   0.843   3.121 -0.1911 -0.2901 -1.3943
 2697TIP3   OH232285   2.744  -0.706   5.478 -0.0589 -0.5036  0.2562
 2697TIP3    H132286   2.758  -0.618   5.514  0.0417 -0.4853  0.1720
 2697TIP3    H232287   2.800  -0.763   5.532  2.2063 -0.1259 -1.5380
 2698TIP3   OH232288  -2.882  -0.575   5.627  0.8164  0.0833  0.9005
 2698TIP3    H132289  -2.947  -0.618   5.571  1.4141  0.5018 -0.1348
 2698TIP3    H232290  -2.841  -0.509   5.571  1.1504  0.8011  1.9524
 2699TIP3   OH232291  -0.739  -1.753   3.865 -0.3003 -0.5729  1.0136
 2699TIP3    H132292  -0.726  -1.806   3.786 -0.3526 -1.0349  1.3112
 2699TIP3    H232293  -0.818  -1.703   3.847  0.0740 -0.1600  0.4955
 2700TIP3   OH232294   2.472  -1.194   5.445 -0.3232 -0.0077  0.1867
 2700TIP3    H132295   2.389  -1.181   5.490 -0.7733  3.1350 -1.3028
 2700TIP3    H232296   2.448  -1.227   5.359  0.2624 -2.1246  0.7831
 2701TIP3   OH232297  -0.004   0.345   2.964  0.0951  0.6635  0.3773
 2701TIP3    H132298   0.059   0.275   2.983 -0.0638  0.2372 -0.6294
 2701TIP3    H232299   0.048   0.425   2.961  0.4533  0.4299  0.3808
 2702TIP3   OH232300  -2.049   2.837   3.431 -0.8547 -0.5518  0.0358
 2702TIP3    H132301  -2.097   2.823   3.350 -1.3456 -0.3545  0.2873
 2702TIP3    H232302  -2.116   2.837   3.499 -1.0768  3.3892  0.0765
 2703TIP3   OH232303   2.173  -0.149   4.806 -0.0451  0.1131  0.0829
 2703TIP3    H132304   2.253  -0.191   4.775 -0.3513 -0.7284  0.3944
 2703TIP3    H232305   2.182  -0.057   4.781  1.1184  0.0772  0.3350
 2704TIP3   OH232306  -2.550  -0.240   2.114  0.9590 -0.0256  0.5479
 2704TIP3    H132307  -2.493  -0.285   2.177  1.1043  1.6330  1.6430
 2704TIP3    H232308  -2.629  -0.295   2.110  0.7471  0.0746  2.5509
 2705TIP3   OH232309   1.158   2.872   1.969 -0.5022  0.6042 -0.0619
 2705TIP3    H132310   1.127   2.785   1.993  1.9357 -1.0477 -2.4275
 2705TIP3    H232311   1.244   2.880   2.009 -0.3688  1.6265 -0.5051
 2706TIP3   OH232312   1.498   1.309   2.945  0.0500  0.2111 -0.5826
 2706TIP3    H132313   1.436   1.258   2.997  0.6037  1.0908  0.9802
 2706TIP3    H232314   1.583   1.266   2.959  0.0599 -0.1051 -1.5336
 2707TIP3   OH232315  -0.508   0.936   2.367 -0.7241  0.1311  0.7038
 2707TIP3    H132316  -0.583   0.881   2.343  1.7574 -2.6422 -1.4401
 2707TIP3    H232317  -0.474   0.967   2.283  1.1860  0.4221  1.5449
 2708TIP3   OH232318  -1.759  -1.197   3.885 -0.1939 -0.1328 -0.4360
 2708TIP3    H132319  -1.837  -1.207   3.939 -0.5651 -1.3594 -1.1371
 2708TIP3    H232320  -1.727  -1.109   3.903 -1.7649  0.4089 -0.1505
 2709TIP3   OH232321   1.213   1.210   3.907  0.2805  0.0925  0.3624
 2709TIP3    H132322   1.140   1.268   3.929 -1.8471 -1.4020 -2.1375
 2709TIP3    H232323   1.217   1.148   3.980 -0.2107  0.8401  1.0428
 2710TIP3   OH232324   2.367  -2.643   5.955 -0.1373  0.8078  0.2066
 2710TIP3    H132325   2.310  -2.720   5.951  1.9329 -0.8333  0.9349
 2710TIP3    H232326   2.432  -2.656   5.886 -0.7284  2.8028 -0.8140
 2711TIP3   OH232327   3.237  -0.686   2.499  0.0064  0.0054 -0.3558
 2711TIP3    H132328   3.303  -0.756   2.499 -0.7455 -0.7386 -1.4929
 2711TIP3    H232329   3.155  -0.730   2.517 -0.2423  0.8912  0.7789
 2712TIP3   OH232330   3.335   0.771   2.882 -0.0929  0.4409  0.5448
 2712TIP3    H132331   3.369   0.718   2.954 -0.9416  0.2774  0.8346
 2712TIP3    H232332   3.319   0.709   2.811 -0.5050  0.4023  0.6717
 2713TIP3   OH232333  -2.364   0.887   3.203 -0.2560 -0.1322  0.0861
 2713TIP3    H132334  -2.435   0.952   3.206 -1.1623 -1.0815 -0.0571
 2713TIP3    H232335  -2.366   0.846   3.290  1.1264  0.8422  0.6087
 2714TIP3   OH232336  -1.917   0.907   3.403 -0.0163 -0.0483  0.4957
 2714TIP3    H132337  -1.994   0.953   3.370 -2.1606 -2.5154  1.5843
 2714TIP3    H232338  -1.940   0.886   3.494  2.1676 -0.4531  0.9963
 2715TIP3   OH232339  -3.010  -2.836   5.135 -0.4154  0.0074  0.6534
 2715TIP3    H132340  -3.055  -2.860   5.054 -1.0295  1.6091  0.4767
 2715TIP3    H232341  -2.968  -2.753   5.115  0.5747 -0.2523  1.5765
 2716TIP3   OH232342   1.875   0.520   3.650 -0.2249 -0.1491  0.1863
 2716TIP3    H132343   1.950   0.580   3.654 -0.8994  0.7280 -0.1039
 2716TIP3    H232344   1.908   0.445   3.599  0.4502  0.2329  0.0489
 2717TIP3   OH232345  -2.945   0.753   4.408 -0.0784  0.1132  0.1397
 2717TIP3    H132346  -2.896   0.738   4.327  1.5589  0.2347  1.0741
 2717TIP3    H232347  -2.981   0.841   4.398  2.2842  1.2042  0.5567
 2718TIP3   OH232348   0.846   2.701   3.611  0.0617  0.7306  0.0771
 2718TIP3    H132349   0.876   2.628   3.557 -0.8877  0.6278 -0.3334
 2718TIP3    H232350   0.781   2.663   3.670 -2.2798  1.6088 -1.7697
 2719TIP3   OH232351   1.206   1.739   4.805 -0.3871 -0.2298  0.5855
 2719TIP3    H132352   1.280   1.761   4.861 -0.0510 -0.4415  0.2256
 2719TIP3    H232353   1.139   1.803   4.828 -0.4631 -0.6789  1.6466
 2720TIP3   OH232354   0.908  -0.213   3.848 -0.1727 -0.4743 -0.4470
 2720TIP3    H132355   0.931  -0.233   3.758 -1.1558 -1.8306 -0.4213
 2720TIP3    H232356   0.863  -0.291   3.880 -2.0311  0.8791  0.4528
 2721TIP3   OH232357   1.817   2.333   4.499 -0.0025  0.7995 -0.1187
 2721TIP3    H132358   1.777   2.417   4.517 -0.7015  0.5780 -0.6021
 2721TIP3    H232359   1.806   2.321   4.404  0.3990  0.3249 -0.1123
 2722TIP3   OH232360   1.366   0.557   3.273  0.3551 -0.5187 -0.2846
 2722TIP3    H132361   1.437   0.573   3.337  1.2133 -0.2277 -1.2808
 2722TIP3    H232362   1.387   0.615   3.200 -0.0949 -1.5359 -1.2395
 2723TIP3   OH232363   0.179  -2.560   5.625 -0.3545 -0.1067  0.2070
 2723TIP3    H132364   0.198  -2.605   5.543 -1.2882 -2.0915  1.0060
 2723TIP3    H232365   0.265  -2.544   5.664  0.0227 -0.8212 -0.3060
 2724TIP3   OH232366  -2.818  -0.289   3.783 -0.4051 -0.2839  0.6580
 2724TIP3    H132367  -2.845  -0.201   3.808 -0.6000 -0.6609  1.8824
 2724TIP3    H232368  -2.723  -0.289   3.793 -0.1445  0.3870 -1.4452
 2725TIP3   OH232369  -1.370   2.729   5.832 -0.4269  0.2052 -0.3196
 2725TIP3    H132370  -1.278   2.751   5.821  0.1295 -2.1902 -1.1170
 2725TIP3    H232371  -1.370   2.647   5.881 -1.9949 -0.8735 -1.9755
 2726TIP3   OH232372   3.100  -1.012   3.792 -0.2275  0.4251 -0.0418
 2726TIP3    H132373   3.037  -1.062   3.740  0.7821 -1.6243  0.5998
 2726TIP3    H232374   3.084  -0.921   3.768 -2.9487 -0.0618 -0.4178
 2727TIP3   OH232375   2.055  -0.299   4.413 -0.6402 -0.7187  0.3630
 2727TIP3    H132376   2.073  -0.268   4.325  0.3596 -0.3437  0.6786
 2727TIP3    H232377   1.960  -0.305   4.418 -0.6859 -2.3475 -1.2660
 2728TIP3   OH232378   0.794   0.729   3.419 -0.3685  0.6397 -0.5352
 2728TIP3    H132379   0.714   0.698   3.462  1.7919 -1.6666  2.2233
 2728TIP3    H232380   0.778   0.822   3.402 -2.8355  0.7975  1.9204
 2729TIP3   OH232381  -2.895  -1.741   3.795 -0.7061  0.3502  0.1361
 2729TIP3    H132382  -2.895  -1.770   3.887 -2.3023  0.7953  0.2951
 2729TIP3    H232383  -2.936  -1.655   3.797 -0.5476  0.4626 -0.9754
 2730TIP3   OH232384   3.137   1.338   2.237 -0.6899  0.0631 -0.3535
 2730TIP3    H132385   3.163   1.391   2.161 -1.9474  1.2289 -0.0188
 2730TIP3    H232386   3.083   1.397   2.289  1.0529 -0.3464  2.0548
 2731TIP3   OH232387  -2.074  -1.626   4.828 -0.1814 -0.7623 -0.1239
 2731TIP3    H132388  -2.168  -1.645   4.833 -0.7799  0.8496 -3.0887
 2731TIP3    H232389  -2.070  -1.532   4.810  2.0819 -0.6137  0.8750
 2732TIP3   OH232390  -1.123  -0.240   2.203  0.2624  0.4126  0.0523
 2732TIP3    H132391  -1.129  -0.153   2.163  1.1238  0.0246 -0.9591
 2732TIP3    H232392  -1.063  -0.289   2.146  0.1722 -0.6968  0.8769
 2733TIP3   OH232393   3.033   1.981   2.198  0.5484 -0.4189  0.4532
 2733TIP3    H132394   3.048   1.901   2.248  0.3844 -0.7348  0.0038
 2733TIP3    H232395   3.091   2.046   2.238  1.8837 -1.1728 -0.1734
 2734TIP3   OH232396   3.176  -1.450   4.153  0.4085 -0.0316  0.0978
 2734TIP3    H132397   3.216  -1.531   4.184  0.4809 -1.1277 -2.6278
 2734TIP3    H232398   3.248  -1.402   4.112  0.1010  0.8279  0.5421
 2735TIP3   OH232399   2.405  -2.433   3.756 -0.2238  0.3691 -0.3172
 2735TIP3    H132400   2.445  -2.490   3.691 -0.0605  1.3695 -1.1034
 2735TIP3    H232401   2.310  -2.448   3.747 -0.1986  0.4720 -0.7508
 2736TIP3   OH232402   2.518   3.019   5.069  0.0505 -0.4288 -0.3793
 2736TIP3    H132403   2.548   3.022   4.977 -0.2813 -0.2394 -0.4805
 2736TIP3    H232404   2.464   2.940   5.074  1.7472 -1.6178  0.1694
 2737TIP3   OH232405  -1.586  -0.853   4.568  0.5166 -0.3248 -0.6080
 2737TIP3    H132406  -1.552  -0.766   4.545  1.9733 -0.3969  1.0332
 2737TIP3    H232407  -1.667  -0.835   4.616 -0.4132 -0.0112 -2.2450
 2738TIP3   OH232408   0.017   1.360   5.373  0.5773 -0.0650  0.0962
 2738TIP3    H132409   0.013   1.338   5.280  0.9692 -0.0345  0.0657
 2738TIP3    H232410  -0.070   1.341   5.406  0.4306 -0.0679 -0.2809
 2739TIP3   OH232411   3.329  -1.722   3.343 -0.2796  0.2771 -0.5004
 2739TIP3    H132412   3.365  -1.672   3.416 -1.2260 -0.2319  0.3473
 2739TIP3    H232413   3.398  -1.723   3.277  0.0616  1.9809 -0.2011
 2740TIP3   OH232414  -3.290  -2.220   3.777  0.1259  0.3453 -0.3105
 2740TIP3    H132415  -3.283  -2.228   3.872  0.4934 -1.2220 -0.4524
 2740TIP3    H232416  -3.216  -2.270   3.743  0.8980  2.1329 -1.4244
 2741TIP3   OH232417  -1.402  -0.093   4.643 -0.6171 -0.3521 -0.1511
 2741TIP3    H132418  -1.360  -0.060   4.563  0.5725 -1.5543 -0.0629
 2741TIP3    H232419  -1.341  -0.071   4.713  0.5233 -3.1100 -0.1563
 2742TIP3   OH232420  -1.121   1.917   4.349 -0.3417  0.0847 -0.0735
 2742TIP3    H132421  -1.131   1.822   4.355 -0.9928  0.0928 -0.8692
 2742TIP3    H232422  -1.031   1.930   4.318 -1.0928 -0.3954 -2.6554
 2743TIP3   OH232423   0.616   0.162   3.611  0.0036 -0.1257 -0.2103
 2743TIP3    H132424   0.672   0.128   3.541 -0.4794 -0.0530 -0.6374
 2743TIP3    H232425   0.627   0.257   3.606  1.4042 -0.2013  1.0265
 2744TIP3   OH232426   0.890   2.686   2.942  0.4247  0.3780  0.0166
 2744TIP3    H132427   0.820   2.627   2.970 -0.5121  1.2321 -0.4588
 2744TIP3    H232428   0.940   2.636   2.878  0.3535 -0.3007  0.4861
 2745TIP3   OH232429  -0.287   1.177   2.704  0.4957 -0.4873  0.1799
 2745TIP3    H132430  -0.221   1.244   2.690  1.7597 -1.7001  0.1286
 2745TIP3    H232431  -0.255   1.101   2.654 -0.9146 -1.1132  0.1815
 2746TIP3   OH232432   0.128   0.439   4.411 -0.0421  0.5496  0.5200
 2746TIP3    H132433   0.106   0.372   4.475 -0.7753  0.5859  0.3130
 2746TIP3    H232434   0.151   0.389   4.332  0.2010  0.5254  0.6046
 2747TIP3   OH232435  -2.366  -2.410   2.089  0.4234 -0.5935  0.0805
 2747TIP3    H132436  -2.441  -2.413   2.031 -0.7906 -1.4968  1.6179
 2747TIP3    H232437  -2.354  -2.501   2.118 -1.0095  0.1440  3.5707
 2748TIP3   OH232438   2.925   3.104   4.337 -0.0756 -0.0741  0.0035
 2748TIP3    H132439   3.017   3.095   4.312  0.0625  0.5549  0.2702
 2748TIP3    H232440   2.922   3.184   4.390 -0.7751 -0.0962  0.0060
 2749TIP3   OH232441  -0.056   1.167   2.919 -0.2537 -0.1162 -0.6511
 2749TIP3    H132442   0.014   1.107   2.946  0.1704  0.7696  0.2801
 2749TIP3    H232443  -0.137   1.123   2.944 -0.0507 -1.0963 -1.6231
 2750TIP3   OH232444  -0.587  -2.630   4.979  0.2757  0.1870  0.4608
 2750TIP3    H132445  -0.507  -2.587   5.008 -0.2960  1.3075  0.4375
 2750TIP3    H232446  -0.593  -2.708   5.034  1.0894  0.3796  0.8452
 2751TIP3   OH232447  -1.712   1.665   4.183 -0.2624  0.4699  0.0055
 2751TIP3    H132448  -1.791   1.680   4.132  0.0832 -1.1515 -1.1053
 2751TIP3    H232449  -1.641   1.694   4.126  0.0425  0.2215  0.2505
 2752TIP3   OH232450   2.018  -1.367   2.447  0.0561  0.3565  0.0450
 2752TIP3    H132451   2.034  -1.410   2.363 -0.5369  1.7211 -0.7918
 2752TIP3    H232452   1.927  -1.338   2.443 -0.2673 -0.3491  1.5483
 2753TIP3   OH232453   2.877   2.942   2.427  0.0300 -0.0243  0.0554
 2753TIP3    H132454   2.829   2.864   2.401  0.5191 -0.6466  0.9654
 2753TIP3    H232455   2.955   2.942   2.371  0.7054 -0.9445  0.9622
 2754TIP3   OH232456  -1.042   1.628   4.867 -0.4916 -0.0601 -0.4923
 2754TIP3    H132457  -1.135   1.629   4.846 -0.3926 -0.2931 -0.9547
 2754TIP3    H232458  -1.013   1.718   4.850 -0.3352 -0.3242 -1.7708
 2755TIP3   OH232459  -0.264   0.416   5.055 -0.4936 -0.3042 -0.2099
 2755TIP3    H132460  -0.270   0.320   5.051 -2.7404 -0.3016  1.4306
 2755TIP3    H232461  -0.172   0.433   5.076 -0.3238 -2.1966  0.8121
 2756TIP3   OH232462   1.812  -1.581   4.970 -0.0372  0.3689  0.7417
 2756TIP3    H132463   1.753  -1.535   4.911  0.5598  0.9611  0.5926
 2756TIP3    H232464   1.873  -1.628   4.913  0.0849  0.3510  0.8836
 2757TIP3   OH232465   0.283  -2.316   2.765 -0.4820  0.6128  0.6888
 2757TIP3    H132466   0.198  -2.279   2.742 -0.0349  1.3345  0.1748
 2757TIP3    H232467   0.330  -2.321   2.682 -0.3260 -0.5861  0.8363
 2758TIP3   OH232468   2.734  -0.306   4.598 -0.0195 -0.4317  0.1581
 2758TIP3    H132469   2.722  -0.211   4.599 -0.0421 -0.3481 -2.3244
 2758TIP3    H232470   2.828  -0.318   4.584 -0.2058 -0.7316 -0.8916
 2759TIP3   OH232471   1.462   0.902   4.580 -0.1944  0.5619  0.0798
 2759TIP3    H132472   1.392   0.864   4.527  1.0482 -0.8630 -0.6211
 2759TIP3    H232473   1.492   0.829   4.635  0.5557  1.2111  0.5572
 2760TIP3   OH232474  -0.797  -1.412   4.723  0.2699 -0.1050  0.2798
 2760TIP3    H132475  -0.814  -1.490   4.670 -0.2237  0.9631 -1.2078
 2760TIP3    H232476  -0.713  -1.430   4.767  0.5292 -1.1621 -0.6086
 2761TIP3   OH232477  -0.476   1.497   2.895  0.1125  0.7395  0.1638
 2761TIP3    H132478  -0.386   1.515   2.868  0.1714  0.5567  0.2371
 2761TIP3    H232479  -0.505   1.425   2.838  0.3379  0.1478  0.7791
 2762TIP3   OH232480  -1.449  -2.758   3.604  0.2842  0.1031 -0.0448
 2762TIP3    H132481  -1.361  -2.751   3.567  0.3814  1.3124  0.3620
 2762TIP3    H232482  -1.434  -2.779   3.696  0.0419 -3.2031 -0.6205
 2763TIP3   OH232483  -0.276  -0.291   3.160 -0.1223  0.1355  0.1445
 2763TIP3    H132484  -0.298  -0.223   3.097  1.4184  1.2971  0.8243
 2763TIP3    H232485  -0.255  -0.367   3.106 -0.3886  0.6210 -0.6672
 2764TIP3   OH232486   1.847  -0.382   3.448  0.3976  0.1326 -0.5141
 2764TIP3    H132487   1.934  -0.387   3.409  0.0194  1.8847 -1.7013
 2764TIP3    H232488   1.788  -0.372   3.374 -0.7543 -0.2999  0.3145
 2765TIP3   OH232489   0.562   0.671   3.534  0.6293  0.0328  0.6359
 2765TIP3    H132490   0.595   0.734   3.598  0.9894  0.3844  0.1077
 2765TIP3    H232491   0.468   0.665   3.553  0.6329  0.5424  0.8422
 2766TIP3   OH232492  -2.552   0.268   1.641 -0.2467  0.4006  0.5283
 2766TIP3    H132493  -2.577   0.185   1.601 -0.1148 -0.3466  1.9259
 2766TIP3    H232494  -2.473   0.294   1.594 -1.4950  0.8996 -1.4149
 2767TIP3   OH232495  -1.375  -0.336   4.974  0.6733 -0.1496 -0.0846
 2767TIP3    H132496  -1.386  -0.378   4.888 -0.8495 -0.0311  0.0302
 2767TIP3    H232497  -1.340  -0.249   4.953  1.4730 -0.5566 -0.4864
 2768TIP3   OH232498  -1.062   1.252   5.587  0.3753 -0.3139  0.8549
 2768TIP3    H132499  -0.974   1.264   5.550  0.0198 -0.2930  0.0022
 2768TIP3    H232500  -1.049   1.189   5.658  0.5540 -3.0455 -1.4588
 2769TIP3   OH232501  -1.973  -1.295   4.073 -0.3526  0.1048 -0.2134
 2769TIP3    H132502  -1.902  -1.350   4.107  0.1069  0.3583 -0.7574
 2769TIP3    H232503  -2.038  -1.294   4.144  0.3799  0.2443  0.4720
 2770TIP3   OH232504  -1.183  -1.307   3.272 -0.4956 -0.0367 -0.1315
 2770TIP3    H132505  -1.241  -1.268   3.337  0.2699 -0.7196  0.9960
 2770TIP3    H232506  -1.230  -1.384   3.240 -1.2988  0.8410 -1.1508
 2771TIP3   OH232507   1.687  -0.681   4.742 -0.0313 -0.3485  0.0924
 2771TIP3    H132508   1.701  -0.672   4.837 -3.9493  2.4776  0.6456
 2771TIP3    H232509   1.651  -0.769   4.732 -2.2762  0.2734  1.8114
 2772TIP3   OH232510  -3.040   1.018   4.440 -0.2822 -0.1718 -0.3924
 2772TIP3    H132511  -3.003   1.010   4.529  1.3382 -0.9814 -1.0976
 2772TIP3    H232512  -3.108   1.085   4.449  0.9274  0.9393  1.1346
 2773TIP3   OH232513   2.130   3.257   4.072  0.1060 -0.4777  0.1026
 2773TIP3    H132514   2.148   3.172   4.033 -1.5262  0.3446 -2.7671
 2773TIP3    H232515   2.048   3.245   4.120  0.9054 -0.9428  1.3924
 2774TIP3   OH232516  -0.160  -2.941   5.082 -0.5569 -0.1737 -0.4406
 2774TIP3    H132517  -0.181  -2.903   5.167 -0.7120 -0.8417 -0.1752
 2774TIP3    H232518  -0.071  -2.911   5.063  0.1316 -1.3707  0.7374
 2775TIP3   OH232519  -1.374  -2.975   4.984  0.1300 -0.4327  0.0500
 2775TIP3    H132520  -1.374  -2.888   4.944  1.1426 -0.3337  0.2593
 2775TIP3    H232521  -1.327  -3.030   4.922  1.2100 -0.4033  0.8244
 2776TIP3   OH232522   0.079   3.136   4.722 -0.3879 -0.0471 -0.0890
 2776TIP3    H132523   0.026   3.061   4.750  0.3181  0.0770  1.7235
 2776TIP3    H232524   0.026   3.213   4.740 -0.6504 -0.0424 -0.8512
 2777TIP3   OH232525  -0.096   0.218   4.870 -0.8563  0.7358  0.0746
 2777TIP3    H132526  -0.138   0.211   4.784 -0.2352 -0.5853 -0.1476
 2777TIP3    H232527  -0.043   0.298   4.863  0.6577 -0.3300 -1.4773
 2778TIP3   OH232528  -0.404   2.975   4.184 -0.1290 -0.0297 -0.1284
 2778TIP3    H132529  -0.415   2.948   4.275 -0.5257  1.2913  0.2320
 2778TIP3    H232530  -0.493   2.973   4.148 -0.3465  1.7544  0.2093
 2779TIP3   OH232531  -1.260   0.806   3.141  0.0009 -0.1330  0.0211
 2779TIP3    H132532  -1.308   0.724   3.155 -0.6390 -0.3902 -3.0468
 2779TIP3    H232533  -1.221   0.796   3.054 -0.4653  3.0007 -0.6453
 2780TIP3   OH232534   0.407   2.474   4.349 -0.1952  0.0679 -0.2470
 2780TIP3    H132535   0.444   2.553   4.387  1.5606 -1.1205  0.6300
 2780TIP3    H232536   0.481   2.430   4.307 -1.1061 -1.1799 -0.6055
 2781TIP3   OH232537   0.160   3.354   4.036 -0.4847  0.4274 -0.5627
 2781TIP3    H132538   0.086   3.302   4.006 -1.1676  2.5553 -2.9328
 2781TIP3    H232539   0.229   3.338   3.972  0.5559 -0.1894  0.6577
 2782TIP3   OH232540  -1.689  -3.187   5.552  0.3382 -0.0748 -0.3669
 2782TIP3    H132541  -1.772  -3.158   5.589  0.1679 -0.6227 -0.3072
 2782TIP3    H232542  -1.657  -3.253   5.614  0.8054  0.1128 -0.4020
 2783TIP3   OH232543  -3.304  -1.849   3.644 -0.0370  0.0968  0.5364
 2783TIP3    H132544  -3.329  -1.756   3.642  1.5358  0.5955 -2.2571
 2783TIP3    H232545  -3.386  -1.897   3.636 -0.6892  1.4447 -2.0003
 2784TIP3   OH232546   1.290   0.241   5.374  0.2703  0.0904 -0.1364
 2784TIP3    H132547   1.241   0.279   5.302  0.2577  2.1923  0.9238
 2784TIP3    H232548   1.233   0.173   5.409 -0.1532 -0.2409 -1.4330
 2785TIP3   OH232549  -1.407  -2.893   4.699 -0.4603 -0.6301 -0.6972
 2785TIP3    H132550  -1.321  -2.934   4.688 -1.5438 -3.6057  0.7123
 2785TIP3    H232551  -1.425  -2.853   4.614  2.3345  0.2323 -0.9869
 2786TIP3   OH232552   3.336   1.319   5.471  0.0930  0.1710 -0.1155
 2786TIP3    H132553   3.348   1.304   5.565  2.3792 -0.0745 -0.3732
 2786TIP3    H232554   3.281   1.397   5.466  1.4512  1.3012  1.4821
 2787TIP3   OH232555  -3.145   2.294   3.689  0.6514 -0.0841 -0.0685
 2787TIP3    H132556  -3.057   2.258   3.682  1.0627  0.7887  0.5163
 2787TIP3    H232557  -3.142   2.375   3.638 -0.6055 -1.3942 -2.4177
 2788TIP3   OH232558  -1.084  -1.932   4.369 -0.5157  0.5364 -0.0136
 2788TIP3    H132559  -1.136  -2.011   4.381 -0.3806  0.3466 -0.6722
 2788TIP3    H232560  -1.040  -1.920   4.453 -1.5269  0.6374  0.5215
 2789TIP3   OH232561  -2.613   0.043   2.284 -0.5942  0.1662 -0.6238
 2789TIP3    H132562  -2.628   0.138   2.288  0.0826  0.2622 -0.1176
 2789TIP3    H232563  -2.701   0.005   2.277 -0.8957  0.8143 -0.4333
 2790TIP3   OH232564  -0.951   3.369   3.925 -0.0939 -0.6524 -0.4525
 2790TIP3    H132565  -1.036   3.356   3.882 -1.3427  1.3394  1.1887
 2790TIP3    H232566  -0.921   3.454   3.893  1.2462 -1.2805 -0.9108
 2791TIP3   OH232567  -0.702   0.779   3.968  0.0071  1.4635  0.1024
 2791TIP3    H132568  -0.638   0.799   3.900 -0.0940  1.9851  0.1581
 2791TIP3    H232569  -0.660   0.711   4.022 -0.4318  0.0682 -1.2496
 2792TIP3   OH232570   0.690  -1.372   2.220  0.4045 -0.0105  0.2499
 2792TIP3    H132571   0.717  -1.419   2.141 -0.0716 -0.2428  0.2267
 2792TIP3    H232572   0.717  -1.281   2.203 -0.9475  0.2339 -0.7939
 2793TIP3   OH232573  -2.981   1.682   5.384 -0.7830  0.0685  0.1038
 2793TIP3    H132574  -3.044   1.681   5.456  0.6176 -1.8555  1.4123
 2793TIP3    H232575  -2.980   1.593   5.351 -0.1858  0.5393 -1.2435
 2794TIP3   OH232576  -0.267  -1.946   2.572 -0.1115 -0.2182  0.3301
 2794TIP3    H132577  -0.254  -1.885   2.500  1.2881 -0.1527  0.6233
 2794TIP3    H232578  -0.346  -1.995   2.548 -1.0938  1.4723 -0.0534
 2795TIP3   OH232579  -1.431   1.637   2.900 -0.1234 -0.1838 -0.4370
 2795TIP3    H132580  -1.401   1.726   2.882  0.4087 -0.0991  0.7676
 2795TIP3    H232581  -1.411   1.588   2.820  1.6313  0.2815 -0.3203
 2796TIP3   OH232582  -0.513  -0.659   3.075  0.2209  0.1550  0.3726
 2796TIP3    H132583  -0.542  -0.571   3.051 -0.4231 -0.3356 -0.7332
 2796TIP3    H232584  -0.420  -0.661   3.054  0.2632  0.6103  0.5110
 2797TIP3   OH232585  -0.785   0.703   3.541 -0.3822 -0.0793  0.5782
 2797TIP3    H132586  -0.848   0.631   3.544 -1.4846  0.8771  0.7751
 2797TIP3    H232587  -0.810   0.753   3.464 -0.7378  1.0846  1.4319
 2798TIP3   OH232588   3.063   1.017   4.209 -0.0221 -0.3762 -0.6580
 2798TIP3    H132589   3.056   0.979   4.297 -1.1419  1.1733 -0.0124
 2798TIP3    H232590   3.155   1.044   4.203 -0.2133  0.6934  0.6108
 2799TIP3   OH232591   0.016   2.783   2.042  0.1218  0.8453 -0.1869
 2799TIP3    H132592  -0.066   2.738   2.060  1.3374 -1.8113 -0.7984
 2799TIP3    H232593   0.028   2.841   2.117 -2.1013  1.0519  0.0863
 2800TIP3   OH232594   1.187   1.941   5.482 -0.2035  0.4227  0.1714
 2800TIP3    H132595   1.223   2.022   5.518  0.7976 -0.2248  0.6653
 2800TIP3    H232596   1.249   1.915   5.414 -0.0396 -0.3975  0.6262
 2801TIP3   OH232597   2.584   1.986   4.514 -0.3056 -0.4067  0.1093
 2801TIP3    H132598   2.657   2.024   4.563 -0.7605 -0.5069  0.8864
 2801TIP3    H232599   2.514   1.977   4.579 -0.0161 -3.2165  0.1269
 2802TIP3   OH232600  -2.869   1.475   5.246 -0.2045 -0.5713  0.3498
 2802TIP3    H132601  -2.931   1.449   5.314  0.2001 -1.4091  0.4156
 2802TIP3    H232602  -2.851   1.393   5.198 -0.4924 -0.0044 -0.7720
 2803TIP3   OH232603   0.922   0.535   4.191 -0.0117  0.2307  0.2120
 2803TIP3    H132604   1.005   0.488   4.191  0.4652  0.9530 -1.8504
 2803TIP3    H232605   0.856   0.467   4.173  0.2012 -0.2292  1.1326
 2804TIP3   OH232606  -1.171   0.307   5.296 -0.1096  0.0148  0.1967
 2804TIP3    H132607  -1.086   0.271   5.269  1.1456  2.1969  1.0007
 2804TIP3    H232608  -1.175   0.292   5.390 -0.0021  1.0342  0.3795
 2805TIP3   OH232609   0.478   1.149   4.871 -0.5154 -0.4292  0.1537
 2805TIP3    H132610   0.567   1.160   4.905 -0.5906 -0.6154  0.4131
 2805TIP3    H232611   0.486   1.166   4.777 -0.0599 -1.2085  0.0410
 2806TIP3   OH232612   0.486   2.466   3.269 -0.4729  0.3304 -0.4224
 2806TIP3    H132613   0.441   2.382   3.269  0.2946 -0.1137 -2.1236
 2806TIP3    H232614   0.579   2.444   3.282 -0.3436  0.9753 -0.2086
 2807TIP3   OH232615  -1.332   1.797   3.850 -0.0626  0.2782  0.1100
 2807TIP3    H132616  -1.334   1.735   3.776  0.4716  1.3199 -0.8088
 2807TIP3    H232617  -1.391   1.867   3.823 -1.1090 -0.0680  1.3958
 2808TIP3   OH232618  -2.710  -2.555   5.875  0.1720  0.1350 -0.0802
 2808TIP3    H132619  -2.716  -2.634   5.928 -0.5326 -0.1675 -0.5957
 2808TIP3    H232620  -2.800  -2.521   5.872  0.3987  0.7397 -0.1863
 2809TIP3   OH232621   0.751   2.714   3.877  0.0370 -0.1026  0.1568
 2809TIP3    H132622   0.729   2.798   3.837  2.0891 -0.5155 -2.0650
 2809TIP3    H232623   0.674   2.691   3.929 -1.1891  2.3806 -0.3968
 2810TIP3   OH232624   0.773  -3.081   4.141 -0.0274 -0.0189  0.3379
 2810TIP3    H132625   0.694  -3.027   4.143 -0.4920 -0.6955  1.2657
 2810TIP3    H232626   0.841  -3.023   4.107 -0.9849  0.4683 -0.8120
 2811TIP3   OH232627   2.758   2.088   2.922  0.1336 -0.0194  0.0747
 2811TIP3    H132628   2.746   2.176   2.885  0.4884  0.3687  0.8577
 2811TIP3    H232629   2.671   2.049   2.920 -0.3343  0.8939  1.0524
 2812TIP3   OH232630   0.634   0.885   4.639 -0.0004  0.4603 -0.0999
 2812TIP3    H132631   0.541   0.908   4.644  0.2371  1.6152 -0.7179
 2812TIP3    H232632   0.654   0.852   4.727 -1.0606 -0.1254 -0.0508
 2813TIP3   OH232633  -2.190  -2.551   2.841  0.2608  0.6373  0.0442
 2813TIP3    H132634  -2.125  -2.620   2.829 -0.9655 -0.5509  0.0845
 2813TIP3    H232635  -2.189  -2.503   2.758 -1.3997 -1.6613 -1.4094
 2814TIP3   OH232636   3.346  -0.752   4.137 -0.0816  0.6088  0.1306
 2814TIP3    H132637   3.414  -0.819   4.128  0.0331  0.3785  2.3007
 2814TIP3    H232638   3.379  -0.678   4.087  0.3779 -0.4949 -1.2583
 2815TIP3   OH232639   2.614  -3.058   3.577  0.6343  0.6552  0.6937
 2815TIP3    H132640   2.599  -3.112   3.499  0.8798  0.4594  0.7821
 2815TIP3    H232641   2.539  -2.998   3.579 -0.0402 -0.1671  1.0004
 2816TIP3   OH232642   2.326  -2.384   5.890  0.5535 -0.7503 -0.0787
 2816TIP3    H132643   2.323  -2.464   5.943  2.4241  0.0130  1.2957
 2816TIP3    H232644   2.397  -2.333   5.929 -1.0945  1.9513 -0.4223
 2817TIP3   OH232645   0.190   3.270   4.321  0.2082 -0.4185 -0.2311
 2817TIP3    H132646   0.166   3.323   4.244  1.3261 -0.4381 -0.6233
 2817TIP3    H232647   0.279   3.240   4.301  1.3738  1.2851  1.9706
 2818TIP3   OH232648  -2.004  -0.236   5.142  0.0567  0.1388 -0.1867
 2818TIP3    H132649  -1.958  -0.209   5.062 -0.6185 -0.0368 -0.6379
 2818TIP3    H232650  -1.999  -0.159   5.200  0.2986  0.3652 -0.5064
 2819TIP3   OH232651   1.640   1.058   2.986 -0.1361 -0.3865 -0.0664
 2819TIP3    H132652   1.656   0.975   2.942 -0.0534  0.2165 -1.2154
 2819TIP3    H232653   1.698   1.057   3.062  0.8481 -0.8297 -0.8033
 2820TIP3   OH232654   0.293   1.566   4.654  0.1989 -0.0938  0.3979
 2820TIP3    H132655   0.334   1.538   4.572  1.1139 -0.4458  0.9659
 2820TIP3    H232656   0.366   1.579   4.714 -0.5726 -2.7676  2.0819
 2821TIP3   OH232657  -2.040   0.341   3.059  0.3594 -0.0602  0.1015
 2821TIP3    H132658  -1.984   0.270   3.026  1.8201  0.4394  1.3992
 2821TIP3    H232659  -1.990   0.380   3.130 -1.0394  1.3747  0.3520
 2822TIP3   OH232660   1.308  -1.700   5.887  0.2489  0.4393  0.0862
 2822TIP3    H132661   1.352  -1.639   5.827  2.1686  0.0893  1.0653
 2822TIP3    H232662   1.357  -1.781   5.879  1.3526  0.7084  2.9369
 2823TIP3   OH232663  -2.719  -1.966   2.718  0.0984 -0.7743 -0.5169
 2823TIP3    H132664  -2.696  -2.038   2.776 -1.3983 -1.6048 -0.9128
 2823TIP3    H232665  -2.654  -1.970   2.648  0.3071 -1.4434 -0.2910
 2824TIP3   OH232666   1.361   1.349   3.675 -0.1032 -0.1911  0.6985
 2824TIP3    H132667   1.452   1.337   3.651 -0.5288  0.8929 -1.7611
 2824TIP3    H232668   1.352   1.304   3.760  2.6548 -0.3245  0.9953
 2825TIP3   OH232669   1.187  -2.755   4.927  0.3182 -0.7870  0.1330
 2825TIP3    H132670   1.199  -2.661   4.917  1.0692 -1.0572 -1.9141
 2825TIP3    H232671   1.128  -2.779   4.855 -1.0447 -1.6946  1.4822
 2826TIP3   OH232672  -0.031  -2.418   3.711  0.2680  0.5064 -0.0695
 2826TIP3    H132673   0.026  -2.360   3.661 -0.2293  0.0123 -1.2460
 2826TIP3    H232674  -0.104  -2.438   3.652  0.0371 -0.7006  0.5768
 2827TIP3   OH232675   2.852   2.433   3.908  0.0717 -0.4232  0.1649
 2827TIP3    H132676   2.845   2.519   3.948  1.9627  0.4059 -1.1583
 2827TIP3    H232677   2.791   2.378   3.958 -1.0930  1.6278  1.0984
 2828TIP3   OH232678  -1.913   3.172   3.729  0.0916  0.2058  0.4382
 2828TIP3    H132679  -1.891   3.193   3.820  0.9294 -1.0611  0.5572
 2828TIP3    H232680  -2.009   3.171   3.727  0.0612 -0.5150  1.5144
 2829TIP3   OH232681  -2.367  -0.490   4.285  0.2701  0.3426 -1.3240
 2829TIP3    H132682  -2.357  -0.398   4.313 -1.5880  0.6830 -1.6701
 2829TIP3    H232683  -2.438  -0.488   4.221  1.4314 -1.0994 -2.7348
 2830TIP3   OH232684  -1.231  -1.954   3.682  0.1555  0.1679  0.4311
 2830TIP3    H132685  -1.317  -1.928   3.649  0.0222  0.4100  0.9546
 2830TIP3    H232686  -1.209  -1.887   3.747 -0.9178 -1.7876  2.9903
 2831TIP3   OH232687   2.666   1.470   3.649  0.1454  0.0742 -0.0821
 2831TIP3    H132688   2.618   1.539   3.693  0.3084  0.9904 -1.2691
 2831TIP3    H232689   2.616   1.452   3.569  0.1869 -1.0823  0.1311
 2832TIP3   OH232690  -0.054  -3.231   3.282  0.4677 -0.4693  0.1004
 2832TIP3    H132691  -0.130  -3.284   3.304 -1.9525  2.6520 -0.0308
 2832TIP3    H232692  -0.065  -3.211   3.189 -0.7939  3.0545  0.8603
 2833TIP3   OH232693   0.317  -1.729   3.123  0.0529 -0.0091 -0.2286
 2833TIP3    H132694   0.387  -1.670   3.151 -0.4497  1.5811 -2.1629
 2833TIP3    H232695   0.352  -1.817   3.141  1.6348  0.7895  0.8587
 2834TIP3   OH232696  -2.163   3.279   3.783  0.0380 -0.3778  0.0270
 2834TIP3    H132697  -2.247   3.298   3.826  0.6984  1.3344  0.6300
 2834TIP3    H232698  -2.173   3.313   3.695 -0.1834 -0.9476 -0.1726
 2835TIP3   OH232699   2.370  -0.532   2.664 -0.4031  0.9034 -0.0833
 2835TIP3    H132700   2.440  -0.596   2.663  0.1990  1.4614  1.6226
 2835TIP3    H232701   2.290  -0.584   2.663  0.0051  0.2569 -1.8976
 2836TIP3   OH232702  -2.445   0.384   2.472  0.0961  0.0822 -0.7948
 2836TIP3    H132703  -2.450   0.456   2.409 -0.5315  2.9224  2.2319
 2836TIP3    H232704  -2.352   0.362   2.477  0.8752  3.2010  0.6686
 2837TIP3   OH232705   2.653  -0.388   3.764  0.0112  0.4537 -0.6131
 2837TIP3    H132706   2.590  -0.316   3.764  0.0652  0.5041  0.0545
 2837TIP3    H232707   2.601  -0.466   3.745 -0.5682  0.2496  1.5374
 2838TIP3   OH232708  -2.060  -2.435   4.834 -0.1756  0.0145 -0.6054
 2838TIP3    H132709  -2.092  -2.345   4.833  0.4852  0.2646 -0.3770
 2838TIP3    H232710  -2.044  -2.454   4.927 -1.6225 -0.8347 -0.4986
 2839TIP3   OH232711   3.290  -1.668   4.294 -0.0482 -0.2694  0.4239
 2839TIP3    H132712   3.364  -1.700   4.244 -3.0994 -0.4834 -4.7207
 2839TIP3    H232713   3.253  -1.746   4.335  0.9645 -0.6573  0.6139
 2840TIP3   OH232714  -0.871   2.235   4.451 -0.2255  0.0121 -0.2233
 2840TIP3    H132715  -0.883   2.315   4.400  1.1079 -0.8691 -2.0320
 2840TIP3    H232716  -0.777   2.219   4.448 -0.4548 -1.5589  0.1891
 2841TIP3   OH232717   2.045  -3.119   2.923  0.0318 -0.1621  0.2258
 2841TIP3    H132718   2.118  -3.116   2.861  0.0740  0.6709  0.3093
 2841TIP3    H232719   2.076  -3.072   3.000 -1.3351  2.1671 -0.5578
 2842TIP3   OH232720  -1.000   0.971   3.784  0.2236  0.7340 -0.7242
 2842TIP3    H132721  -0.908   0.994   3.793  0.2287  0.3297  0.4745
 2842TIP3    H232722  -1.024   0.934   3.869 -0.9953  0.6523 -1.0795
 2843TIP3   OH232723   1.538   1.950   2.826  0.3051 -0.5961 -0.1727
 2843TIP3    H132724   1.556   1.918   2.914 -0.1910  0.1814  0.2211
 2843TIP3    H232725   1.498   1.875   2.781 -0.3736 -0.7010  0.5828
 2844TIP3   OH232726   3.237  -3.265   2.667  0.1797  0.4373  0.3701
 2844TIP3    H132727   3.322  -3.234   2.699  0.1703  0.3221  0.5100
 2844TIP3    H232728   3.232  -3.356   2.696  1.3161 -0.5458 -2.2173
 2845TIP3   OH232729   2.515   1.940   5.488  0.5179 -0.3604  0.0484
 2845TIP3    H132730   2.604   1.957   5.458  1.5381  1.2116  3.3752
 2845TIP3    H232731   2.525   1.873   5.556 -0.5965  0.5670  1.1987
 2846TIP3   OH232732   1.521  -2.174   3.217  0.2519 -0.1892  0.1498
 2846TIP3    H132733   1.599  -2.119   3.222 -0.5721  0.9318  1.7113
 2846TIP3    H232734   1.468  -2.146   3.292 -0.4560 -2.7455  0.6938
 2847TIP3   OH232735   1.113   0.467   3.218 -0.4479  0.4902  0.0308
 2847TIP3    H132736   1.073   0.552   3.198 -2.0942 -0.2293  0.1229
 2847TIP3    H232737   1.203   0.489   3.241 -0.5116  2.0927 -1.0462
 2848TIP3   OH232738  -1.701   1.007   5.459  0.2928  0.5287 -0.4125
 2848TIP3    H132739  -1.665   1.051   5.536  2.2975  1.5220 -1.8171
 2848TIP3    H232740  -1.743   0.929   5.493 -0.5941  1.9196  1.8604
 2849TIP3   OH232741   0.257  -0.605   5.241  0.1514 -0.2739  0.2123
 2849TIP3    H132742   0.185  -0.663   5.215 -1.8252  1.7424  0.7943
 2849TIP3    H232743   0.232  -0.576   5.329  2.3241 -0.3993  0.9077
 2850TIP3   OH232744   1.624   2.062   4.077 -0.0582 -0.1957 -0.1537
 2850TIP3    H132745   1.696   2.094   4.022 -0.7058  0.7037 -0.5197
 2850TIP3    H232746   1.546   2.096   4.034 -0.5773  0.8651  1.5174
 2851TIP3   OH232747   1.398   2.723   5.082  0.0813 -0.3116  0.0251
 2851TIP3    H132748   1.359   2.646   5.041 -0.7826 -0.0363  0.3097
 2851TIP3    H232749   1.443   2.769   5.011 -0.7094 -0.2656 -0.4502
 2852TIP3   OH232750   3.123  -0.803   4.926  0.1866  0.1068  0.6308
 2852TIP3    H132751   3.176  -0.874   4.890 -1.4098 -0.7304 -0.1608
 2852TIP3    H232752   3.036  -0.841   4.937 -1.1159  2.2950 -1.1944
 2853TIP3   OH232753   0.669  -1.581   5.100 -0.0740 -0.2159 -0.2177
 2853TIP3    H132754   0.651  -1.488   5.111 -0.7498 -0.5253  1.6177
 2853TIP3    H232755   0.590  -1.616   5.058 -0.4722 -0.2217  0.5322
 2854TIP3   OH232756   1.239  -2.806   3.543 -0.2669 -0.3496  0.2494
 2854TIP3    H132757   1.260  -2.732   3.485  0.9304  0.5823  1.7785
 2854TIP3    H232758   1.198  -2.765   3.619  0.4769 -1.2272  1.1515
 2855TIP3   OH232759  -2.357   2.975   4.412  0.2239  0.8691  0.5194
 2855TIP3    H132760  -2.264   2.960   4.434 -0.2249 -1.5550  1.0391
 2855TIP3    H232761  -2.405   2.931   4.482 -1.3035 -0.0451 -1.0377
 2856TIP3   OH232762   3.270   0.201   4.607  0.2566  0.2993  0.0041
 2856TIP3    H132763   3.223   0.121   4.630  0.7758  0.4298  1.6759
 2856TIP3    H232764   3.343   0.204   4.669 -0.9014  3.1222  1.3917
 2857TIP3   OH232765  -2.189  -2.570   4.035 -0.2399 -0.0653  0.6383
 2857TIP3    H132766  -2.156  -2.649   4.077  0.0024  0.0143  0.5997
 2857TIP3    H232767  -2.195  -2.593   3.942  1.2182  0.4108  0.3993
 2858TIP3   OH232768   1.040   0.066   5.683  0.0072  0.2899  0.2045
 2858TIP3    H132769   1.103   0.087   5.614 -0.2403 -0.8746 -0.4132
 2858TIP3    H232770   1.090   0.066   5.764  0.1137  2.6392  0.1810
 2859TIP3   OH232771  -0.923   2.765   2.346 -0.3773 -0.3148  0.2367
 2859TIP3    H132772  -0.892   2.849   2.380 -1.7118  0.0782  0.5392
 2859TIP3    H232773  -0.991   2.737   2.408  0.1131 -1.6812  0.2018
 2860TIP3   OH232774  -2.627  -1.788   5.072  0.5611 -0.3410  0.2809
 2860TIP3    H132775  -2.550  -1.834   5.039 -0.0839 -0.8225 -0.5927
 2860TIP3    H232776  -2.670  -1.755   4.993 -0.1953 -0.1944  0.7542
 2861TIP3   OH232777  -3.224  -0.396   5.186  0.8567 -1.1382 -0.1972
 2861TIP3    H132778  -3.154  -0.383   5.251  0.0358 -3.0026  1.1592
 2861TIP3    H232779  -3.303  -0.405   5.239 -0.0350 -1.5568 -1.5613
 2862TIP3   OH232780  -1.765   0.460   4.814  0.3083 -0.5274 -0.2304
 2862TIP3    H132781  -1.807   0.546   4.807 -0.1772 -0.7498 -0.0760
 2862TIP3    H232782  -1.678   0.479   4.849  0.6379  0.0106 -1.2963
 2863TIP3   OH232783   2.200  -1.006   2.926 -0.0474 -0.2771 -0.3438
 2863TIP3    H132784   2.198  -0.968   2.838 -0.7578 -0.6621 -0.4961
 2863TIP3    H232785   2.243  -1.091   2.914 -1.0681 -0.7794 -0.5001
 2864TIP3   OH232786  -3.287   1.897   4.821  0.1846  0.5367 -0.0967
 2864TIP3    H132787  -3.292   1.945   4.904 -0.7391  1.3268 -0.5845
 2864TIP3    H232788  -3.363   1.840   4.822  0.4789  0.1368 -0.1700
 2865TIP3   OH232789   0.391  -1.169   5.402 -0.5746 -0.1284  0.1190
 2865TIP3    H132790   0.375  -1.250   5.450  0.5559 -0.6653 -0.3585
 2865TIP3    H232791   0.472  -1.135   5.440 -0.5029  0.2423 -0.3580
 2866TIP3   OH232792  -0.904  -1.804   3.313  0.3606 -0.0690  0.4910
 2866TIP3    H132793  -0.993  -1.769   3.314  0.8424  1.1976  0.5242
 2866TIP3    H232794  -0.854  -1.744   3.369  1.1594 -0.9861  0.7908
 2867TIP3   OH232795  -2.782   0.662   5.830  0.2492 -0.0474 -0.0894
 2867TIP3    H132796  -2.721   0.588   5.830 -0.5556 -0.7751  1.9530
 2867TIP3    H232797  -2.726   0.738   5.814  1.3334 -0.9073 -0.5963
 2868TIP3   OH232798  -0.237  -2.768   3.983  0.5649  0.1321  0.3025
 2868TIP3    H132799  -0.202  -2.737   3.900 -0.0186  0.2888  0.1080
 2868TIP3    H232800  -0.320  -2.722   3.993  0.6964  0.2192  1.0448
 2869TIP3   OH232801  -1.163   0.575   5.439 -0.4665 -0.9432  0.1302
 2869TIP3    H132802  -1.096   0.544   5.378  0.0929  2.7329 -1.3709
 2869TIP3    H232803  -1.246   0.555   5.396 -0.2196 -2.0176  0.1339
 2870TIP3   OH232804  -1.446   0.251   3.340  0.1943 -0.2528 -0.4530
 2870TIP3    H132805  -1.423   0.187   3.272  1.7248 -2.1591  1.7367
 2870TIP3    H232806  -1.542   0.248   3.343  0.2138 -2.7351 -0.2039
 2871TIP3   OH232807  -2.320   1.276   4.555 -0.0416 -0.3028 -0.2463
 2871TIP3    H132808  -2.314   1.283   4.460 -0.5999  1.7852 -0.1757
 2871TIP3    H232809  -2.233   1.300   4.587 -0.1080 -0.1352 -0.1938
 2872TIP3   OH232810  -0.326  -0.741   5.528 -0.7696  0.0448  0.1962
 2872TIP3    H132811  -0.313  -0.723   5.621 -0.0843 -0.6111  0.2372
 2872TIP3    H232812  -0.314  -0.835   5.521 -2.2260 -0.1110 -0.3370
 2873TIP3   OH232813   0.521   2.059   5.353 -0.2815  0.4829 -0.2533
 2873TIP3    H132814   0.460   2.118   5.309 -2.5330 -1.5930 -0.1480
 2873TIP3    H232815   0.515   2.083   5.446 -0.8402  0.3752 -0.2605
 2874TIP3   OH232816   0.800  -3.104   2.728  0.3307  0.2361 -0.0212
 2874TIP3    H132817   0.888  -3.091   2.692  1.0700 -1.2385  1.1503
 2874TIP3    H232818   0.783  -3.025   2.779  0.7056  0.8169 -0.7807
 2875TIP3   OH232819   0.073  -1.523   3.524 -0.0776 -0.2576  0.2950
 2875TIP3    H132820   0.013  -1.557   3.458 -0.0622 -0.8207  0.5686
 2875TIP3    H232821   0.119  -1.600   3.558 -1.4547 -0.2756  2.3302
 2876TIP3   OH232822   2.675  -0.905   3.382 -0.1754  0.2891  0.5774
 2876TIP3    H132823   2.642  -0.962   3.313 -1.8190 -1.0371  2.3459
 2876TIP3    H232824   2.770  -0.920   3.381 -0.4143 -1.4802  0.0890
 2877TIP3   OH232825   1.934   2.624   4.672 -0.2046  0.3126 -0.2266
 2877TIP3    H132826   1.973   2.576   4.746 -0.4627 -0.4516 -0.5833
 2877TIP3    H232827   1.842   2.599   4.673 -0.0108 -0.5552 -1.4488
 2878TIP3   OH232828  -0.524  -3.281   3.493 -0.4143  0.0230 -0.2808
 2878TIP3    H132829  -0.508  -3.373   3.514  0.2761 -0.0979 -1.2648
 2878TIP3    H232830  -0.457  -3.233   3.542 -0.9571  0.0375  0.4617
 2879TIP3   OH232831   2.240  -1.892   5.327  0.2390 -0.2681 -0.0596
 2879TIP3    H132832   2.282  -1.966   5.283 -0.7414  0.2450 -1.9769
 2879TIP3    H232833   2.203  -1.839   5.256 -2.1404  0.2160  1.3982
 2880TIP3   OH232834   0.608   1.680   3.777  0.1979 -0.0359  0.0695
 2880TIP3    H132835   0.665   1.614   3.816  1.4159  0.6538 -0.4939
 2880TIP3    H232836   0.595   1.650   3.687  0.9424  0.5855 -0.2565
 2881TIP3   OH232837   2.462  -1.411   4.674 -0.1558 -0.5705  0.6331
 2881TIP3    H132838   2.402  -1.340   4.699  0.1116  0.2472 -0.9374
 2881TIP3    H232839   2.537  -1.366   4.635 -0.3826 -1.7369 -1.2297
 2882TIP3   OH232840   0.219  -1.973   3.318  0.2211  0.1135 -0.3522
 2882TIP3    H132841   0.174  -2.053   3.346  1.4496 -0.3748  0.3187
 2882TIP3    H232842   0.150  -1.906   3.318 -0.6176 -0.7124  0.1103
 2883TIP3   OH232843   1.998  -3.014   4.296  0.2986 -0.4381 -0.0334
 2883TIP3    H132844   1.914  -3.054   4.317  0.9098 -1.7106  0.0536
 2883TIP3    H232845   2.009  -3.030   4.203  1.2601 -1.8942  0.3058
 2884TIP3   OH232846  -0.371   3.170   4.892  0.0105 -0.2274  0.3370
 2884TIP3    H132847  -0.454   3.188   4.849  0.4121  2.4883  0.5086
 2884TIP3    H232848  -0.363   3.075   4.891 -3.1628 -0.5897  0.4844
 2885TIP3   OH232849   2.105  -0.613   2.996 -0.3555 -0.2692 -0.0113
 2885TIP3    H132850   2.016  -0.626   3.030 -0.9453  0.0858 -1.3438
 2885TIP3    H232851   2.102  -0.646   2.906  1.0960 -0.9857  0.1733
 2886TIP3   OH232852  -1.719  -1.533   5.638  0.1384  0.1635  0.1713
 2886TIP3    H132853  -1.636  -1.581   5.640  0.6661  1.0472 -0.3134
 2886TIP3    H232854  -1.708  -1.468   5.569 -0.4205  1.2568  1.0738
 2887TIP3   OH232855   3.363  -3.239   3.312 -0.1320 -0.2274  0.2847
 2887TIP3    H132856   3.319  -3.313   3.353  1.1881 -1.1968  0.0157
 2887TIP3    H232857   3.452  -3.270   3.296  0.8003  1.8254  1.2226
 2888TIP3   OH232858  -2.361  -3.266   5.843  0.0113 -0.7650 -0.0496
 2888TIP3    H132859  -2.374  -3.173   5.862 -1.4557 -0.2454 -3.0771
 2888TIP3    H232860  -2.432  -3.310   5.891 -1.6961  0.1407 -1.6593
 2889TIP3   OH232861  -1.023  -0.540   3.310 -0.8912 -0.6054 -0.3727
 2889TIP3    H132862  -1.101  -0.485   3.305 -1.2753 -0.6157  2.8973
 2889TIP3    H232863  -1.055  -0.630   3.302 -0.6513 -0.5357 -2.7169
 2890TIP3   OH232864   0.360  -2.853   3.331 -0.3696  0.1701  0.2328
 2890TIP3    H132865   0.330  -2.810   3.411 -2.0804 -0.6027  0.0535
 2890TIP3    H232866   0.383  -2.782   3.272 -0.5814  0.7793  0.8796
 2891TIP3   OH232867  -1.913  -0.225   3.997 -0.0981  0.2292 -0.2017
 2891TIP3    H132868  -1.900  -0.165   4.071 -2.2490  2.8201 -1.7065
 2891TIP3    H232869  -1.987  -0.279   4.023 -0.1213  0.3552 -0.0030
 2892TIP3   OH232870  -0.127   1.491   4.368 -0.3814 -0.4970  0.2602
 2892TIP3    H132871  -0.098   1.493   4.460  0.9439  0.7035 -0.1350
 2892TIP3    H232872  -0.050   1.461   4.320  0.0088  1.8761 -0.7422
 2893TIP3   OH232873  -2.460   0.573   2.903  0.1000 -0.2877 -0.8018
 2893TIP3    H132874  -2.369   0.557   2.926 -0.1405 -2.5665 -1.1789
 2893TIP3    H232875  -2.460   0.578   2.807 -0.0951  0.2988 -0.7743
 2894TIP3   OH232876  -2.805   1.803   3.142  0.0815  1.1287  0.1771
 2894TIP3    H132877  -2.726   1.797   3.197  0.6580  1.2080 -0.6148
 2894TIP3    H232878  -2.788   1.743   3.070 -0.8248  0.7500  0.2673
 2895TIP3   OH232879  -2.878   0.699   4.101 -0.3764  0.5175  0.1830
 2895TIP3    H132880  -2.853   0.791   4.089 -0.3260  0.7021  1.5414
 2895TIP3    H232881  -2.834   0.653   4.029  1.1283  1.3104  0.5511
 2896TIP3   OH232882   1.042  -1.591   4.290  0.4949 -0.4794  0.5508
 2896TIP3    H132883   0.958  -1.592   4.336 -1.0392  2.2246 -1.8236
 2896TIP3    H232884   1.074  -1.681   4.295 -3.0754 -1.8999  0.6508
 2897TIP3   OH232885  -2.187   2.024   5.708  0.2134 -0.1472 -0.5098
 2897TIP3    H132886  -2.242   2.038   5.785 -0.9033  0.1813 -1.3485
 2897TIP3    H232887  -2.242   1.976   5.647  1.5860 -1.7659 -0.5484
 2898TIP3   OH232888   0.587  -2.508   2.901  0.2794 -0.2199 -0.4038
 2898TIP3    H132889   0.633  -2.571   2.847  1.6976  1.3561 -1.1476
 2898TIP3    H232890   0.564  -2.437   2.840 -0.4494  0.3844  0.5491
 2899TIP3   OH232891  -1.821   0.978   3.874 -0.4422 -0.5168 -0.4146
 2899TIP3    H132892  -1.843   0.975   3.967  0.2498  0.8090 -0.1757
 2899TIP3    H232893  -1.847   1.066   3.847  0.0741 -0.6223 -1.2804
 2900TIP3   OH232894   0.954  -1.963   5.103 -0.3259  0.2630  0.3009
 2900TIP3    H132895   0.865  -1.952   5.071 -0.5489  0.7510  1.0715
 2900TIP3    H232896   1.002  -1.887   5.067 -0.9960  1.8504  2.5318
 2901TIP3   OH232897  -1.627  -2.546   4.306 -0.0959  0.0849  0.5026
 2901TIP3    H132898  -1.673  -2.475   4.261 -1.0021 -0.2333  0.9033
 2901TIP3    H232899  -1.607  -2.610   4.238 -0.2311  0.2354  0.3200
 2902TIP3   OH232900   2.697  -2.589   3.114  0.2778  0.1265  0.2864
 2902TIP3    H132901   2.779  -2.560   3.154  0.3546  0.3411 -0.0219
 2902TIP3    H232902   2.654  -2.508   3.086  0.3660 -0.0317 -0.3335
 2903TIP3   OH232903  -0.189  -3.246   4.175 -0.0178  0.3480  0.1580
 2903TIP3    H132904  -0.243  -3.323   4.160  0.5174  0.2669 -1.5614
 2903TIP3    H232905  -0.159  -3.221   4.088  0.3531  2.1143  0.7608
 2904TIP3   OH232906   2.035  -2.366   5.832 -0.0093 -0.3502 -0.2261
 2904TIP3    H132907   2.130  -2.358   5.829 -0.1219  0.8283 -1.9791
 2904TIP3    H232908   2.003  -2.275   5.831 -1.1644 -0.7390 -1.7243
 2905TIP3   OH232909   3.272  -0.155   4.438  0.1271 -0.5681  0.1405
 2905TIP3    H132910   3.240  -0.149   4.348  0.3091 -0.1499  0.0971
 2905TIP3    H232911   3.193  -0.151   4.492  0.0846  0.4142  0.0375
 2906TIP3   OH232912   1.708   2.861   3.898 -0.0761  0.0471 -0.1643
 2906TIP3    H132913   1.635   2.843   3.838 -0.0968  1.4756 -0.6144
 2906TIP3    H232914   1.685   2.945   3.939  0.4940 -0.3508  1.0042
 2907TIP3   OH232915  -2.671   0.771   5.188 -0.3583  0.0179  0.0597
 2907TIP3    H132916  -2.655   0.864   5.200 -0.4155  0.0681 -0.2486
 2907TIP3    H232917  -2.659   0.756   5.094  0.0384 -0.3602  0.1668
 2908TIP3   OH232918   0.871  -2.444   3.362 -0.3346 -0.0898 -0.2042
 2908TIP3    H132919   0.819  -2.508   3.410  0.0817 -0.4497 -0.2218
 2908TIP3    H232920   0.833  -2.443   3.274  0.0401 -0.7900 -0.3923
 2909TIP3   OH232921  -0.301   0.731   5.029  0.4411 -0.3529 -0.5378
 2909TIP3    H132922  -0.384   0.725   5.078  0.8862  0.6588  0.3817
 2909TIP3    H232923  -0.246   0.663   5.069 -0.0210 -1.2249 -1.3448
 2910TIP3   OH232924  -1.657   0.024   5.290 -0.1182  0.7390  0.2930
 2910TIP3    H132925  -1.581   0.053   5.341 -0.5780  0.6980  1.0131
 2910TIP3    H232926  -1.620  -0.027   5.219  0.4404 -1.6786  2.1775
 2911TIP3   OH232927  -0.058  -2.291   4.176  0.3972  0.1064  0.1695
 2911TIP3    H132928  -0.112  -2.323   4.104  0.1559 -1.0377  0.8446
 2911TIP3    H232929  -0.119  -2.243   4.233  0.1544 -0.8284  0.7146
 2912TIP3   OH232930   0.730   0.332   4.196  0.1769 -0.8232 -0.1927
 2912TIP3    H132931   0.781   0.253   4.177 -0.7264 -1.3067 -0.6958
 2912TIP3    H232932   0.668   0.337   4.124 -0.4693 -0.2381  0.3974
 2913TIP3   OH232933  -2.203  -1.400   3.885  0.6683  0.4797 -0.4636
 2913TIP3    H132934  -2.216  -1.349   3.805  3.5834 -0.7011 -1.8206
 2913TIP3    H232935  -2.131  -1.356   3.930 -2.3521  2.5582  2.9679
 2914TIP3   OH232936  -0.539  -1.874   4.437 -0.4713 -0.0246  0.2502
 2914TIP3    H132937  -0.606  -1.936   4.408 -0.7375  0.1580  0.4657
 2914TIP3    H232938  -0.458  -1.924   4.439 -0.5985 -0.2425 -0.0337
 2915TIP3   OH232939  -2.133  -0.204   4.542 -0.0804  0.3033  0.1488
 2915TIP3    H132940  -2.217  -0.228   4.504  0.5097 -1.0688 -0.3614
 2915TIP3    H232941  -2.130  -0.109   4.535 -1.1657  0.2950 -0.7346
 2916TIP3   OH232942   0.766  -1.715   4.833  0.0961  0.1212 -0.2490
 2916TIP3    H132943   0.757  -1.752   4.921 -0.5557  1.5426  0.3114
 2916TIP3    H232944   0.711  -1.638   4.834  1.8231  1.4351 -1.1906
 2917TIP3   OH232945  -1.850   2.424   5.056  0.4470  0.3473  0.3411
 2917TIP3    H132946  -1.922   2.362   5.072  0.3178  0.3996 -0.0395
 2917TIP3    H232947  -1.884   2.483   4.988 -0.0571  1.8326  1.7903
 2918TIP3   OH232948  -3.321  -0.552   3.445  0.9360  0.4824  0.0672
 2918TIP3    H132949  -3.380  -0.481   3.419 -0.7360 -1.1761 -0.9171
 2918TIP3    H232950  -3.332  -0.618   3.377  4.7077  0.4302 -0.6871
 2919TIP3   OH232951  -0.673   2.311   4.881  0.0204 -0.6012 -0.1955
 2919TIP3    H132952  -0.731   2.265   4.820  1.5097 -1.4245 -1.0235
 2919TIP3    H232953  -0.659   2.396   4.841 -1.6000  0.1049  0.6413
 2920TIP3   OH232954   3.284   0.019   2.583 -0.1464  0.2535 -0.7578
 2920TIP3    H132955   3.207   0.049   2.631 -0.4027 -0.0558 -0.9808
 2920TIP3    H232956   3.304  -0.067   2.621  0.5319  0.6472 -0.1850
 2921TIP3   OH232957  -0.232   2.687   2.092  0.1838 -0.5283  0.4896
 2921TIP3    H132958  -0.227   2.700   2.186  0.6276  0.8265  0.3060
 2921TIP3    H232959  -0.283   2.606   2.081  0.0105 -0.6259  1.8718
 2922TIP3   OH232960   0.813  -1.285   4.119  0.0906 -0.3805  0.3474
 2922TIP3    H132961   0.781  -1.306   4.207 -1.0071  0.0904  0.0809
 2922TIP3    H232962   0.876  -1.354   4.099  1.1656  0.0942  1.9227
 2923TIP3   OH232963  -0.534   1.529   4.127  0.1156  0.4780 -0.3384
 2923TIP3    H132964  -0.525   1.569   4.214  0.5122  2.1860 -1.1118
 2923TIP3    H232965  -0.627   1.537   4.106 -0.1808 -0.9153  0.3405
 2924TIP3   OH232966   0.311  -3.331   3.381  0.6125 -0.0189 -0.8390
 2924TIP3    H132967   0.319  -3.272   3.306  1.9110  1.0383  0.0818
 2924TIP3    H232968   0.391  -3.316   3.432 -1.7631  2.1282  2.7571
 2925TIP3   OH232969  -2.576   1.128   4.209  0.0663 -0.1234 -0.0625
 2925TIP3    H132970  -2.657   1.174   4.186  0.3358  0.4954  0.1925
 2925TIP3    H232971  -2.599   1.078   4.287 -0.2142 -0.3737 -0.3047
 2926TIP3   OH232972   0.360   0.981   5.153  0.4864 -0.5870 -0.3040
 2926TIP3    H132973   0.322   1.017   5.073 -1.1350  0.1498  0.7366
 2926TIP3    H232974   0.325   1.036   5.223  0.7649 -2.0439  1.0424
 2927TIP3   OH232975  -1.176  -0.347   2.987 -0.5378  0.1817  0.2543
 2927TIP3    H132976  -1.232  -0.288   2.936  0.5989  1.5987  0.5879
 2927TIP3    H232977  -1.123  -0.391   2.922 -0.5956  0.3778  0.0719
 2928TIP3   OH232978  -3.033  -2.979   5.510 -0.1004 -0.1571 -0.0960
 2928TIP3    H132979  -3.033  -2.956   5.603 -1.5882  0.0290 -0.1192
 2928TIP3    H232980  -2.977  -2.912   5.470 -2.5107  2.2158  0.1701
 2929TIP3   OH232981  -0.920   0.914   4.835  0.2865  0.3382 -0.3906
 2929TIP3    H132982  -0.922   0.941   4.743  0.2166 -0.0665 -0.5120
 2929TIP3    H232983  -0.980   0.974   4.879  1.3140  1.3635 -0.3736
 2930TIP3   OH232984   1.918   0.218   5.587  0.1560  0.4146 -0.1253
 2930TIP3    H132985   1.851   0.266   5.538  0.3419  0.5578 -0.2442
 2930TIP3    H232986   1.974   0.287   5.623  0.5888  0.2781 -0.5322
 2931TIP3   OH232987   0.350  -1.388   5.562 -0.4877 -0.0138  0.1424
 2931TIP3    H132988   0.284  -1.453   5.586 -1.8643  1.5274  0.7080
 2931TIP3    H232989   0.427  -1.413   5.613 -1.5259 -0.2475  1.6906
 2932TIP3   OH232990  -3.104  -1.144   3.886  0.0684 -0.6478 -0.4828
 2932TIP3    H132991  -3.164  -1.105   3.822  0.6407  0.9715 -0.0765
 2932TIP3    H232992  -3.068  -1.220   3.841 -1.6174 -1.1470 -1.0577
 2933TIP3   OH232993   2.878  -1.799   4.465 -0.2254 -0.1200 -0.6489
 2933TIP3    H132994   2.834  -1.715   4.451  0.9985  0.7351  0.3988
 2933TIP3    H232995   2.942  -1.804   4.394 -0.2029 -0.0885 -0.6313
 2934TIP3   OH232996   1.502  -1.385   4.398  0.2139 -0.0350 -0.0782
 2934TIP3    H132997   1.541  -1.435   4.326  1.7807  0.2078  0.5485
 2934TIP3    H232998   1.437  -1.444   4.436 -0.6901 -0.1325 -1.7184
 2935TIP3   OH232999   2.081  -2.230   4.717 -0.3863 -0.5768 -0.0095
 2935TIP3    H133000   2.001  -2.179   4.700  0.0892 -0.1968 -1.1879
 2935TIP3    H233001   2.059  -2.318   4.686  0.1050 -0.1413 -1.7081
 2936TIP3   OH233002  -0.420  -2.510   3.154  0.1187 -0.4358 -0.2810
 2936TIP3    H133003  -0.442  -2.446   3.221 -1.9986 -1.9223  0.5557
 2936TIP3    H233004  -0.332  -2.540   3.178 -0.0592  0.0308  1.0335
 2937TIP3   OH233005   0.368   1.633   5.293 -0.1619 -0.2057  0.1260
 2937TIP3    H133006   0.334   1.617   5.381  0.7864 -0.4548  0.4624
 2937TIP3    H233007   0.432   1.564   5.278  0.8362  0.7345 -0.1235
 2938TIP3   OH233008  -0.223  -0.464   5.480 -0.2632 -0.4667  0.9119
 2938TIP3    H133009  -0.247  -0.557   5.484 -0.7471 -0.3709  0.2618
 2938TIP3    H233010  -0.305  -0.418   5.465  0.2796 -0.1608 -1.6200
 2939TIP3   OH233011  -0.174   0.934   3.220  0.2042  0.0591 -0.1133
 2939TIP3    H133012  -0.243   0.926   3.154 -0.6765 -4.2026  1.0426
 2939TIP3    H233013  -0.195   1.015   3.267 -2.3807  0.3313 -1.5471
 2940TIP3   OH233014   1.682   0.626   3.053  0.0308  0.6003 -0.5173
 2940TIP3    H133015   1.708   0.695   2.991  1.7117 -0.8607 -1.5229
 2940TIP3    H233016   1.760   0.612   3.107 -0.3988 -0.3013 -0.1201
 2941TIP3   OH233017   1.512  -3.220   4.231 -0.2576 -0.0700  0.3338
 2941TIP3    H133018   1.506  -3.289   4.297 -0.2328 -1.0576 -0.6682
 2941TIP3    H233019   1.601  -3.226   4.198 -1.1047 -1.5899 -1.8595
 2942TIP3   OH233020   3.000  -0.443   4.497 -0.7184 -0.7566 -0.5340
 2942TIP3    H133021   3.006  -0.370   4.434 -0.5741 -1.5207 -1.4289
 2942TIP3    H233022   3.067  -0.424   4.562 -0.3322 -0.3468 -1.0367
 2943TIP3   OH233023  -0.547  -0.562   4.579  0.3007  0.0551 -0.0883
 2943TIP3    H133024  -0.518  -0.486   4.529  0.7331  0.0672  0.1708
 2943TIP3    H233025  -0.528  -0.539   4.670 -0.8422  0.1957  0.1258
 2944TIP3   OH233026  -1.713   0.272   2.781  0.1468  0.4432  0.5489
 2944TIP3    H133027  -1.724   0.240   2.691  1.0033 -0.4247  0.7377
 2944TIP3    H233028  -1.711   0.367   2.772 -0.4452  0.3984 -0.2660
 2945TIP3   OH233029  -1.636   0.862   3.722  0.1433 -0.0484  0.2804
 2945TIP3    H133030  -1.717   0.902   3.755  0.5907  0.3727  0.8888
 2945TIP3    H233031  -1.571   0.931   3.729  0.6840 -0.5563  0.3005
 2946TIP3   OH233032   0.075  -2.966   4.902  0.4635 -0.4161 -0.1167
 2946TIP3    H133033   0.034  -3.010   4.828 -0.1551  0.5251 -0.3553
 2946TIP3    H233034   0.167  -2.989   4.897  0.3719 -0.6068 -1.0036
 2947TIP3   OH233035   0.144  -1.476   4.469  0.5251 -0.2031  0.1491
 2947TIP3    H133036   0.175  -1.387   4.453  0.3538 -0.2942 -0.7957
 2947TIP3    H233037   0.052  -1.466   4.490  0.3895 -0.1755 -0.4195
 2948TIP3   OH233038   1.962  -1.212   5.828 -0.1651 -0.7125 -0.1037
 2948TIP3    H133039   1.990  -1.124   5.802  0.6690 -1.2800 -1.1883
 2948TIP3    H233040   2.037  -1.247   5.876 -0.0825 -1.2257 -0.6094
 2949TIP3   OH233041   2.289   0.217   5.728 -0.9827  0.1084 -0.5586
 2949TIP3    H133042   2.355   0.188   5.791 -1.8323 -0.6387  0.0105
 2949TIP3    H233043   2.336   0.220   5.644  0.2297  1.3915  0.1364
 2950TIP3   OH233044  -2.026  -2.199   5.853  0.8114  0.0482  0.5031
 2950TIP3    H133045  -2.111  -2.164   5.827  1.0176 -0.1949 -0.5111
 2950TIP3    H233046  -1.966  -2.125   5.845  0.8248  0.0462  0.5790
 2951TIP3   OH233047   0.722  -0.090   4.244 -0.2220 -0.2834  0.1576
 2951TIP3    H133048   0.638  -0.123   4.276 -0.1891 -0.2204  0.3103
 2951TIP3    H233049   0.773  -0.075   4.324 -0.5007  0.8695  0.1286
 2952TIP3   OH233050  -3.153   2.007   3.319  0.2832  0.2864 -0.1225
 2952TIP3    H133051  -3.184   2.034   3.406 -0.6581 -0.3324 -0.2518
 2952TIP3    H233052  -3.121   2.089   3.279  2.9804  0.2009  1.6546
 2953TIP3   OH233053  -0.601  -1.242   3.590  0.2767 -0.0457 -0.3392
 2953TIP3    H133054  -0.583  -1.156   3.629 -0.5570  0.2898 -0.6476
 2953TIP3    H233055  -0.578  -1.305   3.657 -0.8243  0.5040  0.5913
 2954TIP3   OH233056   0.712   0.126   5.518  0.1639 -0.3699 -0.6566
 2954TIP3    H133057   0.629   0.079   5.505 -0.2183  0.2570 -0.5353
 2954TIP3    H233058   0.751   0.087   5.595  0.2280 -1.0145 -1.0091
 2955TIP3   OH233059   0.204  -1.383   3.796  0.1234 -0.7991  0.0626
 2955TIP3    H133060   0.253  -1.450   3.747  2.0279 -0.4828  1.4078
 2955TIP3    H233061   0.237  -1.300   3.763  0.7221 -0.5823  1.1357
 2956TIP3   OH233062  -1.071   1.894   5.142  0.2039  0.2511 -0.1189
 2956TIP3    H133063  -1.155   1.932   5.116  0.0926 -0.4893 -0.8594
 2956TIP3    H233064  -1.088   1.800   5.148  0.9169  0.1266 -0.0039
 2957TIP3   OH233065  -0.421  -3.238   2.937 -0.3229 -0.0432 -0.2365
 2957TIP3    H133066  -0.446  -3.243   3.029 -0.3740 -0.2386 -0.2597
 2957TIP3    H233067  -0.481  -3.298   2.893 -1.0527  0.9042 -0.5628
 2958TIP3   OH233068  -1.324  -2.346   5.555 -0.0976  0.2164 -0.1140
 2958TIP3    H133069  -1.256  -2.281   5.572  0.4364 -0.3998  0.1501
 2958TIP3    H233070  -1.277  -2.429   5.551 -0.7148 -0.1067 -0.8787
 2959TIP3   OH233071   2.227  -0.269   5.562  0.2743  0.0749  0.6135
 2959TIP3    H133072   2.222  -0.234   5.472 -0.3754 -0.4515  0.4382
 2959TIP3    H233073   2.188  -0.200   5.616 -0.4769 -0.1293  0.3392
 2960TIP3   OH233074   0.119  -1.381   3.182 -0.1997 -0.4103 -0.1151
 2960TIP3    H133075   0.034  -1.345   3.207  0.3018  0.9908 -0.2842
 2960TIP3    H233076   0.174  -1.370   3.260  0.3207  0.4429 -0.5805
 2961TIP3   OH233077   2.609   0.365   5.842  0.1923  0.0641  0.3412
 2961TIP3    H133078   2.695   0.397   5.869  1.0112 -2.2061  0.5966
 2961TIP3    H233079   2.570   0.439   5.794  1.7290  1.5796  1.3142
 2962TIP3   OH233080  -1.327   0.284   5.554  0.1985 -0.3041  0.2604
 2962TIP3    H133081  -1.396   0.338   5.593  0.1332 -1.0973  1.2951
 2962TIP3    H233082  -1.373   0.218   5.503  0.2835  0.7009 -1.1702
 2963TIP3   OH233083  -2.453  -1.071   3.319 -0.1288 -0.2186  0.2772
 2963TIP3    H133084  -2.398  -1.002   3.280  0.3059 -0.1807  0.9304
 2963TIP3    H233085  -2.464  -1.043   3.410 -0.4409 -0.7158  0.3914
 2964TIP3   OH233086  -2.876   3.107   2.881  0.1661  0.4697 -0.0869
 2964TIP3    H133087  -2.923   3.078   2.802  0.9207 -0.0065 -0.3739
 2964TIP3    H233088  -2.898   3.041   2.947  0.9476 -0.1488 -0.4151
 2965TIP3   OH233089   0.083  -2.114   5.645 -0.2726 -0.2300  0.2512
 2965TIP3    H133090   0.004  -2.138   5.597 -1.2504  0.3649  1.4892
 2965TIP3    H233091   0.094  -2.185   5.709  0.5767 -0.6301 -0.3226
 2966TIP3   OH233092  -1.859  -1.592   3.938  0.1369  0.3458 -0.2071
 2966TIP3    H133093  -1.824  -1.538   4.010  0.9106  0.2022 -0.4591
 2966TIP3    H233094  -1.865  -1.680   3.976  0.8605  0.2027 -0.4010
 2967TIP3   OH233095  -1.631  -2.102   4.048 -0.8094 -0.1325  0.4067
 2967TIP3    H133096  -1.670  -2.071   3.966  0.2558  2.8190  0.8726
 2967TIP3    H233097  -1.539  -2.076   4.042 -0.8443  0.7566  2.7541
 2968TIP3   OH233098   3.289  -1.231   5.673  0.6259  0.1362  0.2732
 2968TIP3    H133099   3.231  -1.158   5.693  0.4430  0.8157 -2.3341
 2968TIP3    H233100   3.371  -1.191   5.648  0.6357 -0.5252 -0.8561
 2969TIP3   OH233101   3.349   1.171   3.402  0.8100 -0.2073  0.0163
 2969TIP3    H133102   3.258   1.147   3.384 -0.2215  1.8490  1.9535
 2969TIP3    H233103   3.359   1.258   3.362  1.5686  0.0286  0.6867
 2970TIP3   OH233104  -2.691  -2.949   5.143 -0.0661  0.5708 -0.1173
 2970TIP3    H133105  -2.670  -2.975   5.232 -1.1253  0.1593  0.0172
 2970TIP3    H233106  -2.700  -2.853   5.148  1.3668  0.7320 -0.1142
 2971TIP3   OH233107   1.643  -2.875   5.848  0.1969 -0.0728 -0.1020
 2971TIP3    H133108   1.670  -2.894   5.758 -1.7019 -0.8213 -0.5829
 2971TIP3    H233109   1.610  -2.959   5.881 -0.9034  0.6061  0.6087
 2972TIP3   OH233110   0.513  -1.240   4.610  0.3482 -0.8246  0.4693
 2972TIP3    H133111   0.566  -1.282   4.543  1.5669 -0.2553  1.0459
 2972TIP3    H233112   0.562  -1.254   4.691  1.8987  3.2764  0.4813
 2973TIP3   OH233113  -0.161   0.553   4.640 -0.4352  0.1354  0.1039
 2973TIP3    H133114  -0.235   0.613   4.655 -0.5543  1.4031 -4.2319
 2973TIP3    H233115  -0.201   0.473   4.607 -0.0445 -1.2470  2.7300
 2974TIP3   OH233116  -0.236  -1.032   5.500 -0.1599  0.1011  0.4444
 2974TIP3    H133117  -0.162  -1.051   5.441 -0.2427 -2.3355  1.0164
 2974TIP3    H233118  -0.252  -1.115   5.546 -2.0582  1.0929  1.7056
 2975TIP3   OH233119  -1.221  -2.433   3.156 -0.2348 -0.3244  0.5434
 2975TIP3    H133120  -1.291  -2.480   3.202 -0.5344  0.9467  1.4491
 2975TIP3    H233121  -1.197  -2.362   3.215 -0.1320  0.9583 -0.9568
 2976TIP3   OH233122  -0.505  -2.990   3.369 -0.0583  0.4071  0.2814
 2976TIP3    H133123  -0.484  -3.056   3.436 -1.2908 -1.3712 -0.9952
 2976TIP3    H233124  -0.420  -2.965   3.333  0.4424 -0.4278  0.8423
 2977TIP3   OH233125   2.151   1.948   2.507 -0.0197  0.3262  0.1127
 2977TIP3    H133126   2.172   1.903   2.426 -2.7571  0.7151 -0.9358
 2977TIP3    H233127   2.156   2.041   2.486 -0.9859  0.4317  0.2722
 2978TIP3   OH233128  -1.316   0.515   5.138  0.4876 -0.1926  0.1325
 2978TIP3    H133129  -1.274   0.437   5.176 -1.0240 -0.9963  0.2302
 2978TIP3    H233130  -1.357   0.558   5.213  0.1313 -0.0746 -0.1295
 2979TIP3   OH233131  -2.048   2.444   5.731 -0.1282  0.5385  0.0681
 2979TIP3    H133132  -2.143   2.448   5.743  0.0125  0.1179  1.4609
 2979TIP3    H233133  -2.033   2.357   5.693 -0.3616  0.9358 -0.9650
 2980TIP3   OH233134   1.543   1.804   3.072 -0.0157  0.5540  0.4397
 2980TIP3    H133135   1.573   1.880   3.122  0.1835  0.5806  0.2835
 2980TIP3    H233136   1.550   1.730   3.132  2.5704  0.1488 -0.2630
 2981TIP3   OH233137   3.064   1.105   5.856  0.0335  0.1812  0.0090
 2981TIP3    H133138   3.008   1.043   5.903 -0.5768  0.1622 -0.7284
 2981TIP3    H233139   3.128   1.050   5.811  1.0013  0.2329  1.2894
 2982TIP3   OH233140  -2.592  -2.615   2.254 -0.0193 -0.3692  0.1904
 2982TIP3    H133141  -2.552  -2.647   2.173  2.0583 -0.6114  1.2433
 2982TIP3    H233142  -2.645  -2.540   2.227  1.5101  0.2361 -1.2416
 2983TIP3   OH233143   1.371  -1.661   4.789 -0.4985 -0.4336  0.1357
 2983TIP3    H133144   1.422  -1.742   4.779 -1.7333 -1.1332 -0.7141
 2983TIP3    H233145   1.397  -1.608   4.713  0.2246 -0.0598  0.6303
 2984TIP3   OH233146   0.664   0.590   4.751  0.5423 -0.7264 -0.1682
 2984TIP3    H133147   0.608   0.656   4.709  1.7135 -0.3247 -1.1468
 2984TIP3    H233148   0.607   0.549   4.815 -0.9906 -0.5557 -1.3462
 2985TIP3   OH233149  -1.983  -1.751   4.576  0.4529  0.0241 -0.6878
 2985TIP3    H133150  -2.034  -1.699   4.638  1.9265  2.3275 -1.2523
 2985TIP3    H233151  -1.958  -1.829   4.624 -0.4498  0.6275  0.8103
 2986TIP3   OH233152   3.225   1.837   4.568  0.1486  0.2088 -0.0789
 2986TIP3    H133153   3.318   1.851   4.550  0.2106 -0.4398 -0.2749
 2986TIP3    H233154   3.185   1.830   4.481 -0.0628  0.3484  0.0075
 2987TIP3   OH233155   1.822  -2.505   5.952 -0.2173 -0.6278  0.2936
 2987TIP3    H133156   1.909  -2.472   5.927 -0.5087  1.1862  1.5234
 2987TIP3    H233157   1.821  -2.500   6.047 -1.1240 -2.1540  0.3941
 2988TIP3   OH233158   1.880   1.385   3.629 -0.8004  0.2260 -0.6007
 2988TIP3    H133159   1.932   1.307   3.613  1.0039  1.1481  0.3970
 2988TIP3    H233160   1.847   1.373   3.718  0.1251  0.8905 -0.1438
 2989TIP3   OH233161  -0.452   1.765   2.639 -0.3754 -0.3916  0.6646
 2989TIP3    H133162  -0.417   1.695   2.583  0.1113 -0.2094  0.7367
 2989TIP3    H233163  -0.430   1.846   2.592  0.4135 -0.2166  1.3221
 2990TIP3   OH233164  -0.925   2.767   5.226 -0.8432  0.3580 -0.1038
 2990TIP3    H133165  -0.968   2.681   5.220  1.0759 -0.7729  1.3642
 2990TIP3    H233166  -0.972   2.812   5.296  1.1818 -1.4905  2.6415
 2991TIP3   OH233167   2.221  -1.202   5.537 -0.2065  0.1284 -0.5511
 2991TIP3    H133168   2.189  -1.142   5.605  1.2301  1.1353 -0.7018
 2991TIP3    H233169   2.172  -1.178   5.459 -0.6415  0.1467 -0.2754
 2992TIP3   OH233170   1.427  -0.270   3.093  0.1480  0.1574  0.0765
 2992TIP3    H133171   1.353  -0.330   3.093  0.0471  0.2815 -0.1142
 2992TIP3    H233172   1.390  -0.186   3.068  0.0227  0.6376  1.7490
 2993TIP3   OH233173   0.951  -1.029   4.052  0.0626  0.0330  0.5921
 2993TIP3    H133174   1.042  -1.058   4.043  0.6842  2.0622 -0.2651
 2993TIP3    H233175   0.900  -1.111   4.058  1.7823 -1.1810 -0.4465
 2994TIP3   OH233176  -2.161   0.673   2.948 -0.1668 -0.7170 -0.2304
 2994TIP3    H133177  -2.128   0.665   2.859 -2.2472 -1.2806 -1.0182
 2994TIP3    H233178  -2.168   0.768   2.963  1.6377 -0.5905 -0.0547
 2995TIP3   OH233179   2.959   2.693   3.544 -0.3497  0.0538  0.5011
 2995TIP3    H133180   2.942   2.602   3.569 -1.3469  0.0646 -0.0827
 2995TIP3    H233181   2.903   2.745   3.601  0.1403  0.3065  0.7616
 2996TIP3   OH233182  -0.323   2.289   5.357  0.2027  0.0972  0.0144
 2996TIP3    H133183  -0.385   2.218   5.368 -1.7392  1.4968 -1.2110
 2996TIP3    H233184  -0.283   2.274   5.271  1.0757 -0.4156  0.4948
 2997TIP3   OH233185  -2.131  -0.666   5.002 -0.0101 -0.2723 -0.9110
 2997TIP3    H133186  -2.048  -0.670   4.953  0.4444  0.2143 -0.2066
 2997TIP3    H233187  -2.127  -0.741   5.061  0.4591  0.3638 -0.0962
 2998TIP3   OH233188  -3.008   1.310   3.192  0.4403  0.6612 -0.3830
 2998TIP3    H133189  -3.009   1.242   3.259  1.2940 -1.8931 -2.7754
 2998TIP3    H233190  -2.990   1.264   3.111 -0.2522  3.6219 -2.3983
 2999TIP3   OH233191  -0.921  -3.144   4.583  0.1647  0.4890 -0.4264
 2999TIP3    H133192  -0.985  -3.209   4.555 -0.2608 -1.1052  3.6057
 2999TIP3    H233193  -0.839  -3.172   4.543 -0.3838 -1.5113 -0.2173
 3000TIP3   OH233194  -0.004   3.124   5.194 -0.6472 -0.2517 -0.5435
 3000TIP3    H133195   0.058   3.123   5.267 -0.5766  2.6507 -0.4230
 3000TIP3    H233196   0.022   3.051   5.138  1.1190 -0.7943  0.9116
 3001TIP3   OH233197   3.343  -2.171   5.532  0.1067  0.3137 -0.6013
 3001TIP3    H133198   3.425  -2.121   5.531 -0.3116  1.0168 -1.0661
 3001TIP3    H233199   3.280  -2.114   5.487 -0.3719 -0.6752 -1.2057
 3002TIP3   OH233200   2.381  -0.206   3.544 -0.0218 -0.1458 -0.1981
 3002TIP3    H133201   2.429  -0.286   3.522  0.6239  0.0269  0.5220
 3002TIP3    H233202   2.396  -0.195   3.638  0.1269  0.9717 -0.3420
 3003TIP3   OH233203  -2.086   0.629   5.028 -0.5629  0.0838 -0.1117
 3003TIP3    H133204  -2.074   0.540   5.061 -0.2450  1.1267  2.8508
 3003TIP3    H233205  -2.002   0.652   4.989 -1.4475 -1.7671 -3.4980
 3004TIP3   OH233206  -1.163   1.510   2.870  0.1198 -0.1436 -0.4459
 3004TIP3    H133207  -1.081   1.543   2.833  0.9440 -2.4701 -0.8874
 3004TIP3    H233208  -1.227   1.519   2.800  0.3986  0.2055 -0.6568
 3005TIP3   OH233209   2.509   0.921   2.992 -0.2373  0.4641  0.0690
 3005TIP3    H133210   2.518   0.873   3.075  0.8434  2.5947  1.2841
 3005TIP3    H233211   2.599   0.944   2.968 -0.6027  0.5390 -1.3144
 3006TIP3   OH233212   1.529  -1.565   3.484  0.2931 -0.3549 -0.2836
 3006TIP3    H133213   1.555  -1.652   3.514 -0.0296 -1.5536 -3.2092
 3006TIP3    H233214   1.609  -1.512   3.489  0.8121 -1.1787  0.2595
 3007TIP3   OH233215   3.289   1.856   2.461  0.4778  0.4001 -0.8220
 3007TIP3    H133216   3.353   1.787   2.477 -1.8533 -1.2828  2.4280
 3007TIP3    H233217   3.227   1.818   2.398  0.5444  0.4786 -0.9344
 3008TIP3   OH233218  -2.022   1.629   4.794 -0.5724 -0.1567 -0.6745
 3008TIP3    H133219  -2.032   1.601   4.884 -0.1066  1.2018 -0.1668
 3008TIP3    H233220  -2.051   1.555   4.741 -0.2469 -1.1976  0.5809
 3009TIP3   OH233221  -2.128   2.019   5.072 -0.5301  0.2155  0.2875
 3009TIP3    H133222  -2.171   1.941   5.107 -2.8464  1.4804  0.4672
 3009TIP3    H233223  -2.093   1.992   4.988  1.1227 -1.6792  1.5037
 3010TIP3   OH233224  -1.526   3.052   4.534  0.0559 -0.6476  0.0479
 3010TIP3    H133225  -1.520   2.974   4.590 -2.3775 -0.1426  1.1179
 3010TIP3    H233226  -1.588   3.109   4.578  0.7076  1.3324 -1.4350
 3011TIP3   OH233227  -2.013   1.806   5.378 -0.0760  0.1618  0.2456
 3011TIP3    H133228  -2.073   1.880   5.369 -0.2806  0.0533  0.7117
 3011TIP3    H233229  -1.972   1.818   5.464  1.3804  0.8297 -0.5113
 3012TIP3   OH233230   1.988   3.086   2.289 -0.3112 -0.2804  0.1217
 3012TIP3    H133231   1.981   3.011   2.229 -1.1490 -0.8145  0.8546
 3012TIP3    H233232   1.908   3.081   2.342 -1.6072  2.5330 -1.3568
 3013TIP3   OH233233   0.749   1.513   4.469  0.0714 -0.0938  0.5061
 3013TIP3    H133234   0.797   1.449   4.416  0.0638 -1.2514  1.8390
 3013TIP3    H233235   0.811   1.540   4.536  0.2960  1.8709 -0.4170
 3014TIP3   OH233236  -1.619  -1.167   5.292 -0.6510  0.3027  0.1085
 3014TIP3    H133237  -1.562  -1.091   5.294 -0.8426  0.4394  0.4736
 3014TIP3    H233238  -1.561  -1.241   5.277 -0.5109  0.5652 -0.6983
 3015TIP3   OH233239  -0.501  -0.631   4.138  0.5791 -0.3859  0.5512
 3015TIP3    H133240  -0.551  -0.549   4.134  0.6511 -0.4025 -1.4858
 3015TIP3    H233241  -0.413  -0.604   4.165  0.3920  0.0982  0.6914
 3016TIP3   OH233242  -1.113   3.276   2.463 -0.4849 -0.0984  0.3560
 3016TIP3    H133243  -1.169   3.218   2.411 -0.7092 -0.2452  0.7555
 3016TIP3    H233244  -1.033   3.284   2.412 -0.5178 -0.6193  0.2164
 3017TIP3   OH233245   1.406  -0.211   5.364  0.8149  0.3993  0.1095
 3017TIP3    H133246   1.460  -0.162   5.303  0.2651 -0.1847 -0.8825
 3017TIP3    H233247   1.461  -0.285   5.391  0.5442 -0.1762 -0.8722
 3018TIP3   OH233248  -1.540   0.992   4.706 -0.3377  0.0523  0.0062
 3018TIP3    H133249  -1.593   0.946   4.641  1.0990 -2.1127  0.2817
 3018TIP3    H233250  -1.602   1.015   4.776 -1.0596 -2.0334  0.1244
 3019TIP3   OH233251   0.129  -2.571   3.064  0.7695  0.0451 -0.1270
 3019TIP3    H133252   0.160  -2.558   3.154  1.2692  0.3859 -0.3461
 3019TIP3    H233253   0.208  -2.593   3.014  0.3618 -1.0698 -0.3092
 3020TIP3   OH233254  -0.695   3.157   5.615  0.0456  0.3497 -0.3275
 3020TIP3    H133255  -0.764   3.091   5.622  1.5540 -1.2947 -0.4791
 3020TIP3    H233256  -0.642   3.130   5.540  0.5912  1.8578 -0.5230
 3021TIP3   OH233257  -3.194   0.711   3.161 -0.4037  0.1342  0.2686
 3021TIP3    H133258  -3.178   0.778   3.227  0.3632 -0.8592  1.1022
 3021TIP3    H233259  -3.124   0.648   3.172 -1.2552 -0.9551 -0.3417
 3022TIP3   OH233260  -1.116   0.298   4.276 -0.1065  0.6800  0.3486
 3022TIP3    H133261  -1.206   0.304   4.307  0.2004 -0.3203  1.5121
 3022TIP3    H233262  -1.072   0.242   4.339  1.0228  0.0634 -0.9176
 3023TIP3   OH233263   2.818   2.707   4.966  0.0835  0.1079  0.9288
 3023TIP3    H133264   2.731   2.668   4.966  0.4648 -0.7677  0.1056
 3023TIP3    H233265   2.870   2.653   5.026  0.3183  0.0380  0.6640
 3024TIP3   OH233266   0.381  -0.086   3.956 -0.1639  0.3240  0.6151
 3024TIP3    H133267   0.475  -0.085   3.938 -0.4003  0.5637 -0.7478
 3024TIP3    H233268   0.343  -0.034   3.885 -1.5336 -1.5492 -0.1039
 3025TIP3   OH233269  -2.193  -0.876   3.249 -0.1813 -0.3993 -0.8892
 3025TIP3    H133270  -2.106  -0.883   3.287 -0.4940  0.1101 -0.0438
 3025TIP3    H233271  -2.248  -0.845   3.320 -0.7756  0.6732 -1.7784
 3026TIP3   OH233272   2.000   2.983   5.396 -0.4974  0.3096  0.3873
 3026TIP3    H133273   1.974   3.046   5.464 -0.1327  0.3247  0.5131
 3026TIP3    H233274   1.947   3.007   5.320 -0.6988  0.4747  0.5782
 3027TIP3   OH233275   2.376   1.987   4.743  0.1991 -0.2244  0.2390
 3027TIP3    H133276   2.435   1.950   4.809 -0.8059 -1.0103  0.7330
 3027TIP3    H233277   2.385   2.082   4.754  1.8251 -0.3122 -0.1399
 3028TIP3   OH233278  -2.770   2.648   5.088  0.1769 -0.3016  0.3587
 3028TIP3    H133279  -2.717   2.719   5.124 -0.5282 -0.5577  1.9726
 3028TIP3    H233280  -2.731   2.568   5.124  0.6757 -0.7379 -1.0665
 3029TIP3   OH233281   1.317  -1.369   3.449 -0.9430  0.3028  0.2239
 3029TIP3    H133282   1.393  -1.428   3.446  0.0125  1.5075 -0.1701
 3029TIP3    H233283   1.349  -1.292   3.496 -2.3638  0.2612  1.3079
 3030TIP3   OH233284  -1.088   1.501   4.183  0.2511  0.0873 -0.4088
 3030TIP3    H133285  -1.088   1.420   4.132 -0.8560  0.4600 -1.0223
 3030TIP3    H233286  -1.174   1.540   4.167  0.3657  0.8601  0.7240
 3031TIP3   OH233287   2.941   0.308   2.591 -0.3436 -0.3590 -0.7250
 3031TIP3    H133288   2.880   0.378   2.613  2.0187  1.4173  0.7375
 3031TIP3    H233289   2.963   0.324   2.499  1.0431  1.7055 -0.1255
 3032TIP3   OH233290   3.080   3.047   3.493  0.6441 -0.0619 -0.1973
 3032TIP3    H133291   3.169   3.013   3.499  1.2537  1.2989 -0.9863
 3032TIP3    H233292   3.055   3.066   3.583  0.6954 -1.5193  0.1463
 3033TIP3   OH233293  -0.469  -0.320   4.443 -0.3492 -0.9179 -0.4599
 3033TIP3    H133294  -0.505  -0.251   4.387  0.7184 -0.7403 -0.9625
 3033TIP3    H233295  -0.376  -0.296   4.453 -0.6731 -0.4477  2.1401
 3034TIP3   OH233296   2.934  -2.386   2.128 -0.0524 -0.5317 -0.3523
 3034TIP3    H133297   3.011  -2.335   2.100  0.4123 -1.2027 -0.3291
 3034TIP3    H233298   2.892  -2.331   2.195  0.0182  0.1438 -0.8498
 3035TIP3   OH233299  -0.404  -1.343   3.388 -0.2072  0.0927  0.6177
 3035TIP3    H133300  -0.386  -1.416   3.448  0.3629  0.5507  1.0059
 3035TIP3    H233301  -0.460  -1.283   3.438  1.7593  1.3738  1.3694
 3036TIP3   OH233302   1.223  -0.345   4.199  0.2503 -0.8932 -0.1286
 3036TIP3    H133303   1.270  -0.271   4.239  1.2008 -1.7475  0.3810
 3036TIP3    H233304   1.183  -0.308   4.121 -1.0878  0.6694  1.2329
 3037TIP3   OH233305  -1.255   1.496   4.568  0.4822  0.8952 -0.1700
 3037TIP3    H133306  -1.165   1.530   4.569  1.1734 -0.8528 -0.3168
 3037TIP3    H233307  -1.290   1.524   4.483  1.3157  0.5456 -0.6414
 3038TIP3   OH233308   1.877   3.172   4.229  0.4756 -0.0184  1.0077
 3038TIP3    H133309   1.788   3.198   4.207  0.3928 -0.3705  0.9174
 3038TIP3    H233310   1.872   3.077   4.245  0.5654  0.1983  2.4189
 3039TIP3   OH233311  -0.489   0.020   3.348  0.1897 -0.1114 -0.0893
 3039TIP3    H133312  -0.514   0.112   3.341  1.4733  0.2919  0.2984
 3039TIP3    H233313  -0.526  -0.021   3.270  0.2728  0.8961 -0.6741
 3040TIP3   OH233314   1.362  -0.798   3.724 -0.4135  0.4727 -0.1193
 3040TIP3    H133315   1.309  -0.802   3.645 -0.7571  0.7804  0.0953
 3040TIP3    H233316   1.312  -0.744   3.785  0.3515  1.1518 -0.0717
 3041TIP3   OH233317   2.065   1.006   3.703 -0.4139  0.7496 -0.1556
 3041TIP3    H133318   2.018   1.035   3.781 -0.7401  0.4780 -0.2490
 3041TIP3    H233319   2.141   0.959   3.737  1.2236  3.3252  0.0362
 3042TIP3   OH233320  -2.504  -1.428   5.642  0.0335  0.4257 -0.5338
 3042TIP3    H133321  -2.411  -1.450   5.637  0.5694  1.2287  3.1208
 3042TIP3    H233322  -2.549  -1.505   5.606  2.0454 -0.1499 -1.9996
 3043TIP3   OH233323   1.553  -2.956   3.355 -0.3675 -0.1974 -0.9007
 3043TIP3    H133324   1.549  -3.001   3.439  0.4445 -0.1024 -0.8051
 3043TIP3    H233325   1.536  -2.864   3.376 -1.8568 -0.4062 -1.0740
 3044TIP3   OH233326  -0.964   2.492   5.409 -0.4393  0.1806  0.7953
 3044TIP3    H133327  -0.985   2.479   5.316  1.3652 -0.6572  0.4441
 3044TIP3    H233328  -0.988   2.409   5.451  0.8971 -0.3303  0.6078
 3045TIP3   OH233329   3.171  -0.407   2.575  0.1422  0.1941 -0.3995
 3045TIP3    H133330   3.218  -0.486   2.604  0.6777  0.8057  0.4584
 3045TIP3    H233331   3.140  -0.428   2.487  0.1177 -1.0363 -0.1099
 3046TIP3   OH233332  -0.044   1.603   3.965  0.2232  0.5893  0.1741
 3046TIP3    H133333  -0.048   1.512   3.935 -0.1137  0.4393  0.6715
 3046TIP3    H233334   0.005   1.599   4.047 -0.1877  0.7932  0.4303
 3047TIP3   OH233335   2.122   2.231   3.614 -0.0474 -0.6135  0.0782
 3047TIP3    H133336   2.216   2.217   3.627 -0.0247  0.2163  0.8757
 3047TIP3    H233337   2.089   2.254   3.700 -1.0210 -1.0339 -0.1702
 3048TIP3   OH233338   2.284  -2.600   5.662  0.0023 -0.2741  0.0109
 3048TIP3    H133339   2.293  -2.545   5.741 -0.1904 -0.8520  0.4435
 3048TIP3    H233340   2.193  -2.588   5.635  0.5646  1.4656 -1.2957
 3049TIP3   OH233341  -0.906  -0.870   4.612 -0.5657 -0.2392 -0.2874
 3049TIP3    H133342  -0.848  -0.835   4.679 -0.4902  0.3390 -0.6503
 3049TIP3    H233343  -0.847  -0.912   4.549 -0.5584  0.0888 -0.5028
 3050TIP3   OH233344  -0.167   1.975   5.100 -0.2508 -0.3797 -0.5653
 3050TIP3    H133345  -0.240   1.936   5.051 -0.7698  1.1239 -1.0381
 3050TIP3    H233346  -0.150   2.058   5.056  0.3991  0.2282  0.7779
 3051TIP3   OH233347   1.982  -1.902   3.726 -0.0755  0.3136 -0.1599
 3051TIP3    H133348   1.952  -1.890   3.816  0.6066 -0.4822  0.1948
 3051TIP3    H233349   2.072  -1.868   3.726 -0.1392  0.4906 -0.5925
 3052TIP3   OH233350  -0.457   1.478   3.581  0.2901  0.1357  0.0415
 3052TIP3    H133351  -0.385   1.503   3.639 -0.1152  1.3397  0.0411
 3052TIP3    H233352  -0.513   1.422   3.635  0.0237  1.0815  0.7616
 3053TIP3   OH233353  -2.142   0.669   4.123  0.5433 -0.4264  0.2157
 3053TIP3    H133354  -2.169   0.620   4.046 -0.4178  1.7770 -0.9151
 3053TIP3    H233355  -2.206   0.740   4.131  2.2188  1.0525  1.3819
 3054TIP3   OH233356  -2.950   2.347   4.066  0.3086 -0.3392  0.7632
 3054TIP3    H133357  -2.988   2.317   4.149  1.5339 -0.1804  1.3980
 3054TIP3    H233358  -2.974   2.439   4.060 -2.5936 -1.0705 -0.6971
 3055TIP3   OH233359  -1.503  -3.220   3.132  0.6137 -0.0063 -0.1766
 3055TIP3    H133360  -1.553  -3.210   3.051 -1.3865  0.2107  1.0343
 3055TIP3    H233361  -1.528  -3.305   3.166 -1.6720  1.4700  2.1638
 3056TIP3   OH233362  -0.427   2.861   4.444  0.1918 -0.1833 -0.1564
 3056TIP3    H133363  -0.473   2.875   4.527  0.0701  0.1716 -0.2832
 3056TIP3    H233364  -0.444   2.769   4.422  0.9373 -0.5305  0.6471
 3057TIP3   OH233365   1.421  -2.827   4.710  0.6752 -0.0148  0.1491
 3057TIP3    H133366   1.353  -2.784   4.657  1.3701  1.5326  0.4730
 3057TIP3    H233367   1.464  -2.756   4.756  2.8219 -0.9148 -0.3652
 3058TIP3   OH233368  -0.300  -1.710   2.918 -0.2747  0.2325  0.7307
 3058TIP3    H133369  -0.272  -1.802   2.917 -1.5874 -0.2318 -1.9501
 3058TIP3    H233370  -0.375  -1.709   2.978  0.3236 -0.2119  1.5125
 3059TIP3   OH233371   0.243   2.748   4.572 -0.0414  0.0524 -0.4285
 3059TIP3    H133372   0.271   2.763   4.482  1.3780 -1.8792 -0.3625
 3059TIP3    H233373   0.322   2.718   4.617 -0.6905  1.0754  1.5110
 3060TIP3   OH233374  -3.237   0.388   3.378 -0.0904 -0.0707 -0.1778
 3060TIP3    H133375  -3.319   0.348   3.406 -1.1585  1.1260 -1.3994
 3060TIP3    H233376  -3.224   0.355   3.289 -0.5210  1.5272 -0.8684
 3061TIP3   OH233377  -1.633  -0.081   3.591  0.2421 -0.0230  0.6890
 3061TIP3    H133378  -1.596  -0.103   3.505 -1.4910 -2.8294  0.5277
 3061TIP3    H233379  -1.717  -0.041   3.572 -0.5245 -1.4057  1.0047
 3062TIP3   OH233380  -2.564  -0.838   3.970 -0.1904 -0.2074 -0.5841
 3062TIP3    H133381  -2.631  -0.906   3.969 -0.1719 -0.2222 -0.7389
 3062TIP3    H233382  -2.511  -0.859   4.048  0.5784 -1.1136 -1.3202
 3063TIP3   OH233383  -3.165   0.023   2.942  0.2796  0.0083 -0.3404
 3063TIP3    H133384  -3.077   0.059   2.929  0.2402 -0.3772 -1.8682
 3063TIP3    H233385  -3.196   0.065   3.021  2.5126 -1.1653  1.2759
 3064TIP3   OH233386  -2.169   2.656   4.594 -0.4333  0.0758  0.4507
 3064TIP3    H133387  -2.135   2.744   4.611 -0.1626  0.6173 -2.3126
 3064TIP3    H233388  -2.264   2.665   4.603 -0.3294  0.2793  1.4992
 3065TIP3   OH233389  -3.037   3.151   4.743 -0.3918 -0.4284  0.9057
 3065TIP3    H133390  -3.076   3.141   4.657 -0.1894 -0.5601  0.8289
 3065TIP3    H233391  -3.096   3.105   4.802 -0.3655 -0.6104  0.7918
 3066TIP3   OH233392   0.679   2.708   4.382 -0.4558  0.1498  0.0297
 3066TIP3    H133393   0.619   2.765   4.334  0.3148 -0.9613 -2.4130
 3066TIP3    H233394   0.708   2.761   4.456 -1.2479  2.2078 -1.0494
 3067TIP3   OH233395  -1.425   2.361   3.183 -0.0231  0.1068  0.6526
 3067TIP3    H133396  -1.472   2.287   3.145  0.7863 -1.4082  2.4291
 3067TIP3    H233397  -1.463   2.371   3.271 -1.1597  2.8339 -0.0720
 3068TIP3   OH233398   1.776  -0.327   2.122  0.0612 -0.0276 -0.4220
 3068TIP3    H133399   1.778  -0.422   2.109 -0.6526  0.1476 -2.0530
 3068TIP3    H233400   1.844  -0.311   2.187  0.6063 -1.5927 -0.5493
 3069TIP3   OH233401   2.167   1.587   4.884 -0.0499  0.2521 -0.0099
 3069TIP3    H133402   2.131   1.561   4.799 -1.6404  2.9298 -0.2774
 3069TIP3    H233403   2.098   1.566   4.947 -0.8044  2.3017 -0.0596
 3070TIP3   OH233404  -0.573  -0.978   2.664  0.5305 -0.2748 -0.6740
 3070TIP3    H133405  -0.538  -0.896   2.628  0.9165 -0.8987 -1.7864
 3070TIP3    H233406  -0.559  -0.971   2.758  1.0187  0.7234 -0.8063
 3071TIP3   OH233407  -1.896   0.778   2.500  0.6052  0.0980  0.5931
 3071TIP3    H133408  -1.933   0.690   2.499 -1.7553  1.0303  0.3735
 3071TIP3    H233409  -1.873   0.797   2.409  0.4831 -0.0354  0.5367
 3072TIP3   OH233410   1.123  -1.396   4.631 -0.1741 -0.4856  0.5841
 3072TIP3    H133411   1.049  -1.391   4.691  0.4768  0.9801  1.3306
 3072TIP3    H233412   1.198  -1.371   4.684  0.4667  0.5707 -0.7461
 3073TIP3   OH233413   0.356   2.998   2.912 -0.0472 -0.0669 -0.2307
 3073TIP3    H133414   0.335   2.976   2.821  0.7324 -0.4853 -0.3164
 3073TIP3    H233415   0.404   2.922   2.944 -0.1006  0.1896  0.4536
 3074TIP3   OH233416  -2.829  -0.443   5.165 -0.6293  0.1106  0.0272
 3074TIP3    H133417  -2.859  -0.525   5.204 -1.4530  0.4094  0.0397
 3074TIP3    H233418  -2.898  -0.420   5.102  0.5723 -0.2671 -1.4981
 3075TIP3   OH233419  -1.279   3.029   2.401 -0.0317  0.1012  0.6597
 3075TIP3    H133420  -1.368   2.997   2.384  0.1605 -0.1494  0.0905
 3075TIP3    H233421  -1.232   2.952   2.433  0.4639 -0.2512 -0.8234
 3076TIP3   OH233422   1.853  -0.992   5.420  0.2570  0.1030 -0.3437
 3076TIP3    H133423   1.788  -1.060   5.401  0.4687  0.4500 -2.5933
 3076TIP3    H233424   1.903  -1.027   5.494 -0.1352 -1.8492 -0.9301
 3077TIP3   OH233425  -3.278   1.824   2.735  0.1774  0.0230  0.2825
 3077TIP3    H133426  -3.207   1.771   2.772 -2.1931 -1.4575  3.1091
 3077TIP3    H233427  -3.289   1.791   2.646  1.1897 -1.6816  0.7461
 3078TIP3   OH233428  -1.460   0.216   2.862 -1.0768 -0.2342 -0.1222
 3078TIP3    H133429  -1.475   0.126   2.836 -1.9583 -0.7091  1.8468
 3078TIP3    H233430  -1.544   0.260   2.846 -1.3937 -0.3586  1.0378
 3079TIP3   OH233431  -0.707   0.256   4.054  0.9741 -0.3002  0.2288
 3079TIP3    H133432  -0.700   0.328   3.991  1.1713  0.3818  1.0135
 3079TIP3    H233433  -0.747   0.185   4.004 -0.1591  0.6652 -0.2994
 3080TIP3   OH233434   2.864  -0.698   3.661  0.7497 -0.2295 -0.4223
 3080TIP3    H133435   2.874  -0.612   3.701  0.8908 -0.4168 -0.0570
 3080TIP3    H233436   2.950  -0.739   3.669  0.4048 -0.8163  0.3650
 3081TIP3   OH233437  -3.194  -2.441   3.644 -0.3570  0.2001 -0.0482
 3081TIP3    H133438  -3.263  -2.484   3.695 -0.9728  1.2530  0.0420
 3081TIP3    H233439  -3.148  -2.512   3.600 -1.5514 -0.5262 -0.1602
 3082TIP3   OH233440   0.867  -2.548   4.884  0.2774  0.4478  0.3254
 3082TIP3    H133441   0.932  -2.539   4.954  0.3265 -1.5780  0.6232
 3082TIP3    H233442   0.809  -2.473   4.895  0.5371  0.4165  2.3068
 3083TIP3   OH233443  -1.082  -1.895   2.549 -0.4497  0.1193 -0.0915
 3083TIP3    H133444  -1.122  -1.878   2.635  0.4280  1.0436  0.1590
 3083TIP3    H233445  -1.149  -1.868   2.486 -0.6138  0.6967  0.3144
 3084TIP3   OH233446   0.810   1.506   5.298  0.2504  0.5801  0.1584
 3084TIP3    H133447   0.729   1.485   5.252 -0.6575  2.7859  0.6409
 3084TIP3    H233448   0.875   1.516   5.228  0.1957 -1.3336 -0.2249
 3085TIP3   OH233449  -1.937   0.377   5.664  0.0475  0.1483  0.2486
 3085TIP3    H133450  -1.937   0.287   5.632  3.5599  0.1949 -0.3439
 3085TIP3    H233451  -2.007   0.421   5.616 -0.0811 -1.6917 -1.3369
 3086TIP3   OH233452   1.600   1.885   3.476 -0.8083 -0.1671  0.0243
 3086TIP3    H133453   1.562   1.900   3.563 -1.2098 -2.8136  0.3958
 3086TIP3    H233454   1.691   1.859   3.494 -0.4835  0.5960 -0.4671
 3087TIP3   OH233455  -1.500  -1.580   4.734  0.1137  0.1037  0.6667
 3087TIP3    H133456  -1.466  -1.506   4.785  0.1816 -0.4682  1.4761
 3087TIP3    H233457  -1.421  -1.627   4.706  0.0826  0.5236 -0.1402
 3088TIP3   OH233458  -1.470  -1.410   2.542  0.0261 -0.7383  0.4440
 3088TIP3    H133459  -1.534  -1.348   2.506  0.6227  0.2803  1.0872
 3088TIP3    H233460  -1.451  -1.470   2.470 -1.3454 -0.8173  0.1175
 3089TIP3   OH233461  -3.105   1.090   3.923  0.3588  0.2326  0.0526
 3089TIP3    H133462  -3.054   1.127   3.851 -1.4942  0.9704 -0.9399
 3089TIP3    H233463  -3.129   1.002   3.893 -1.7770  1.1219 -0.9969
 3090TIP3   OH233464  -2.726  -2.179   2.507  0.4350 -0.1868  0.3870
 3090TIP3    H133465  -2.643  -2.169   2.461  0.5455 -1.0763  0.3687
 3090TIP3    H233466  -2.793  -2.157   2.442  0.6082 -0.9693 -0.0668
 3091TIP3   OH233467  -2.842  -2.007   4.535  0.1908  0.2303  0.7102
 3091TIP3    H133468  -2.854  -1.920   4.496 -0.6379 -0.3807 -0.4429
 3091TIP3    H233469  -2.788  -2.054   4.473 -2.6408 -1.3500 -0.7484
 3092TIP3   OH233470   0.683  -2.618   3.947  0.3548 -0.2354  0.2396
 3092TIP3    H133471   0.725  -2.549   3.895 -1.9295  2.0226  1.2058
 3092TIP3    H233472   0.628  -2.665   3.884 -0.0952  0.5362  0.0510
 3093TIP3   OH233473  -2.936  -1.185   4.830  0.0588  0.0324 -0.2428
 3093TIP3    H133474  -2.887  -1.115   4.787 -0.7903  0.7264 -0.0947
 3093TIP3    H233475  -2.870  -1.231   4.882  0.5738  0.9091 -0.0975
 3094TIP3   OH233476   2.510   0.200   5.544  0.5615 -0.0449 -0.0575
 3094TIP3    H133477   2.556   0.261   5.602 -1.4538 -0.8842  2.6703
 3094TIP3    H233478   2.561   0.119   5.550  0.5649 -0.0195  0.2805
 3095TIP3   OH233479   0.382  -0.488   3.177 -0.2626  0.2144 -0.0553
 3095TIP3    H133480   0.324  -0.433   3.230  0.6179  0.5307  0.6128
 3095TIP3    H233481   0.466  -0.484   3.223 -0.0197 -1.2041 -0.3354
 3096TIP3   OH233482   2.437   3.131   3.428 -0.8508 -0.2201 -0.2038
 3096TIP3    H133483   2.452   3.220   3.461  0.4280 -0.1362 -0.9471
 3096TIP3    H233484   2.477   3.074   3.493  0.0506 -0.1455 -0.6836
 3097TIP3   OH233485   0.324  -2.424   4.175  0.5177  0.1681 -0.4832
 3097TIP3    H133486   0.414  -2.415   4.208  0.4975 -0.7588 -0.1293
 3097TIP3    H233487   0.327  -2.389   4.086  1.9344 -2.3700 -1.5497
 3098TIP3   OH233488  -2.008  -0.741   3.494 -0.2254  0.3099 -0.0491
 3098TIP3    H133489  -2.075  -0.804   3.522 -0.6242  0.1517 -1.2941
 3098TIP3    H233490  -2.057  -0.672   3.450  0.2384  1.3782  1.0650
 3099TIP3   OH233491   2.868  -2.251   3.505  0.0174  0.0450  0.1916
 3099TIP3    H133492   2.817  -2.331   3.515  0.5283 -0.3814 -0.5120
 3099TIP3    H233493   2.891  -2.249   3.412 -0.9099  1.5809 -0.0343
 3100TIP3   OH233494   0.998  -0.322   3.610 -0.1627  0.1086  0.0353
 3100TIP3    H133495   1.039  -0.390   3.557  0.2645 -0.6984  1.3659
 3100TIP3    H233496   1.055  -0.245   3.599 -0.8763  0.4189 -1.8066
 3101TIP3   OH233497   1.857  -0.690   4.364 -0.1258  0.3729  0.3534
 3101TIP3    H133498   1.799  -0.764   4.382  1.1399 -0.6264  0.5009
 3101TIP3    H233499   1.844  -0.672   4.271 -0.5612  0.0576  0.3501
 3102TIP3   OH233500  -0.584   2.561   5.535 -0.7162  0.3561 -0.1549
 3102TIP3    H133501  -0.578   2.571   5.440  1.9658 -0.8831 -0.2181
 3102TIP3    H233502  -0.591   2.466   5.548  0.7317  0.3760  0.9087
 3103TIP3   OH233503   0.268   1.338   4.922 -0.2793  0.0064  0.2574
 3103TIP3    H133504   0.322   1.264   4.897 -2.7975 -1.6702 -0.6187
 3103TIP3    H233505   0.252   1.386   4.841 -1.0438 -0.2187  0.2619
 3104TIP3   OH233506  -3.231   1.005   5.119 -0.1750 -0.4045 -0.3513
 3104TIP3    H133507  -3.136   0.999   5.134 -0.1477  1.1829  0.2724
 3104TIP3    H233508  -3.266   0.925   5.159  0.8224 -0.6547  0.0632
 3105TIP3   OH233509   1.748  -2.723   4.553  0.0370  0.3294  0.5993
 3105TIP3    H133510   1.679  -2.688   4.609  0.7578  1.8986  0.5705
 3105TIP3    H233511   1.827  -2.679   4.583  0.7879 -0.3512 -0.3168
 3106TIP3   OH233512  -1.610   3.103   4.018 -0.1295  0.5541  0.2588
 3106TIP3    H133513  -1.551   3.137   3.951  0.9542 -1.5087  0.0983
 3106TIP3    H233514  -1.569   3.129   4.101  0.4214  0.0539  0.1415
 3107TIP3   OH233515   2.603  -1.149   3.235  0.1319 -0.2091  0.4307
 3107TIP3    H133516   2.523  -1.183   3.274  0.7873 -2.0312  0.2934
 3107TIP3    H233517   2.609  -1.194   3.151  0.3239  1.3598 -0.4377
 3108TIP3   OH233518  -2.950   2.921   3.061 -0.3284  0.0521 -0.4211
 3108TIP3    H133519  -2.886   2.852   3.081  0.4600  0.3025 -1.9271
 3108TIP3    H233520  -3.031   2.873   3.046  0.1103 -0.5247 -1.0351
 3109TIP3   OH233521   3.159   2.631   5.759  0.3903  0.0827 -0.2461
 3109TIP3    H133522   3.094   2.637   5.830  0.7073  0.6940 -0.0026
 3109TIP3    H233523   3.107   2.639   5.679  0.0294 -0.6230 -0.0945
 3110TIP3   OH233524  -1.526   2.816   4.675  0.2791 -0.2138 -0.1144
 3110TIP3    H133525  -1.579   2.861   4.741 -1.5872 -0.0939 -1.6057
 3110TIP3    H233526  -1.499   2.735   4.717  1.4494  1.0624  1.7081
 3111TIP3   OH233527   2.115   0.166   3.217 -0.1371  0.1589 -0.3187
 3111TIP3    H133528   2.116   0.124   3.132 -0.9261  0.4720 -0.4874
 3111TIP3    H233529   2.093   0.096   3.279 -0.6269  0.1503 -0.5003
 3112TIP3   OH233530   0.035   0.677   2.807 -0.1451 -0.4740 -0.7164
 3112TIP3    H133531  -0.053   0.644   2.821  0.6890 -2.0287  1.2298
 3112TIP3    H233532   0.030   0.722   2.722 -2.6261 -1.0418 -0.9465
 3113TIP3   OH233533   2.293  -0.992   5.867  0.1320  0.0460 -0.2689
 3113TIP3    H133534   2.338  -0.952   5.792 -0.5485  1.6144  0.1275
 3113TIP3    H233535   2.236  -0.923   5.900 -1.6808 -1.5221 -0.0057
 3114TIP3   OH233536  -2.698  -1.805   1.955  0.0437  0.5856 -0.0875
 3114TIP3    H133537  -2.708  -1.883   1.900 -0.6591 -0.6541  1.6753
 3114TIP3    H233538  -2.668  -1.840   2.039  0.7681  2.3622  0.4218
 3115TIP3   OH233539  -1.894  -1.702   5.771 -0.1250  0.4652 -0.1841
 3115TIP3    H133540  -1.835  -1.640   5.728 -0.9880  0.5934 -1.2171
 3115TIP3    H233541  -1.982  -1.671   5.749 -0.5751 -0.8015 -0.2491
 3116TIP3   OH233542  -1.204   0.412   3.767  0.1719  0.3415  0.2889
 3116TIP3    H133543  -1.201   0.317   3.754  2.6681  0.4309 -0.2743
 3116TIP3    H233544  -1.283   0.440   3.721  0.2227 -1.2777 -0.8556
 3117TIP3   OH233545  -0.386  -2.080   4.245 -0.8630  0.7459  0.2816
 3117TIP3    H133546  -0.397  -2.025   4.167 -3.1637  1.3624  0.9528
 3117TIP3    H233547  -0.421  -2.165   4.219 -0.3235  0.5333  0.2365
 3118TIP3   OH233548  -0.978   1.110   5.177 -0.0202 -0.0391 -0.4023
 3118TIP3    H133549  -1.026   1.029   5.193  1.7800 -1.3195 -1.1636
 3118TIP3    H233550  -0.887   1.088   5.196  0.5929  1.6162 -1.2549
 3119TIP3   OH233551   2.614   2.944   3.521 -0.4606 -0.1149  0.6188
 3119TIP3    H133552   2.645   2.871   3.574 -3.1949 -2.1673 -0.3612
 3119TIP3    H233553   2.610   2.908   3.432 -2.1886  1.1101  0.1694
 3120TIP3   OH233554   3.297   1.182   2.393 -0.0624 -0.1096 -0.0680
 3120TIP3    H133555   3.325   1.096   2.361 -1.9167 -0.7077 -0.1945
 3120TIP3    H233556   3.255   1.223   2.318  0.1415  0.6239  0.2059
 3121TIP3   OH233557  -0.528  -2.362   3.413 -0.0063  0.7363 -0.1660
 3121TIP3    H133558  -0.488  -2.281   3.380  1.5256  1.0626  2.2067
 3121TIP3    H233559  -0.510  -2.360   3.508 -1.6120 -1.4691  0.2531
 3122TIP3   OH233560  -2.845  -2.797   2.943 -0.1931  0.0229 -0.2019
 3122TIP3    H133561  -2.936  -2.828   2.945 -0.8979  1.9447  1.6596
 3122TIP3    H233562  -2.814  -2.819   2.856 -1.9901 -1.9283 -0.4267
 3123TIP3   OH233563  -0.494   2.518   3.033 -0.1630 -0.0685 -0.1990
 3123TIP3    H133564  -0.402   2.546   3.030  0.1461 -0.9250  0.5759
 3123TIP3    H233565  -0.490   2.423   3.022 -1.0432 -0.0183 -1.0786
 3124TIP3   OH233566   0.640  -0.354   3.224  0.0575  0.3719  0.6786
 3124TIP3    H133567   0.661  -0.316   3.309  4.0955  0.1823 -0.0044
 3124TIP3    H233568   0.689  -0.301   3.161 -0.5090 -1.1997 -1.1983
 3125TIP3   OH233569   0.364   1.830   4.515  0.2080 -0.0333 -0.1264
 3125TIP3    H133570   0.422   1.761   4.547  1.1132 -0.4006 -2.4280
 3125TIP3    H233571   0.418   1.909   4.517  0.5221 -0.2010 -1.3991
 3126TIP3   OH233572   1.543  -0.691   4.327 -0.5761  0.0826  0.5686
 3126TIP3    H133573   1.611  -0.759   4.325 -0.2130  0.3879  1.4794
 3126TIP3    H233574   1.527  -0.677   4.421 -2.5683 -0.6226  0.3755
 3127TIP3   OH233575   0.609   2.881   5.814 -0.3021 -0.0124 -0.1733
 3127TIP3    H133576   0.515   2.900   5.809 -0.2728 -0.1671 -1.9368
 3127TIP3    H233577   0.651   2.960   5.780  0.1158 -0.5330 -0.8942
 3128TIP3   OH233578  -3.093  -2.261   4.499  0.3751  0.3883 -0.1265
 3128TIP3    H133579  -3.149  -2.210   4.440 -0.5578 -0.6777 -0.1984
 3128TIP3    H233580  -3.085  -2.346   4.456  0.4119 -0.1178  0.8584
 3129TIP3   OH233581   2.520   1.937   3.078 -0.2163  0.7117  0.2022
 3129TIP3    H133582   2.506   1.917   3.170 -1.2704  1.3582  0.2144
 3129TIP3    H233583   2.444   1.992   3.054  0.0498  0.5796 -1.0312
 3130TIP3   OH233584   1.296  -1.946   4.915  0.1488 -0.1266  0.0076
 3130TIP3    H133585   1.244  -1.890   4.858  0.2055 -0.4690 -0.3786
 3130TIP3    H233586   1.374  -1.967   4.864  1.6754  2.0213  1.2887
 3131TIP3   OH233587   1.463   3.100   4.734  0.2652  0.2067 -0.0621
 3131TIP3    H133588   1.530   3.063   4.677  1.0969  1.6357 -0.0438
 3131TIP3    H233589   1.512   3.145   4.803 -0.7200  0.7592  0.2942
 3132TIP3   OH233590   0.194  -2.510   3.330  0.3011 -0.1342  0.1738
 3132TIP3    H133591   0.188  -2.436   3.391 -0.2488  1.4988 -1.7639
 3132TIP3    H233592   0.288  -2.522   3.317  0.4512 -0.8517  1.6843
 3133TIP3   OH233593   3.086  -2.769   3.896  0.0684 -0.4603 -0.2089
 3133TIP3    H133594   3.111  -2.763   3.988 -0.6470  0.6032 -0.0589
 3133TIP3    H233595   3.016  -2.704   3.886  1.3346  0.7505 -1.9109
 3134TIP3   OH233596  -0.185  -0.373   5.786 -0.3702 -0.0134  0.0851
 3134TIP3    H133597  -0.249  -0.314   5.746 -1.0672 -2.1331 -2.2011
 3134TIP3    H233598  -0.137  -0.411   5.712 -0.1044 -2.4229  1.3754
 3135TIP3   OH233599  -2.829   2.739   5.703 -0.0321 -0.1254 -0.0468
 3135TIP3    H133600  -2.741   2.706   5.724  0.6455  0.6000 -1.6184
 3135TIP3    H233601  -2.859   2.684   5.631 -1.0417 -0.6170  0.7357
 3136TIP3   OH233602   1.172  -2.315   5.858  0.2364 -0.5778  0.1606
 3136TIP3    H133603   1.136  -2.234   5.894 -0.0648  0.0436 -1.4789
 3136TIP3    H233604   1.106  -2.345   5.795 -0.2893 -2.8424  1.6740
 3137TIP3   OH233605   2.328   2.562   5.022 -0.5244  0.4113  0.1250
 3137TIP3    H133606   2.248   2.527   5.061  0.0871 -2.0287 -0.6084
 3137TIP3    H233607   2.315   2.551   4.927  1.2578 -1.5758  0.0393
 3138TIP3   OH233608   0.590   1.670   4.304 -0.9853 -0.5634  0.5220
 3138TIP3    H133609   0.654   1.618   4.352 -0.1318  0.4547  0.5109
 3138TIP3    H233610   0.641   1.739   4.261 -1.7347 -1.3230 -1.7301
 3139TIP3   OH233611  -3.235  -3.122   5.065 -0.6313  0.1077 -0.2252
 3139TIP3    H133612  -3.206  -3.182   4.996  0.2526 -1.2609  1.2661
 3139TIP3    H233613  -3.163  -3.121   5.127 -1.8556  0.3829  1.2434
 3140TIP3   OH233614  -0.630  -2.291   5.408 -0.2569 -1.1903  0.3728
 3140TIP3    H133615  -0.625  -2.349   5.484 -1.4623  0.6743  1.9672
 3140TIP3    H233616  -0.723  -2.272   5.398  0.0118 -0.3627 -0.7703
 3141TIP3   OH233617  -0.823  -3.293   3.229  1.0294  0.3304 -0.1501
 3141TIP3    H133618  -0.749  -3.239   3.258  0.8385  0.5651 -0.0968
 3141TIP3    H233619  -0.868  -3.240   3.163  0.4405  0.5306  0.3960
 3142TIP3   OH233620  -2.935  -0.606   4.482 -0.3002 -0.6511  0.2038
 3142TIP3    H133621  -2.942  -0.516   4.451  0.7410 -0.2677  1.0127
 3142TIP3    H233622  -3.018  -0.647   4.457 -0.5532  0.3591 -0.6901
 3143TIP3   OH233623   0.135   2.847   5.326 -0.3956 -0.3913  0.7160
 3143TIP3    H133624   0.047   2.872   5.296  0.5545  1.9451 -0.4797
 3143TIP3    H233625   0.182   2.825   5.245  1.1033  2.1166  0.7684
 3144TIP3   OH233626   0.488   0.199   2.904 -0.2225 -0.2746 -0.5549
 3144TIP3    H133627   0.485   0.107   2.931 -1.1481  0.2183  1.2042
 3144TIP3    H233628   0.453   0.199   2.815 -0.8346 -1.5589 -0.3339
 3145TIP3   OH233629   1.180  -3.270   3.386 -0.1224 -0.4771  0.0686
 3145TIP3    H133630   1.104  -3.286   3.330 -0.1339 -0.3286  0.0405
 3145TIP3    H233631   1.228  -3.352   3.385 -0.1316 -0.4818 -0.1458
 3146TIP3   OH233632   3.100   1.874   3.109 -0.0350  0.0332 -0.0170
 3146TIP3    H133633   3.182   1.841   3.146 -0.3829 -0.7976  0.0342
 3146TIP3    H233634   3.117   1.881   3.015 -0.6899 -2.7218 -0.4382
 3147TIP3   OH233635  -2.311  -0.033   4.233  0.2401 -0.0969  0.1768
 3147TIP3    H133636  -2.253   0.040   4.254 -0.2612  0.0719  1.0171
 3147TIP3    H233637  -2.396   0.008   4.219 -0.1815 -0.5722  1.2745
 3148TIP3   OH233638   1.423   2.272   5.788 -0.2430  0.1181 -0.5107
 3148TIP3    H133639   1.330   2.295   5.783 -0.2079  0.5784  0.5411
 3148TIP3    H233640   1.462   2.344   5.839  0.6659 -0.1289 -0.8463
 3149TIP3   OH233641   1.413  -1.126   3.499 -0.2226 -0.7341 -0.4439
 3149TIP3    H133642   1.496  -1.150   3.457  2.0105 -1.2872  3.6757
 3149TIP3    H233643   1.425  -1.035   3.524 -0.9925 -0.7341 -0.0698
 3150TIP3   OH233644  -2.485   1.087   5.004 -0.0696  0.2381  0.5471
 3150TIP3    H133645  -2.432   1.027   5.057 -1.4803  0.0456  1.8276
 3150TIP3    H233646  -2.509   1.036   4.926 -0.9736 -0.8048  1.4621
 3151TIP3   OH233647  -3.160   1.445   5.353 -0.0699  0.4834  0.2312
 3151TIP3    H133648  -3.227   1.411   5.412  0.4137  2.5395  2.0742
 3151TIP3    H233649  -3.194   1.426   5.265 -2.4276  0.2738  1.1099
 3152TIP3   OH233650  -0.795  -2.455   3.418 -0.4845  0.6349 -0.3865
 3152TIP3    H133651  -0.707  -2.416   3.422 -0.6190  1.2171 -2.1301
 3152TIP3    H233652  -0.852  -2.391   3.458 -0.3099  0.9401 -0.6217
 3153TIP3   OH233653   0.764   1.095   5.336 -0.0659  0.2591 -0.2479
 3153TIP3    H133654   0.710   1.044   5.276  1.1648 -0.4545 -0.7990
 3153TIP3    H233655   0.713   1.100   5.416 -1.1338 -0.0018 -0.8933
 3154TIP3   OH233656   2.520  -2.179   3.456 -0.2222 -0.1341 -0.3738
 3154TIP3    H133657   2.574  -2.134   3.391 -0.3175 -0.7454 -0.8884
 3154TIP3    H233658   2.449  -2.219   3.405 -1.2316  0.7509  0.3057
 3155TIP3   OH233659   1.456   1.653   4.000  0.2155 -0.6480  0.2853
 3155TIP3    H133660   1.423   1.601   3.927 -1.0802  0.2808  0.1754
 3155TIP3    H233661   1.378   1.690   4.041  0.9641 -0.6030  1.7355
 3156TIP3   OH233662   0.285   3.205   2.514  0.0402 -0.0159  0.0852
 3156TIP3    H133663   0.327   3.291   2.513 -0.9175  0.4674 -0.8420
 3156TIP3    H233664   0.343   3.149   2.463 -0.3103  0.5915 -1.0104
 3157TIP3   OH233665   2.861   0.750   3.322 -0.4786  0.0048  0.2464
 3157TIP3    H133666   2.866   0.659   3.291  2.3956  0.6043 -1.4975
 3157TIP3    H233667   2.943   0.762   3.370 -1.5364  1.2832  1.8140
 3158TIP3   OH233668  -3.220   2.498   2.400 -0.0121  0.7330  0.1551
 3158TIP3    H133669  -3.137   2.494   2.447  0.4060  1.1509 -0.5294
 3158TIP3    H233670  -3.201   2.552   2.323 -0.0173 -1.9389 -1.8399
 3159TIP3   OH233671   2.956  -0.535   4.837 -0.2572 -0.1144  0.0520
 3159TIP3    H133672   2.990  -0.448   4.855 -1.0229  0.0195  0.9775
 3159TIP3    H233673   2.863  -0.521   4.818 -0.3494 -0.7078  0.0338
 3160TIP3   OH233674  -0.807  -1.070   2.516  0.3814 -0.2925 -0.1348
 3160TIP3    H133675  -0.720  -1.054   2.550  0.2178  2.0184 -0.6729
 3160TIP3    H233676  -0.809  -1.025   2.432 -1.5780  0.4822  0.2685
 3161TIP3   OH233677  -0.785  -0.711   3.771  0.0637 -0.1458 -0.1686
 3161TIP3    H133678  -0.776  -0.765   3.693  0.2519 -0.6493  0.1989
 3161TIP3    H233679  -0.862  -0.745   3.816  0.4134 -0.3801  0.2690
 3162TIP3   OH233680   0.935  -1.873   4.335 -0.2201 -0.0322  0.3003
 3162TIP3    H133681   0.870  -1.922   4.284  0.1906 -0.2773  0.0126
 3162TIP3    H233682   1.018  -1.916   4.316 -0.2107 -0.8874  2.1017
 3163TIP3   OH233683  -0.857   1.311   2.375 -0.3561 -0.1311 -0.3003
 3163TIP3    H133684  -0.953   1.305   2.378 -0.3116 -0.7664 -0.0608
 3163TIP3    H233685  -0.838   1.404   2.390 -0.9258 -0.0380 -0.1378
 3164TIP3   OH233686  -2.879  -0.649   2.766 -0.0330  0.7397  0.3351
 3164TIP3    H133687  -2.957  -0.699   2.740  1.7297 -1.6738 -0.6559
 3164TIP3    H233688  -2.889  -0.638   2.860 -1.8462  1.0359  0.1529
 3165TIP3   OH233689   2.510   1.183   4.483  0.1846 -0.4730  0.4076
 3165TIP3    H133690   2.423   1.144   4.477  0.3734 -0.9460  0.6963
 3165TIP3    H233691   2.493   1.274   4.508 -0.2755 -0.2456 -0.6839
 3166TIP3   OH233692  -2.178  -1.292   3.148 -0.1761  0.0053 -0.1574
 3166TIP3    H133693  -2.133  -1.362   3.100 -0.0590 -1.2878  1.6969
 3166TIP3    H233694  -2.108  -1.235   3.179 -0.2380  0.7331 -1.2956
 3167TIP3   OH233695   1.542   0.195   3.894  0.3133 -0.5516 -0.6895
 3167TIP3    H133696   1.548   0.187   3.799  1.2980  0.4610 -0.7431
 3167TIP3    H233697   1.481   0.127   3.920 -1.2594  0.2005 -2.2084
 3168TIP3   OH233698  -2.728  -2.972   4.874 -0.5886  0.2172 -0.0747
 3168TIP3    H133699  -2.715  -2.993   4.966 -1.4050 -0.9167 -0.1866
 3168TIP3    H233700  -2.800  -2.909   4.874  0.4255  1.3960  0.1410
 3169TIP3   OH233701   2.158   1.353   4.165 -0.3176  0.0257 -0.8229
 3169TIP3    H133702   2.181   1.368   4.256  0.1565 -0.1121 -0.9160
 3169TIP3    H233703   2.067   1.326   4.167 -0.3018  0.0065 -0.3865
 3170TIP3   OH233704  -0.243  -1.588   2.659 -0.1097  0.1778 -0.0705
 3170TIP3    H133705  -0.299  -1.613   2.586 -1.7342  0.2395  1.0976
 3170TIP3    H233706  -0.266  -1.649   2.729 -0.8109  1.9617  1.3504
 3171TIP3   OH233707  -2.214  -0.415   5.095 -0.2360  0.1750 -0.1497
 3171TIP3    H133708  -2.138  -0.365   5.124 -0.2143 -0.4913  0.9972
 3171TIP3    H233709  -2.178  -0.490   5.048 -0.2404  0.5895 -0.8355
 3172TIP3   OH233710  -0.404   2.215   3.549  0.6007 -0.1960  0.0721
 3172TIP3    H133711  -0.349   2.284   3.587  0.1600  0.3927 -0.3323
 3172TIP3    H233712  -0.472   2.200   3.614  1.2330 -0.9350  0.5792
 3173TIP3   OH233713  -1.945  -1.157   4.439  0.1701  0.4830 -0.1200
 3173TIP3    H133714  -2.006  -1.176   4.510 -0.6273  0.9431 -0.6540
 3173TIP3    H233715  -1.980  -1.206   4.364  0.0098  1.3613 -0.6319
 3174TIP3   OH233716  -2.206  -1.346   4.281  0.3803  0.0610  0.1652
 3174TIP3    H133717  -2.293  -1.335   4.243  0.3887 -1.1984 -0.2573
 3174TIP3    H233718  -2.184  -1.438   4.265  1.7199  0.3202  0.4153
 3175TIP3   OH233719   2.543   1.693   3.768  0.2410  0.1457 -0.0537
 3175TIP3    H133720   2.585   1.762   3.716  1.3008  0.2620  0.9198
 3175TIP3    H233721   2.567   1.713   3.858  0.2960 -1.3108  0.2813
 3176TIP3   OH233722   3.256  -0.382   3.282  0.3202 -0.2807  0.2933
 3176TIP3    H133723   3.199  -0.384   3.205  0.5788 -2.1580  0.0855
 3176TIP3    H233724   3.321  -0.315   3.263 -0.5038  0.3313 -0.4445
 3177TIP3   OH233725  -1.450  -2.414   3.946 -0.0898 -0.0536 -0.0241
 3177TIP3    H133726  -1.450  -2.433   3.852  0.3360 -0.4941  0.0630
 3177TIP3    H233727  -1.416  -2.325   3.953 -2.3527  0.9191 -0.4559
 3178TIP3   OH233728  -2.708   2.495   4.213 -0.0073 -0.0195  0.0366
 3178TIP3    H133729  -2.748   2.542   4.287 -0.0125 -0.7017  0.4779
 3178TIP3    H233730  -2.687   2.564   4.150  4.2393  1.2972  2.5211
 3179TIP3   OH233731  -2.956  -0.364   3.559 -0.4710  0.6365  0.4914
 3179TIP3    H133732  -2.873  -0.346   3.516  0.2633 -1.3549  0.9793
 3179TIP3    H233733  -2.940  -0.345   3.651  0.0409 -1.4002  0.8691
 3180TIP3   OH233734   0.858   0.118   4.120  0.4363 -0.1142  0.5833
 3180TIP3    H133735   0.949   0.087   4.127  0.1911 -0.8015  0.8308
 3180TIP3    H233736   0.805   0.038   4.122 -0.2074  0.3093  1.0111
 3181TIP3   OH233737  -1.061   3.099   4.367  0.2154 -0.2700 -0.3994
 3181TIP3    H133738  -1.080   3.171   4.306  1.8238  0.3679 -0.2065
 3181TIP3    H233739  -0.969   3.112   4.391 -0.3100 -0.5660  2.0584
 3182TIP3   OH233740  -0.339  -2.754   2.993 -0.2213 -0.3524  0.6873
 3182TIP3    H133741  -0.282  -2.830   2.991 -1.1914 -1.1134  1.2865
 3182TIP3    H233742  -0.334  -2.718   2.904  0.9909 -0.5319  0.6718
 3183TIP3   OH233743   1.897  -0.279   2.913 -0.3760 -0.3109  0.3430
 3183TIP3    H133744   1.822  -0.240   2.868  0.0810  0.5054  0.2630
 3183TIP3    H233745   1.930  -0.346   2.853 -0.0949  0.3992 -0.3021
 3184TIP3   OH233746   0.339  -0.748   3.374  1.0008 -0.1378 -0.0476
 3184TIP3    H133747   0.275  -0.712   3.435  0.9873 -0.6417  0.2352
 3184TIP3    H233748   0.308  -0.721   3.287 -0.0832 -1.1224  0.0175
 3185TIP3   OH233749  -2.072   2.958   4.430 -0.0315  0.1305 -0.9029
 3185TIP3    H133750  -2.069   3.032   4.491  0.8142  2.6170 -3.7095
 3185TIP3    H233751  -1.982   2.926   4.428 -0.4318 -1.2014  0.4417
 3186TIP3   OH233752  -1.355  -1.505   4.990  0.0804  0.6534  0.2452
 3186TIP3    H133753  -1.262  -1.524   5.004  0.1024 -0.9128 -1.5648
 3186TIP3    H233754  -1.399  -1.588   5.011 -1.0067  1.5218  1.5711
 3187TIP3   OH233755   2.129  -1.803   5.785 -0.5248  0.1029 -0.5533
 3187TIP3    H133756   2.036  -1.777   5.786 -1.1142 -1.7548  1.6445
 3187TIP3    H233757   2.175  -1.728   5.822 -1.3582  0.4969 -0.2863
 3188TIP3   OH233758  -3.330  -0.698   3.215  0.3570 -0.4822  0.0500
 3188TIP3    H133759  -3.425  -0.698   3.211  0.3706 -1.3903 -2.4968
 3188TIP3    H233760  -3.304  -0.642   3.141  1.8235  0.2892  1.1002
 3189TIP3   OH233761   2.788   2.166   4.665 -0.0260 -0.3607 -0.9966
 3189TIP3    H133762   2.816   2.165   4.756  1.4746  1.5942 -1.3628
 3189TIP3    H233763   2.862   2.128   4.617 -0.8952 -1.5871 -1.4108
 3190TIP3   OH233764   1.163  -0.801   3.475 -0.4928 -0.2127 -0.1558
 3190TIP3    H133765   1.073  -0.812   3.503 -0.3987 -0.3026  0.1137
 3190TIP3    H233766   1.173  -0.707   3.462 -0.6273 -0.2045 -0.1966
 3191TIP3   OH233767  -0.960  -0.130   5.503  0.2034  0.2710  0.1747
 3191TIP3    H133768  -0.974  -0.045   5.544 -0.7306  0.8703 -1.3170
 3191TIP3    H233769  -0.923  -0.110   5.417  0.3121 -0.8531 -0.0601
 3192TIP3   OH233770  -3.059  -3.076   3.878 -0.1849 -0.2780 -0.9262
 3192TIP3    H133771  -3.075  -3.055   3.787 -0.5143  0.0568 -0.7945
 3192TIP3    H233772  -3.073  -3.170   3.885 -0.9637 -0.1722 -1.0515
 3193TIP3   OH233773   2.486  -0.159   3.820 -0.2510  0.2644  0.7911
 3193TIP3    H133774   2.492  -0.081   3.766  4.5751  1.2638  2.3051
 3193TIP3    H233775   2.444  -0.130   3.901  1.3704  1.3751  1.2822
 3194TIP3   OH233776   1.760  -1.063   4.000  0.5319  0.0514  0.0195
 3194TIP3    H133777   1.716  -1.047   3.917  0.1194  0.1720  0.2569
 3194TIP3    H233778   1.692  -1.101   4.056  1.0189 -0.7975  0.0458
 3195TIP3   OH233779  -1.165  -1.724   3.827 -0.4293 -0.4463 -0.0047
 3195TIP3    H133780  -1.223  -1.658   3.867 -0.5846 -1.0557  0.8044
 3195TIP3    H233781  -1.079  -1.682   3.824 -0.8577  0.4035 -1.0515
 3196TIP3   OH233782   2.585   0.466   3.238  0.2698 -0.0948  0.0370
 3196TIP3    H133783   2.664   0.497   3.195  1.2914 -0.4653  1.5750
 3196TIP3    H233784   2.548   0.402   3.178  1.6242 -0.5695 -0.3073
 3197TIP3   OH233785  -1.251   3.295   4.012 -0.0763  0.2751  0.1784
 3197TIP3    H133786  -1.278   3.355   4.081  1.7678  0.8557  0.4453
 3197TIP3    H233787  -1.172   3.253   4.045 -0.7655 -1.5944 -0.4215
 3198TIP3   OH233788  -0.739   2.172   3.509 -0.3584 -0.1845  0.2718
 3198TIP3    H133789  -0.827   2.161   3.473 -0.2048  0.6153 -0.3900
 3198TIP3    H233790  -0.717   2.087   3.547 -1.4092 -0.3923  0.4260
 3199TIP3   OH233791  -1.883  -3.238   2.775 -0.1964  0.4743 -1.1195
 3199TIP3    H133792  -1.945  -3.308   2.753 -2.0602  1.5767  0.3805
 3199TIP3    H233793  -1.912  -3.164   2.722 -2.6540  2.1369  2.2326
 3200TIP3   OH233794  -2.779  -2.425   2.196  0.0074  0.1535 -0.3404
 3200TIP3    H133795  -2.819  -2.460   2.116  0.0759 -0.2955 -0.1776
 3200TIP3    H233796  -2.741  -2.341   2.168  0.2854 -0.1349 -0.8470
 3201TIP3   OH233797   0.794   2.733   5.268  0.1563  0.2548  0.3824
 3201TIP3    H133798   0.836   2.817   5.288  2.0883 -1.1092  2.4421
 3201TIP3    H233799   0.859   2.686   5.216 -1.3350  0.3281 -1.7162
 3202TIP3   OH233800   2.802  -1.822   5.347 -0.1309 -0.1987 -0.3399
 3202TIP3    H133801   2.711  -1.851   5.352  0.0143 -0.6445 -0.2887
 3202TIP3    H233802   2.812  -1.763   5.421 -0.0990 -0.9234  0.2402
 3203TIP3   OH233803   0.987   2.622   2.338 -0.0533 -0.1663 -0.2148
 3203TIP3    H133804   1.011   2.600   2.248 -1.5865 -2.2519 -0.1678
 3203TIP3    H233805   1.071   2.639   2.381  0.6919  1.2231 -2.0707
 3204TIP3   OH233806   0.796  -0.964   5.874 -0.4296 -0.3432  0.1039
 3204TIP3    H133807   0.867  -0.900   5.878 -0.6799 -0.1261  1.3129
 3204TIP3    H233808   0.740  -0.943   5.948 -1.9719 -0.2913 -1.0288
 3205TIP3   OH233809  -0.522  -0.883   2.105 -0.4827 -0.5683  0.4147
 3205TIP3    H133810  -0.433  -0.870   2.138 -0.1267 -1.5574 -0.1069
 3205TIP3    H233811  -0.513  -0.874   2.010 -1.1519  0.4161  0.4371
 3206TIP3   OH233812  -3.125  -2.810   2.914 -0.0554  0.4481  0.4347
 3206TIP3    H133813  -3.200  -2.824   2.972 -0.1525  1.2511  0.5120
 3206TIP3    H233814  -3.162  -2.814   2.826 -0.0067 -0.1743  0.4335
 3207TIP3   OH233815   3.184  -1.885   4.406  0.1396 -0.0576 -0.4856
 3207TIP3    H133816   3.241  -1.885   4.482  0.8436  0.9935 -1.0005
 3207TIP3    H233817   3.126  -1.961   4.420  0.0490  0.2887  1.2229
 3208TIP3   OH233818   1.233  -2.722   4.565  0.0289 -0.2316  0.2054
 3208TIP3    H133819   1.160  -2.759   4.615  0.0253  1.3007  1.3981
 3208TIP3    H233820   1.232  -2.629   4.585  1.6794  0.0013 -0.5814
 3209TIP3   OH233821   0.090  -1.957   4.033 -0.1058 -0.6106  0.4594
 3209TIP3    H133822   0.129  -1.875   4.002 -1.8082  0.3583  0.7520
 3209TIP3    H233823   0.131  -1.972   4.119  1.2533 -0.8558 -0.2040
 3210TIP3   OH233824   2.566   3.006   4.793 -0.3259 -0.1545 -0.3162
 3210TIP3    H133825   2.579   3.097   4.767  2.2124 -0.0550  0.9614
 3210TIP3    H233826   2.629   2.957   4.741  0.8926 -0.6489  1.5356
 3211TIP3   OH233827   0.331  -1.866   3.538  0.0539  0.0026  0.4047
 3211TIP3    H133828   0.305  -1.883   3.448  0.6629  2.8358 -0.4066
 3211TIP3    H233829   0.256  -1.893   3.590 -0.4210 -1.4135 -0.9506
 3212TIP3   OH233830  -1.718   2.463   4.702 -0.1840 -0.5406  0.0935
 3212TIP3    H133831  -1.645   2.409   4.731  2.9062  2.2418 -1.7689
 3212TIP3    H233832  -1.735   2.522   4.775  2.4043  1.4814 -0.7948
 3213TIP3   OH233833   1.376  -1.805   5.483  0.4395  0.0556 -0.1623
 3213TIP3    H133834   1.298  -1.821   5.536 -0.2530  1.1504 -0.7930
 3213TIP3    H233835   1.363  -1.860   5.405  0.7885 -0.5183  0.1844
 3214TIP3   OH233836   3.180  -0.647   4.361  0.0876 -0.0273 -0.3615
 3214TIP3    H133837   3.219  -0.566   4.391 -0.3763  0.1742 -0.2897
 3214TIP3    H233838   3.245  -0.684   4.301 -0.0423  0.8093 -1.0438
 3215TIP3   OH233839   0.039  -0.887   5.348  0.2643  0.0935 -0.2755
 3215TIP3    H133840   0.018  -0.969   5.392  0.7472  0.8010  1.3383
 3215TIP3    H233841   0.131  -0.896   5.323  0.0143 -0.2741 -1.0840
 3216TIP3   OH233842  -0.082   1.994   4.371 -0.4929 -0.4364  0.1414
 3216TIP3    H133843  -0.017   1.962   4.434 -0.6740 -0.0292  0.5372
 3216TIP3    H233844  -0.038   1.985   4.286 -0.9359 -2.8053  0.0797
 3217TIP3   OH233845  -3.258   2.455   3.435 -0.0517 -0.4455  0.2642
 3217TIP3    H133846  -3.180   2.486   3.480 -0.4699  1.0968 -0.0035
 3217TIP3    H233847  -3.232   2.447   3.343  0.3535 -2.0211  0.4865
 3218TIP3   OH233848  -1.298  -3.108   4.510 -0.2293  0.2399 -0.0038
 3218TIP3    H133849  -1.359  -3.159   4.563 -0.2445 -0.3621 -0.5946
 3218TIP3    H233850  -1.233  -3.172   4.481  0.7648  0.8841  0.7128
 3219TIP3   OH233851  -0.423   3.271   2.545  0.5335  0.3835  0.3395
 3219TIP3    H133852  -0.464   3.354   2.519 -0.3459 -0.0175  0.4053
 3219TIP3    H233853  -0.397   3.231   2.462 -2.3136 -0.9135 -0.0568
 3220TIP3   OH233854   1.535   1.698   2.403  0.7189 -0.0825 -0.9438
 3220TIP3    H133855   1.473   1.749   2.455  1.0073  0.3517 -1.0199
 3220TIP3    H233856   1.621   1.729   2.432  0.9688 -1.9206  0.4577
 3221TIP3   OH233857  -2.687   2.017   5.326  0.0963 -0.2124 -0.3139
 3221TIP3    H133858  -2.714   1.980   5.410  1.4400 -0.3728  0.0563
 3221TIP3    H233859  -2.747   2.091   5.312 -1.1915 -1.1563 -0.0188
 3222TIP3   OH233860   0.544   2.369   2.483 -0.1310  0.5229 -0.3282
 3222TIP3    H133861   0.541   2.439   2.418  1.7121 -1.2857 -2.5611
 3222TIP3    H233862   0.632   2.375   2.521 -0.9018  1.0345  1.4372
 3223TIP3   OH233863   2.574  -1.011   4.527  0.1467 -0.0324  0.2193
 3223TIP3    H133864   2.652  -1.030   4.476 -0.4305 -1.4260 -0.1952
 3223TIP3    H233865   2.526  -0.947   4.475  1.0210  0.9143  0.5271
 3224TIP3   OH233866  -1.053  -3.086   4.113  0.1042 -0.3893  0.3635
 3224TIP3    H133867  -1.044  -3.180   4.094 -1.8869 -0.5702  0.1689
 3224TIP3    H233868  -1.000  -3.073   4.192  0.7887 -1.5702  0.1292
 3225TIP3   OH233869   2.755  -3.331   4.937  0.1040 -0.0901 -0.0324
 3225TIP3    H133870   2.841  -3.303   4.968 -0.0927 -0.1128  0.5567
 3225TIP3    H233871   2.694  -3.295   5.002 -0.1737 -1.7018  0.6463
 3226TIP3   OH233872   0.385  -2.755   5.145 -0.2354  0.0817  0.1160
 3226TIP3    H133873   0.367  -2.722   5.234 -0.2145  1.8274 -0.4803
 3226TIP3    H233874   0.308  -2.731   5.095  0.4837  0.7037 -0.7275
 3227TIP3   OH233875  -3.228  -2.545   2.953  0.0066  0.3761  0.0083
 3227TIP3    H133876  -3.136  -2.540   2.927  0.1360 -1.0567  0.1261
 3227TIP3    H233877  -3.244  -2.638   2.967 -1.2004  0.7068  0.9688
 3228TIP3   OH233878  -2.208  -2.355   2.635 -0.3605  0.5085  0.4030
 3228TIP3    H133879  -2.299  -2.347   2.662 -0.1312 -0.4310  1.5544
 3228TIP3    H233880  -2.166  -2.274   2.665 -0.6995  0.7006  0.3572
 3229TIP3   OH233881   1.667   0.631   4.558 -0.1774 -0.0763 -0.5290
 3229TIP3    H133882   1.762   0.629   4.545 -0.1210 -0.1804 -0.1065
 3229TIP3    H233883   1.653   0.699   4.624 -0.3724 -0.2555 -0.3847
 3230TIP3   OH233884  -1.552   0.620   3.408  0.1186  0.4614 -0.6128
 3230TIP3    H133885  -1.635   0.573   3.396  0.0542 -0.0389  1.3604
 3230TIP3    H233886  -1.577   0.712   3.412 -0.4597  0.2839  0.4623
 3231TIP3   OH233887   3.325   1.729   5.437 -0.2994 -0.5498  0.6771
 3231TIP3    H133888   3.308   1.759   5.527  0.7608  0.5164  0.5471
 3231TIP3    H233889   3.283   1.643   5.432  0.0916 -0.8803  2.3849
 3232TIP3   OH233890  -1.982  -3.271   2.324 -0.1230 -0.3850  0.1804
 3232TIP3    H133891  -1.931  -3.336   2.275 -0.3079 -1.9996  2.0116
 3232TIP3    H233892  -2.073  -3.290   2.302 -0.2149 -1.2073  1.2001
 3233TIP3   OH233893  -0.506  -0.107   2.175  0.1712 -0.4104  0.1537
 3233TIP3    H133894  -0.583  -0.066   2.136  0.7456  1.8982  1.2877
 3233TIP3    H233895  -0.490  -0.184   2.121 -1.9135 -0.0007 -1.1390
 3234TIP3   OH233896  -2.123  -3.004   3.394 -0.1641  0.5054 -0.2609
 3234TIP3    H133897  -2.039  -3.043   3.421 -1.0155  0.1610  2.1293
 3234TIP3    H233898  -2.167  -3.073   3.345 -0.1652 -0.3207  0.8626
 3235TIP3   OH233899   3.097   0.069   5.676 -0.4772 -0.0693 -0.8435
 3235TIP3    H133900   3.148  -0.007   5.650 -1.2863 -0.3920 -1.5540
 3235TIP3    H233901   3.160   0.141   5.681  0.0315 -0.4479 -1.7178
 3236TIP3   OH233902   2.249   1.332   5.148  0.6303  0.4438 -0.1306
 3236TIP3    H133903   2.297   1.405   5.188  1.7196 -0.9971  1.3601
 3236TIP3    H233904   2.185   1.307   5.215  0.7888 -0.4275 -0.2957
 3237TIP3   OH233905  -2.030  -2.231   4.523  0.2472  0.1655 -0.3771
 3237TIP3    H133906  -1.948  -2.252   4.567  0.1866 -0.0144 -0.3495
 3237TIP3    H233907  -2.093  -2.293   4.560 -0.0094  0.6246 -0.0328
 3238TIP3   OH233908   0.551   2.582   4.050  0.1650  0.5836  0.4045
 3238TIP3    H133909   0.506   2.535   3.981  0.0850 -1.6361  1.8751
 3238TIP3    H233910   0.516   2.671   4.046 -1.8385 -0.2137 -0.6376
 3239TIP3   OH233911  -1.098  -0.543   4.507 -0.1283  0.3547  0.1105
 3239TIP3    H133912  -1.017  -0.507   4.472  0.6552 -0.5185  0.9692
 3239TIP3    H233913  -1.086  -0.638   4.502 -0.3034  0.2090  2.0131
 3240TIP3   OH233914  -0.666  -0.116   3.105  0.5571  0.8501  0.0958
 3240TIP3    H133915  -0.716  -0.035   3.111 -0.5000  0.1451  1.2820
 3240TIP3    H233916  -0.721  -0.173   3.050 -0.1004 -0.0053  1.5875
 3241TIP3   OH233917   1.943   1.537   5.025  0.4537 -0.2710 -0.0264
 3241TIP3    H133918   1.910   1.485   5.098  1.7217 -0.2658  0.5796
 3241TIP3    H233919   1.870   1.593   5.000 -0.4513 -1.2899  0.2852
 3242TIP3   OH233920  -0.445   0.381   4.093 -0.2918  0.6408 -0.5652
 3242TIP3    H133921  -0.406   0.335   4.018 -0.8468  0.6370 -0.8508
 3242TIP3    H233922  -0.507   0.318   4.130  0.3773  0.4341  0.2395
 3243TIP3   OH233923   1.894   0.040   2.432 -0.5040  0.3182 -0.4590
 3243TIP3    H133924   1.965  -0.000   2.381  1.2397 -0.0952  2.0762
 3243TIP3    H233925   1.905   0.134   2.420 -1.1365  0.2130 -2.0560
 3244TIP3   OH233926  -3.089  -1.303   2.965  0.2549  0.2932 -0.8245
 3244TIP3    H133927  -3.171  -1.260   2.942  0.7280  1.2535 -0.7625
 3244TIP3    H233928  -3.112  -1.396   2.972 -0.5145  0.3339 -2.3210
 3245TIP3   OH233929   3.334  -0.180   2.745  0.1794  0.0232  0.3091
 3245TIP3    H133930   3.288  -0.120   2.803  0.9790  0.7654  0.2007
 3245TIP3    H233931   3.268  -0.244   2.719 -0.2648 -0.1445  1.7805
 3246TIP3   OH233932   0.288  -2.712   4.224  0.2065 -0.0690  0.0551
 3246TIP3    H133933   0.240  -2.739   4.145  0.2386 -0.9804  0.3372
 3246TIP3    H233934   0.303  -2.619   4.212 -1.5581  0.2212 -0.0791
 3247TIP3   OH233935  -2.377   0.041   5.259  0.1826 -0.3232 -0.1808
 3247TIP3    H133936  -2.356   0.005   5.345  0.8904  1.1601  0.3016
 3247TIP3    H233937  -2.343  -0.024   5.197  0.7820 -0.8185  0.6439
 3248TIP3   OH233938  -0.007  -0.370   5.151 -0.4133 -0.4691  0.3826
 3248TIP3    H133939   0.024  -0.399   5.236 -1.6036 -0.0353  0.9927
 3248TIP3    H233940   0.034  -0.429   5.088  2.1161  0.4504  1.0478
 3249TIP3   OH233941   0.875   2.156   5.325 -0.0297 -0.2686 -0.1075
 3249TIP3    H133942   0.820   2.118   5.394 -0.4824  3.9990  2.1940
 3249TIP3    H233943   0.826   2.232   5.294  2.0270  0.3026 -2.2288
 3250TIP3   OH233944   0.375   2.362   3.924  0.0677  0.2977  0.3508
 3250TIP3    H133945   0.324   2.429   3.878  0.9326 -1.2281 -3.1279
 3250TIP3    H233946   0.312   2.322   3.984 -2.0593  0.5090 -1.5924
 3251TIP3   OH233947   2.595  -0.556   3.450 -0.2951  0.0215  0.2796
 3251TIP3    H133948   2.668  -0.498   3.472 -0.5178  0.7307 -0.8008
 3251TIP3    H233949   2.550  -0.571   3.534 -0.3857  1.6290  0.5454
 3252TIP3   OH233950   1.097   2.760   5.715 -0.0814 -0.1619  0.2346
 3252TIP3    H133951   1.044   2.681   5.718  1.1855 -1.1523 -1.5636
 3252TIP3    H233952   1.182   2.731   5.683 -0.0153  2.0906 -1.9951
 3253TIP3   OH233953  -0.845   1.500   3.502 -0.5120  0.0630 -0.0134
 3253TIP3    H133954  -0.802   1.418   3.478 -1.6815 -0.4613 -0.4310
 3253TIP3    H233955  -0.883   1.483   3.588 -0.6507  0.1990 -0.0460
 3254TIP3   OH233956   1.625   2.959   5.254 -0.1676 -0.0908  0.2953
 3254TIP3    H133957   1.537   2.958   5.290  0.0898  1.6198  1.0817
 3254TIP3    H233958   1.669   2.883   5.294 -1.4360 -1.3556 -0.6252
 3255TIP3   OH233959   2.645   2.048   3.878 -0.3138  0.0349  0.3440
 3255TIP3    H133960   2.656   2.123   3.937  0.8519 -0.4024  0.6978
 3255TIP3    H233961   2.631   1.974   3.936 -1.1077 -0.0963 -0.0002
 3256TIP3   OH233962  -1.518  -1.708   4.128 -0.3726  0.2914  0.0944
 3256TIP3    H133963  -1.536  -1.616   4.109 -1.2090  0.5108  1.7584
 3256TIP3    H233964  -1.452  -1.706   4.198 -1.4018 -0.3177  1.1214
 3257TIP3   OH233965  -0.530  -0.687   3.348  0.6206  0.1411 -0.3824
 3257TIP3    H133966  -0.493  -0.684   3.259  0.6666 -4.8776 -0.8414
 3257TIP3    H233967  -0.624  -0.700   3.334  0.6170 -0.5958  0.2721
 3258TIP3   OH233968  -0.879   2.946   4.663  0.4664  0.3704 -0.0229
 3258TIP3    H133969  -0.952   2.901   4.620  2.1880 -2.3714 -0.3024
 3258TIP3    H233970  -0.909   2.956   4.754 -0.1695 -1.0198 -0.0436
 3259TIP3   OH233971   3.134   0.963   3.695  0.0123 -0.2230  0.3534
 3259TIP3    H133972   3.063   1.026   3.692  0.8176  0.7069  0.3743
 3259TIP3    H233973   3.186   0.981   3.617  0.0333 -1.1369  0.1459
 3260TIP3   OH233974   2.312  -2.255   4.376  0.1228 -0.6926  0.2300
 3260TIP3    H133975   2.260  -2.176   4.385  2.9469  1.4378 -0.5928
 3260TIP3    H233976   2.354  -2.266   4.462  1.6194  0.2452 -0.3301
 3261TIP3   OH233977   1.029  -2.525   5.205  0.1187 -0.3572 -0.1347
 3261TIP3    H133978   1.124  -2.518   5.208  0.2106 -1.7809  0.8010
 3261TIP3    H233979   1.004  -2.469   5.131  1.7970 -1.2059 -1.4101
 3262TIP3   OH233980  -1.616  -0.344   5.430  0.3646  0.4120  0.1072
 3262TIP3    H133981  -1.571  -0.350   5.345 -0.5268 -0.0926 -0.3485
 3262TIP3    H233982  -1.707  -0.369   5.410 -0.0073  0.9568  1.0904
 3263TIP3   OH233983  -1.548   0.800   5.813 -0.5548  0.7705 -0.1845
 3263TIP3    H133984  -1.606   0.725   5.802 -1.9344  1.5102  1.4702
 3263TIP3    H233985  -1.460   0.763   5.818 -1.1720 -0.7021  0.3083
 3264TIP3   OH233986  -2.211   2.412   5.172 -0.1078 -0.0012  0.0457
 3264TIP3    H133987  -2.219   2.349   5.243  2.6045  2.1138  2.4571
 3264TIP3    H233988  -2.188   2.359   5.096 -1.8062 -2.2164  0.9643
 3265TIP3   OH233989  -0.648  -3.251   5.190 -0.2241 -0.3753 -0.7848
 3265TIP3    H133990  -0.569  -3.291   5.226  0.3410  0.5317 -1.0101
 3265TIP3    H233991  -0.692  -3.213   5.266  0.4315  0.6156 -0.8930
 3266TIP3   OH233992  -2.835  -0.771   3.539 -0.1919  0.6160  0.2150
 3266TIP3    H133993  -2.864  -0.763   3.630 -1.0799  0.3873 -0.0364
 3266TIP3    H233994  -2.878  -0.698   3.494  0.7856  1.1430  0.0940
 3267TIP3   OH233995   0.493   0.865   5.441  0.2922  0.0082  0.0696
 3267TIP3    H133996   0.510   0.839   5.351  0.1423  0.3608 -0.0635
 3267TIP3    H233997   0.402   0.896   5.440  0.9494  2.1386 -0.1640
 3268TIP3   OH233998   1.169   0.357   5.702 -0.0178 -0.4035 -0.1439
 3268TIP3    H133999   1.078   0.372   5.678 -0.1987 -1.7839 -0.3874
 3268TIP3    H234000   1.171   0.268   5.736  1.1935 -0.3018  0.0944
 3269TIP3   OH234001  -2.143  -2.101   3.898 -0.1929  0.0912 -0.6009
 3269TIP3    H134002  -2.056  -2.088   3.934 -0.1354 -1.5564 -0.0489
 3269TIP3    H234003  -2.201  -2.103   3.974 -0.4282 -0.8109 -0.7884
 3270TIP3   OH234004  -3.145   1.172   2.161 -0.4828  0.1278 -0.3879
 3270TIP3    H134005  -3.081   1.217   2.106 -0.4299 -2.6443 -2.8183
 3270TIP3    H234006  -3.105   1.172   2.248  1.7773  0.4097 -1.3526
 3271TIP3   OH234007  -0.910   0.617   4.814 -0.5873  0.1275 -0.2257
 3271TIP3    H134008  -0.995   0.633   4.774 -0.8069  0.6038  0.4050
 3271TIP3    H234009  -0.868   0.704   4.818 -0.8333  0.2050  1.1254
 3272TIP3   OH234010  -3.272  -3.286   4.086 -0.0336 -0.2463  0.5390
 3272TIP3    H134011  -3.187  -3.280   4.043  0.5157 -0.1473  1.5840
 3272TIP3    H234012  -3.319  -3.354   4.038  1.1215 -1.2077  0.7116
 3273TIP3   OH234013   1.649   2.588   3.016  0.0342  0.4507  0.6087
 3273TIP3    H134014   1.556   2.579   2.992 -0.0621 -1.9317  1.5967
 3273TIP3    H234015   1.651   2.663   3.075 -1.1592  0.9281  0.0688
 3274TIP3   OH234016  -0.517   1.888   4.463  0.1659 -0.0284 -0.3357
 3274TIP3    H134017  -0.523   1.949   4.389  0.8884 -0.2650 -0.5982
 3274TIP3    H234018  -0.519   1.801   4.422  0.6662 -0.1579 -0.0823
 3275TIP3   OH234019  -1.391   2.386   4.273  0.5534 -0.4629  0.5599
 3275TIP3    H134020  -1.429   2.424   4.194  3.2037  1.1812 -0.0385
 3275TIP3    H234021  -1.332   2.318   4.240  0.9785 -0.4041  1.1861
 3276TIP3   OH234022  -2.164   0.252   2.575  0.1527  0.7954  0.1217
 3276TIP3    H134023  -2.237   0.191   2.582  0.0713  1.0387  1.6453
 3276TIP3    H234024  -2.172   0.309   2.651  1.6850  1.0968  0.0998
 3277TIP3   OH234025  -2.943  -2.191   2.729  0.5324 -0.3025  0.2668
 3277TIP3    H134026  -2.867  -2.203   2.672 -0.4009  0.5385 -1.2181
 3277TIP3    H234027  -3.018  -2.189   2.670 -0.5651 -0.1510  1.6025
 3278TIP3   OH234028  -0.501  -1.935   5.430 -0.3932 -0.7759 -0.3318
 3278TIP3    H134029  -0.411  -1.918   5.458 -0.0705 -0.7196 -1.3453
 3278TIP3    H234030  -0.533  -1.850   5.399 -0.5031 -0.9727 -0.7584
 3279TIP3   OH234031   1.128  -2.285   4.608  0.2132  0.4379 -0.4366
 3279TIP3    H134032   1.134  -2.290   4.513  2.1390  0.3116 -0.3592
 3279TIP3    H234033   1.099  -2.372   4.635 -0.2087  0.4324 -0.9101
 3280TIP3   OH234034   2.635  -2.935   3.924 -0.3429  0.1097  0.0654
 3280TIP3    H134035   2.598  -2.999   3.985 -2.1966  1.7443  0.7815
 3280TIP3    H234036   2.710  -2.898   3.970 -0.4278 -0.1830  0.4472
 3281TIP3   OH234037   1.128   1.331   4.680  0.2092  0.3653  0.5065
 3281TIP3    H134038   1.111   1.263   4.746 -0.2325 -0.7681 -0.7198
 3281TIP3    H234039   1.062   1.398   4.698 -2.4038 -1.5992 -0.9419
 3282TIP3   OH234040   2.395  -1.678   3.098  0.0784  0.1645 -0.1053
 3282TIP3    H134041   2.415  -1.765   3.063 -3.0006 -0.2924 -1.0672
 3282TIP3    H234042   2.307  -1.659   3.066  0.0939  3.0848  1.2271
 3283TIP3   OH234043   2.246  -0.104   5.336  0.3522  0.7956 -0.5766
 3283TIP3    H134044   2.280  -0.016   5.357  1.0418  0.6787 -1.1730
 3283TIP3    H234045   2.247  -0.108   5.241 -2.6617  1.2724 -0.7315
 3284TIP3   OH234046  -0.171   2.497   4.292 -0.1724 -0.2625 -0.2962
 3284TIP3    H134047  -0.112   2.447   4.349 -0.2190 -0.5884 -0.5374
 3284TIP3    H234048  -0.118   2.518   4.215 -0.5763 -1.1302 -0.8134
 3285TIP3   OH234049   2.116   2.872   3.561 -0.4120 -0.2783  0.1020
 3285TIP3    H134050   2.157   2.891   3.477 -1.6715  0.9169 -0.2968
 3285TIP3    H234051   2.166   2.799   3.598  0.0840 -0.9028 -1.7343
 3286TIP3   OH234052  -1.221   0.769   5.009  0.2631 -0.0239  0.7338
 3286TIP3    H134053  -1.304   0.726   5.031  0.4127 -1.0202 -0.4909
 3286TIP3    H234054  -1.229   0.790   4.916  0.9258  0.9742  0.8876
 3287TIP3   OH234055  -0.294  -0.015   4.265  0.3507 -0.1254  0.3263
 3287TIP3    H134056  -0.375   0.022   4.299  0.1457 -0.5982  0.3699
 3287TIP3    H234057  -0.230   0.055   4.274 -0.0272  0.2174  0.3918
 3288TIP3   OH234058   0.128  -0.860   2.975 -0.1357  0.2226  0.0470
 3288TIP3    H134059   0.220  -0.839   2.992  1.3470 -2.3873 -3.4337
 3288TIP3    H234060   0.092  -0.780   2.937 -0.1853  2.0855  3.5997
 3289TIP3   OH234061   2.832   0.446   3.631 -0.1423  0.0279 -0.3674
 3289TIP3    H134062   2.794   0.374   3.579 -1.1748  0.0935  0.2584
 3289TIP3    H234063   2.756   0.496   3.660  0.4742  0.4683  0.5204
 3290TIP3   OH234064   1.763  -1.480   3.177  0.0365 -0.0905  0.2748
 3290TIP3    H134065   1.838  -1.466   3.119 -0.9073  2.7580 -0.4445
 3290TIP3    H234066   1.800  -1.483   3.265  1.0831  0.2363 -0.1377
 3291TIP3   OH234067  -0.287   2.605   2.809 -0.3887  0.5126  0.8507
 3291TIP3    H134068  -0.349   2.560   2.753 -0.6121 -0.7024  2.0159
 3291TIP3    H234069  -0.245   2.535   2.859  0.7419  1.4476  1.2517
 3292TIP3   OH234070  -1.704   2.037   4.557 -0.2487  0.0475  0.4059
 3292TIP3    H134071  -1.761   2.074   4.489  0.5037  1.7618  0.6530
 3292TIP3    H234072  -1.723   2.089   4.635  2.5149  1.6145  0.1820
 3293TIP3   OH234073   2.721  -0.698   4.466 -0.0328  0.0899 -0.6475
 3293TIP3    H134074   2.631  -0.729   4.465 -0.5355  1.3423  1.1051
 3293TIP3    H234075   2.728  -0.641   4.389 -0.3724 -0.8997 -1.4261
 3294TIP3   OH234076   1.202  -2.878   5.201  0.2093  0.4336  0.0588
 3294TIP3    H134077   1.296  -2.873   5.214  0.5023  2.0925 -2.0780
 3294TIP3    H234078   1.183  -2.812   5.134 -2.3877 -0.2575 -0.0228
 3295TIP3   OH234079  -1.196   0.687   2.888  0.2149 -0.3615  0.1069
 3295TIP3    H134080  -1.267   0.744   2.855  0.6469  0.5886  0.7854
 3295TIP3    H234081  -1.152   0.656   2.809 -0.2982 -0.0956 -0.2915
 3296TIP3   OH234082   1.313  -2.557   5.271  0.1477 -0.1364  0.3806
 3296TIP3    H134083   1.363  -2.537   5.192 -0.5353 -0.7265 -0.2251
 3296TIP3    H234084   1.369  -2.617   5.320 -0.5620 -2.0583 -1.0469
 3297TIP3   OH234085   1.703   2.566   5.167  0.5387  0.0239  0.2300
 3297TIP3    H134086   1.658   2.580   5.251 -0.3678 -0.7475 -0.1142
 3297TIP3    H234087   1.733   2.475   5.171 -1.1068 -0.6211 -0.9997
 3298TIP3   OH234088  -2.730   1.876   2.263  0.5621 -0.4091  0.1778
 3298TIP3    H134089  -2.812   1.832   2.280 -0.0931  0.4449 -0.6296
 3298TIP3    H234090  -2.671   1.847   2.333 -1.3223  1.3444  2.6836
 3299TIP3   OH234091   0.329  -0.752   4.652  0.6394 -0.1951  0.2179
 3299TIP3    H134092   0.296  -0.802   4.727 -0.0179 -2.3923 -1.4428
 3299TIP3    H234093   0.419  -0.781   4.641  0.5605 -0.3048 -0.1621
 3300TIP3   OH234094  -2.828  -1.157   3.317  0.3057  0.3906 -0.1723
 3300TIP3    H134095  -2.825  -1.100   3.394 -0.9459  0.8309 -0.4161
 3300TIP3    H234096  -2.866  -1.239   3.349  0.9589  0.1216 -0.0724
 3301TIP3   OH234097   3.104  -2.210   5.015  0.6401  0.3901 -0.1452
 3301TIP3    H134098   3.159  -2.156   4.959  2.5893 -0.4198  0.9112
 3301TIP3    H234099   3.109  -2.169   5.102 -0.3362  0.2288  0.0036
 3302TIP3   OH234100  -0.737  -1.402   5.391  0.3049  0.1657 -0.1618
 3302TIP3    H134101  -0.653  -1.358   5.384  0.8966 -0.9087  0.0689
 3302TIP3    H234102  -0.758  -1.430   5.301  0.4853 -0.0915 -0.1245
 3303TIP3   OH234103  -0.570  -0.377   3.017  0.0154 -0.4004  0.0767
 3303TIP3    H134104  -0.490  -0.332   2.992 -0.3885  0.3080  0.0246
 3303TIP3    H234105  -0.602  -0.328   3.093 -0.6025 -0.3895 -0.1822
 3304TIP3   OH234106  -2.695   1.777   3.649  0.4597  0.2370 -0.2431
 3304TIP3    H134107  -2.707   1.853   3.593 -1.1904 -0.6347 -1.1515
 3304TIP3    H234108  -2.617   1.733   3.614  0.8590  0.9976 -0.3104
 3305TIP3   OH234109  -3.062   0.301   3.136 -0.0872 -0.4559  0.1180
 3305TIP3    H134110  -3.129   0.320   3.070  1.3028  0.8297 -0.9958
 3305TIP3    H234111  -2.983   0.284   3.085  1.1965  1.2467  1.4241
 3306TIP3   OH234112  -0.129  -1.262   3.223 -0.0518 -0.0578 -0.2325
 3306TIP3    H134113  -0.216  -1.281   3.258  0.2647  1.1509  1.3018
 3306TIP3    H234114  -0.141  -1.184   3.170 -0.1551 -0.7711 -1.3025
 3307TIP3   OH234115   0.023   2.460   5.473 -0.1470  0.4053 -0.1828
 3307TIP3    H134116  -0.055   2.430   5.520 -1.0595  1.9600 -0.6101
 3307TIP3    H234117   0.061   2.526   5.531  0.0774  0.6092 -0.5597
 3308TIP3   OH234118   1.157   2.750   3.010 -0.3441  0.3349  0.6353
 3308TIP3    H134119   1.153   2.783   2.921  1.3083 -2.0481 -0.4256
 3308TIP3    H234120   1.078   2.695   3.019 -2.2640  3.0590  1.8751
 3309TIP3   OH234121  -2.019  -0.127   3.213  0.2809  0.5381  0.0859
 3309TIP3    H134122  -2.093  -0.081   3.252 -0.3884  0.0894 -0.6252
 3309TIP3    H234123  -2.039  -0.131   3.120  1.2820  0.5509 -0.1426
 3310TIP3   OH234124  -3.248   0.649   2.635 -0.2098 -0.0859 -0.1071
 3310TIP3    H134125  -3.237   0.729   2.584  1.1571 -0.4003 -0.3549
 3310TIP3    H234126  -3.173   0.647   2.694 -1.1758 -0.3002  1.1516
 3311TIP3   OH234127   2.515  -2.402   4.260  0.4871 -0.0383 -0.6166
 3311TIP3    H134128   2.488  -2.449   4.182  0.7201  0.2945 -0.9033
 3311TIP3    H234129   2.460  -2.323   4.261 -0.5357 -0.7231  0.3417
 3312TIP3   OH234130   2.185   0.670   4.703 -0.3564 -0.1332 -0.2318
 3312TIP3    H134131   2.105   0.642   4.748 -0.5104  2.5790  1.3978
 3312TIP3    H234132   2.256   0.633   4.755 -0.4528 -2.1977 -1.4451
 3313TIP3   OH234133   3.060  -2.825   5.625 -0.6384 -0.4117 -0.2279
 3313TIP3    H134134   3.117  -2.750   5.642 -1.7620  0.4374 -0.0924
 3313TIP3    H234135   3.119  -2.900   5.624  0.6549  0.5773 -1.3949
 3314TIP3   OH234136   0.330  -2.334   3.911  0.1788  0.3174  0.2762
 3314TIP3    H134137   0.284  -2.252   3.895  0.6436  0.5851  0.2784
 3314TIP3    H234138   0.404  -2.332   3.851  0.4147  0.0815  0.5544
 3315TIP3   OH234139  -0.432  -1.580   5.624 -0.0166 -0.2227  0.0930
 3315TIP3    H134140  -0.505  -1.523   5.650  0.0185 -0.1011 -0.0696
 3315TIP3    H234141  -0.468  -1.634   5.554  0.3501  0.5648 -0.7141
 3316TIP3   OH234142   1.539   0.166   3.632 -0.0221 -0.2492 -0.9307
 3316TIP3    H134143   1.465   0.199   3.581  0.1177  1.6775  0.0111
 3316TIP3    H234144   1.609   0.155   3.568 -0.1875  1.0046 -1.3595
 3317TIP3   OH234145   2.218   1.456   5.542 -0.4198 -0.1853  0.0264
 3317TIP3    H134146   2.304   1.416   5.532 -0.1343  0.4999 -0.3746
 3317TIP3    H234147   2.163   1.387   5.580  0.3112 -0.6194  0.3235
 3318TIP3   OH234148   1.162  -0.931   2.782 -0.0086  0.4793 -0.9109
 3318TIP3    H134149   1.227  -0.937   2.713  0.7050  0.2812 -0.2349
 3318TIP3    H234150   1.113  -1.014   2.777  1.6794 -0.6535  0.4104
 3319TIP3   OH234151   2.611   0.121   2.865 -0.8732  0.3572  0.3162
 3319TIP3    H134152   2.598   0.085   2.778 -1.5998 -0.1052  0.6007
 3319TIP3    H234153   2.580   0.052   2.924 -0.5258  0.7182  0.9329
 3320TIP3   OH234154  -2.686  -0.925   2.388 -0.3062 -0.1490  0.4813
 3320TIP3    H134155  -2.613  -0.868   2.363 -2.1543  2.8379  1.3603
 3320TIP3    H234156  -2.656  -1.013   2.368  1.4599  1.2558 -4.3534
 3321TIP3   OH234157   1.959  -0.034   5.900  0.2000 -0.1135 -0.2576
 3321TIP3    H134158   2.011  -0.042   5.980  0.1814 -0.6620 -0.2945
 3321TIP3    H234159   2.021  -0.056   5.830  0.0608 -0.2349 -0.3433
 3322TIP3   OH234160   0.661   0.732   3.992  0.1593  0.0994  0.2332
 3322TIP3    H134161   0.723   0.660   3.994 -1.4963 -1.3922  0.0387
 3322TIP3    H234162   0.655   0.757   3.899 -0.5939 -0.7376  0.0472
 3323TIP3   OH234163   3.137   3.206   2.420 -0.1456  0.7249 -0.1011
 3323TIP3    H134164   3.100   3.294   2.417  0.4367  0.9633 -0.4391
 3323TIP3    H234165   3.098   3.162   2.344  0.5393  1.0916 -0.6754
 3324TIP3   OH234166  -1.168  -3.277   3.736 -0.3383  0.2499 -0.0589
 3324TIP3    H134167  -1.179  -3.185   3.713 -2.9083 -0.3576 -1.7615
 3324TIP3    H234168  -1.160  -3.322   3.651 -1.8127 -1.3149  0.5803
 3325TIP3   OH234169   2.839  -2.102   5.363 -0.2678 -0.3727 -0.3118
 3325TIP3    H134170   2.921  -2.117   5.315 -1.5418 -0.5993 -2.5593
 3325TIP3    H234171   2.814  -2.012   5.341  0.5697  0.6492  2.4154
 3326TIP3   OH234172  -1.802  -0.802   5.157 -0.3767  0.3271 -0.4770
 3326TIP3    H134173  -1.808  -0.737   5.226 -0.9734  0.7709 -0.9358
 3326TIP3    H234174  -1.848  -0.878   5.191  1.9376 -0.6046  0.8453
 3327TIP3   OH234175   3.115   2.763   3.189  0.2953  0.0268  0.3420
 3327TIP3    H134176   3.134   2.786   3.280 -0.7644 -1.4479  0.9752
 3327TIP3    H234177   3.031   2.805   3.171 -0.9503 -2.0263  1.0480
 3328TIP3   OH234178   3.327  -0.710   5.404  0.4608 -0.6050  0.0054
 3328TIP3    H134179   3.334  -0.800   5.372  0.2236  0.5440 -3.7261
 3328TIP3    H234180   3.234  -0.700   5.426  0.8528 -1.7920  2.6609
 3329TIP3   OH234181  -1.548   0.659   4.052  0.0784 -0.2944 -0.1980
 3329TIP3    H134182  -1.525   0.712   3.976  0.9053  0.0676  0.2875
 3329TIP3    H234183  -1.481   0.590   4.054  0.5374  0.1608  0.6397
 3330TIP3   OH234184   2.299   1.148   2.309 -0.1162 -0.4786  0.1229
 3330TIP3    H134185   2.394   1.159   2.318 -0.1388 -0.9824  1.0615
 3330TIP3    H234186   2.274   1.212   2.243  0.6373  0.7707  1.0155
 3331TIP3   OH234187  -2.625   3.216   4.628  0.2658  0.4142 -0.4614
 3331TIP3    H134188  -2.701   3.252   4.674 -0.4028  0.7742 -1.7860
 3331TIP3    H234189  -2.632   3.121   4.642  0.0814  0.5101  0.1576
 3332TIP3   OH234190   1.538   2.870   2.887  0.4471  0.3496 -0.4797
 3332TIP3    H134191   1.483   2.867   2.808 -0.4228 -0.7920  0.1491
 3332TIP3    H234192   1.514   2.792   2.937  0.9738  1.0501  0.9313
 3333TIP3   OH234193   0.857  -2.433   3.829 -0.4668 -0.0972 -0.1158
 3333TIP3    H134194   0.847  -2.366   3.761 -1.0088 -1.0697 -1.0370
 3333TIP3    H234195   0.944  -2.469   3.813 -0.7331 -0.5706 -0.5511
 3334TIP3   OH234196  -3.215   2.295   2.689  0.2814  0.0055 -0.4497
 3334TIP3    H134197  -3.221   2.284   2.784  1.1943 -0.0650 -0.3877
 3334TIP3    H234198  -3.150   2.364   2.676  0.9432 -0.6997 -1.0342
 3335TIP3   OH234199   2.465   1.729   4.579  0.0894  0.6915  0.4228
 3335TIP3    H134200   2.407   1.746   4.505  1.0212 -1.1764 -0.8353
 3335TIP3    H234201   2.553   1.748   4.546  0.5127 -0.0485  1.0753
 3336TIP3   OH234202  -1.310  -1.245   4.577  0.5054 -0.0912  0.2433
 3336TIP3    H134203  -1.293  -1.300   4.501  1.5460 -0.3457  0.6453
 3336TIP3    H234204  -1.299  -1.155   4.544 -0.2476 -0.1487 -0.1832
 3337TIP3   OH234205   1.884  -2.217   3.564  0.0059  0.0286 -0.7095
 3337TIP3    H134206   1.957  -2.162   3.539  0.7803 -1.3969 -1.7711
 3337TIP3    H234207   1.869  -2.273   3.488 -1.1888 -0.7459  0.0533
 3338TIP3   OH234208  -0.927  -1.357   4.959  0.6604 -0.4789 -0.5677
 3338TIP3    H134209  -0.951  -1.266   4.979  1.5580 -0.1432 -0.9902
 3338TIP3    H234210  -0.877  -1.352   4.878  3.1051 -1.0083  0.8313
 3339TIP3   OH234211   0.828   2.669   2.665 -0.3729 -0.4300  0.1134
 3339TIP3    H134212   0.768   2.726   2.616 -1.2250  0.7351  2.4045
 3339TIP3    H234213   0.792   2.581   2.652 -0.2039 -0.2667 -1.8060
 3340TIP3   OH234214  -1.248   1.059   5.502  0.0392 -0.2127 -0.0191
 3340TIP3    H134215  -1.195   1.138   5.513  1.7164 -1.1453 -0.9451
 3340TIP3    H234216  -1.186   0.987   5.514 -1.2650 -1.3870 -0.0662
 3341TIP3   OH234217  -1.882  -0.346   4.438 -0.6873  0.1582  0.0757
 3341TIP3    H134218  -1.933  -0.268   4.458  0.6125  1.4187 -1.2362
 3341TIP3    H234219  -1.791  -0.318   4.448 -0.1819 -1.6447  1.0622
 3342TIP3   OH234220   1.264   2.696   3.838  0.3629  0.0761  0.1828
 3342TIP3    H134221   1.224   2.779   3.810 -1.2540 -1.0230 -0.8946
 3342TIP3    H234222   1.249   2.693   3.933 -1.2052  0.1965 -0.0396
 3343TIP3   OH234223  -2.678  -0.823   5.396 -0.0321 -0.3080  0.2694
 3343TIP3    H134224  -2.603  -0.878   5.373 -0.5662 -0.9783  0.1243
 3343TIP3    H234225  -2.672  -0.814   5.491  1.4068  1.3654  0.0813
 3344TIP3   OH234226  -1.641  -3.087   3.355  0.1163  0.2587 -0.5062
 3344TIP3    H134227  -1.588  -3.135   3.292  1.0270  1.4507 -0.6892
 3344TIP3    H234228  -1.721  -3.066   3.307  0.6545  0.8560 -1.1747
 3345TIP3   OH234229  -0.574   0.972   3.271  0.2249 -0.0729 -0.0253
 3345TIP3    H134230  -0.555   1.004   3.359  1.1092  0.2352 -0.3157
 3345TIP3    H234231  -0.500   1.002   3.218  0.2392 -1.1757 -0.6516
 3346TIP3   OH234232   2.695  -2.045   3.234 -0.0482 -0.3495 -0.5368
 3346TIP3    H134233   2.663  -2.056   3.145 -1.7781 -0.6050  0.0792
 3346TIP3    H234234   2.781  -2.088   3.234 -0.0724 -0.4490 -2.0293
 3347TIP3   OH234235   0.377  -1.419   3.008 -0.0094 -0.0528 -0.3157
 3347TIP3    H134236   0.424  -1.476   3.069 -1.6744 -1.3597 -0.1765
 3347TIP3    H234237   0.303  -1.385   3.059 -0.0279  0.8331 -0.9103
 3348TIP3   OH234238   3.335  -3.007   2.841 -0.6096  0.4636  0.4614
 3348TIP3    H134239   3.310  -3.016   2.749 -0.5728  1.0984  0.3797
 3348TIP3    H234240   3.252  -2.989   2.887 -0.4105  2.1116  0.2550
 3349TIP3   OH234241  -3.250   1.370   5.078  0.0602 -0.2626  0.1363
 3349TIP3    H134242  -3.345   1.368   5.085  0.0332  0.9981  0.2099
 3349TIP3    H234243  -3.229   1.460   5.054  1.3594 -0.0264  1.9659
 3350TIP3   OH234244   1.010   1.282   4.934  0.2512 -0.7118  0.4783
 3350TIP3    H134245   0.977   1.207   4.885  1.5921 -1.0735  0.0866
 3350TIP3    H234246   1.004   1.255   5.026 -0.6058 -0.7191  0.4333
 3351TIP3   OH234247   0.573  -1.147   2.791 -0.3352 -0.5697 -0.3841
 3351TIP3    H134248   0.544  -1.238   2.804 -0.3384 -0.5459 -0.2195
 3351TIP3    H234249   0.638  -1.153   2.721 -1.7427 -0.4325 -1.7657
 3352TIP3   OH234250  -2.579  -3.087   4.677 -0.0719 -0.0267 -0.2176
 3352TIP3    H134251  -2.663  -3.115   4.640 -0.5691  2.3505 -1.0897
 3352TIP3    H234252  -2.603  -3.028   4.749  0.8012  1.0432 -0.7751
 3353TIP3   OH234253   1.836   3.209   3.452  0.3042  0.0906 -0.3983
 3353TIP3    H134254   1.860   3.128   3.497  0.5654  1.1363  1.4622
 3353TIP3    H234255   1.750   3.191   3.415 -0.6811 -0.3636  1.9396
 3354TIP3   OH234256   2.220  -2.028   3.136  0.8714  0.0038 -0.2008
 3354TIP3    H134257   2.216  -1.980   3.219  1.1274  0.5633 -0.5090
 3354TIP3    H234258   2.298  -1.994   3.092  0.4913  0.0274 -0.8625
 3355TIP3   OH234259  -1.413   1.327   2.947  0.3286 -0.0408 -0.5266
 3355TIP3    H134260  -1.335   1.293   2.992  0.6434  0.1344 -0.9323
 3355TIP3    H234261  -1.399   1.421   2.941 -0.0860  0.0395 -0.2828
 3356TIP3   OH234262  -2.569   0.749   3.814 -0.0466 -0.1839  0.1036
 3356TIP3    H134263  -2.593   0.743   3.722  2.0157 -2.7251 -0.3810
 3356TIP3    H234264  -2.623   0.682   3.857 -0.5923  0.6012  0.6748
 3357TIP3   OH234265   0.892  -2.197   2.399 -0.0588 -0.2747  0.5385
 3357TIP3    H134266   0.831  -2.206   2.473 -0.8039 -0.1997 -0.0597
 3357TIP3    H234267   0.838  -2.166   2.327  1.1168  2.1876  0.6049
 3358TIP3   OH234268   1.065  -2.678   3.139 -0.2630  0.5069  0.3378
 3358TIP3    H134269   0.977  -2.669   3.177  0.2912  2.3566  1.2396
 3358TIP3    H234270   1.053  -2.655   3.047 -1.0303 -1.0116  0.0203
 3359TIP3   OH234271  -1.327   2.125   3.716  0.2997  0.3103 -0.1759
 3359TIP3    H134272  -1.347   2.195   3.780  2.3826 -0.5560  1.5372
 3359TIP3    H234273  -1.411   2.082   3.702 -0.5474  1.5813  0.7014
 3360TIP3   OH234274   3.060   1.990   3.536 -0.6601 -0.5797  0.0997
 3360TIP3    H134275   3.138   1.935   3.538  0.2055  0.5570 -0.9972
 3360TIP3    H234276   3.029   1.993   3.627  2.1703  1.1651  1.1294
 3361TIP3   OH234277   3.025   1.133   5.070 -0.0002  0.5438 -0.2164
 3361TIP3    H134278   3.003   1.054   5.022 -2.1168  0.5622  0.6230
 3361TIP3    H234279   3.068   1.102   5.150  0.0848  0.3174 -0.3495
 3362TIP3   OH234280  -1.997   2.534   3.989  0.0940 -0.3767 -0.2363
 3362TIP3    H134281  -2.072   2.578   3.948 -0.5059  1.6556  2.7034
 3362TIP3    H234282  -2.022   2.523   4.081  3.3637  0.4527  0.9155
 3363TIP3   OH234283   0.947  -0.854   4.405 -0.1058 -0.2131  0.4462
 3363TIP3    H134284   1.041  -0.854   4.426  0.1275 -0.0382 -0.5334
 3363TIP3    H234285   0.924  -0.946   4.401  0.5239 -0.3330 -1.3265
 3364TIP3   OH234286  -0.168  -1.587   2.189  0.2492 -0.1146  0.1632
 3364TIP3    H134287  -0.086  -1.567   2.144  0.3565 -2.5557 -0.8732
 3364TIP3    H234288  -0.234  -1.584   2.120 -0.6936  2.1779  1.0492
 3365TIP3   OH234289   0.533   2.271   3.712 -0.3329 -0.5954  0.3524
 3365TIP3    H134290   0.592   2.200   3.687 -0.5764 -0.5200 -0.4907
 3365TIP3    H234291   0.477   2.234   3.780  0.5660 -0.7164  1.0450
 3366TIP3   OH234292  -2.566   0.856   1.974  0.4913  0.0514 -0.8777
 3366TIP3    H134293  -2.648   0.808   1.987  1.5034 -1.3013  0.8404
 3366TIP3    H234294  -2.571   0.886   1.883 -1.9145  0.0491 -0.8155
 3367TIP3   OH234295   1.961  -2.016   5.028  0.6085 -0.4616 -0.7552
 3367TIP3    H134296   1.965  -2.006   4.933  0.1797 -0.1318 -0.7450
 3367TIP3    H234297   2.016  -1.946   5.063 -0.6741  0.5851 -0.7316
 3368TIP3   OH234298   1.900   2.909   4.499 -0.4350  0.0271  0.0001
 3368TIP3    H134299   1.975   2.849   4.500 -1.8323 -1.8096  0.8601
 3368TIP3    H234300   1.863   2.900   4.411  0.6275  1.3893 -0.6327
 3369TIP3   OH234301  -0.877   2.660   4.863 -0.7098  0.1311  0.0941
 3369TIP3    H134302  -0.810   2.701   4.917 -0.1766 -0.8286  0.1806
 3369TIP3    H234303  -0.829   2.620   4.790 -1.3625  0.9025 -0.7875
 3370TIP3   OH234304  -0.693   0.408   3.627  0.0178  0.0330  0.3226
 3370TIP3    H134305  -0.770   0.417   3.571  0.6469  0.9980 -0.4349
 3370TIP3    H234306  -0.660   0.319   3.609 -0.7717 -0.2945  0.4746
 3371TIP3   OH234307  -2.352   1.394   3.445  0.3058  0.5359 -0.3663
 3371TIP3    H134308  -2.445   1.393   3.469  0.6271  0.6914  0.9232
 3371TIP3    H234309  -2.344   1.324   3.380 -0.3480 -0.8553  0.9701
 3372TIP3   OH234310  -2.971   1.123   2.984 -0.4816  0.1123 -0.2561
 3372TIP3    H134311  -2.921   1.063   3.039 -0.7747  0.7378  0.7198
 3372TIP3    H234312  -3.051   1.076   2.962 -1.2208  0.5281  1.4305
 3373TIP3   OH234313   0.484   0.708   5.674 -0.1098  0.2244  0.4991
 3373TIP3    H134314   0.502   0.772   5.743 -1.9626  0.9100  0.3978
 3373TIP3    H234315   0.478   0.760   5.594  1.3447 -0.4875 -0.1208
 3374TIP3   OH234316  -1.960   0.625   3.841  0.9115  0.0546 -0.0827
 3374TIP3    H134317  -2.031   0.565   3.819  0.9849 -0.1349  0.1915
 3374TIP3    H234318  -1.970   0.698   3.779  1.4612 -0.7252 -1.1053
 3375TIP3   OH234319   1.325   2.322   2.939 -0.1515  0.4549  0.3855
 3375TIP3    H134320   1.302   2.231   2.917 -0.3811  0.9638 -1.7178
 3375TIP3    H234321   1.410   2.315   2.984 -0.4718 -0.8359  0.8247
 3376TIP3   OH234322  -2.102  -0.915   5.126 -0.7094 -0.0528  0.4932
 3376TIP3    H134323  -2.050  -0.940   5.202 -1.5798 -1.5410  0.6459
 3376TIP3    H234324  -2.059  -0.957   5.052 -0.2111  0.8908  0.2340
 3377TIP3   OH234325  -0.839   0.633   4.232  0.4550  0.3862 -0.1098
 3377TIP3    H134326  -0.852   0.650   4.325  0.8406 -0.3793  0.0946
 3377TIP3    H234327  -0.744   0.632   4.221  0.6550 -3.8936  0.4174
 3378TIP3   OH234328  -0.735   0.431   2.611  0.0837  0.2052 -0.3019
 3378TIP3    H134329  -0.719   0.489   2.685 -1.2976 -0.8258  0.8607
 3378TIP3    H234330  -0.653   0.384   2.598  0.6275  1.0651 -0.0645
 3379TIP3   OH234331  -2.663  -0.703   4.416 -0.4973 -0.1518 -0.1177
 3379TIP3    H134332  -2.749  -0.695   4.458  0.1124 -0.3114  1.2210
 3379TIP3    H234333  -2.607  -0.738   4.485  0.6453 -0.0354 -0.9771
 3380TIP3   OH234334  -0.190  -2.393   3.980  0.0061  0.2677  0.2557
 3380TIP3    H134335  -0.197  -2.402   3.884 -0.2414 -1.6722  0.4020
 3380TIP3    H234336  -0.277  -2.365   4.008 -0.2057 -0.1017 -0.0162
 3381TIP3   OH234337  -1.849   1.697   5.654  0.5104 -0.1475 -0.1400
 3381TIP3    H134338  -1.766   1.669   5.694  0.1654 -2.0532 -0.6724
 3381TIP3    H234339  -1.876   1.772   5.707  0.8267 -1.6272  2.3009
 3382TIP3   OH234340   2.992   2.301   2.139 -0.1299 -0.1778 -0.3634
 3382TIP3    H134341   2.986   2.389   2.177 -0.9422  0.6804 -2.3523
 3382TIP3    H234342   3.057   2.257   2.193  0.3412  1.6426  0.6715
 3383TIP3   OH234343  -2.766   2.108   4.069  0.6474  0.3750 -0.0019
 3383TIP3    H134344  -2.850   2.152   4.058  0.7140  0.3543 -0.6628
 3383TIP3    H234345  -2.744   2.119   4.161 -0.8507 -1.0127  0.5614
 3384TIP3   OH234346   0.662  -0.166   4.514  0.1423 -0.5035 -0.5468
 3384TIP3    H134347   0.601  -0.099   4.544 -0.8053 -1.4061 -0.3930
 3384TIP3    H234348   0.607  -0.229   4.467  0.4584 -2.7547  1.8822
 3385TIP3   OH234349  -0.899   1.400   3.060 -0.0375  0.4607 -0.4962
 3385TIP3    H134350  -0.861   1.431   2.978  0.8812  0.1504 -0.1957
 3385TIP3    H234351  -0.837   1.428   3.128  0.8053 -1.9319 -0.1972
 3386TIP3   OH234352  -0.869  -0.797   2.804 -0.0601  0.1712  0.4370
 3386TIP3    H134353  -0.792  -0.826   2.853  0.6583  1.2572 -0.0104
 3386TIP3    H234354  -0.940  -0.852   2.836  0.5784  0.2077  2.0126
 3387TIP3   OH234355   2.523   2.548   4.572  0.4195 -0.5467 -0.1339
 3387TIP3    H134356   2.464   2.496   4.517 -0.2780 -0.6030  0.6482
 3387TIP3    H234357   2.550   2.621   4.516 -0.2338 -0.6346 -0.5766
 3388TIP3   OH234358  -0.087  -1.182   3.650  0.0364  0.6746 -0.5589
 3388TIP3    H134359  -0.166  -1.235   3.638 -0.6622  1.8713 -1.4161
 3388TIP3    H234360  -0.119  -1.092   3.648  1.0712  1.1490  1.8105
 3389TIP3   OH234361   2.225  -2.051   5.623 -0.0802  0.8083  0.3738
 3389TIP3    H134362   2.241  -2.043   5.717 -1.3277  1.4468  0.5486
 3389TIP3    H234363   2.309  -2.080   5.587  0.1633 -0.3741  1.7936
 3390TIP3   OH234364  -2.500   1.844   4.524 -0.0009  0.0400  0.1760
 3390TIP3    H134365  -2.532   1.921   4.570 -1.7995  0.1652 -1.1977
 3390TIP3    H234366  -2.440   1.802   4.587  0.9203  2.4259  1.0090
 3391TIP3   OH234367   2.198   1.262   3.894 -0.1515  0.1271  1.1906
 3391TIP3    H134368   2.211   1.233   3.984 -1.2883  1.1034  1.6992
 3391TIP3    H234369   2.136   1.335   3.901  1.6592  1.9036 -0.1275
 3392TIP3   OH234370   1.265  -0.238   2.181 -0.0663 -0.4404  0.5143
 3392TIP3    H134371   1.235  -0.148   2.168  0.5740 -0.0683  1.5056
 3392TIP3    H234372   1.195  -0.292   2.143 -0.1394  0.4737 -0.7140
 3393TIP3   OH234373   1.549   2.609   3.447  0.4675 -0.6793 -0.3113
 3393TIP3    H134374   1.535   2.522   3.410  1.4675 -0.6947 -0.6733
 3393TIP3    H234375   1.583   2.593   3.535  0.3755 -0.6509 -0.2698
 3394TIP3   OH234376   2.613  -1.563   3.399 -0.4714  0.2661 -0.1524
 3394TIP3    H134377   2.601  -1.552   3.305 -0.4026 -0.7126 -0.2903
 3394TIP3    H234378   2.612  -1.658   3.412  0.5439  0.3530  0.6911
 3395TIP3   OH234379  -0.430  -1.416   3.122  0.4647  0.4949  0.0777
 3395TIP3    H134380  -0.423  -1.511   3.130 -1.7493  0.2727 -0.0318
 3395TIP3    H234381  -0.429  -1.384   3.212 -1.4056  0.0883  0.2817
 3396TIP3   OH234382  -0.515  -1.052   3.779  0.0145 -0.3951 -0.2135
 3396TIP3    H134383  -0.514  -0.970   3.731 -0.8585 -0.2220  0.0475
 3396TIP3    H234384  -0.529  -1.027   3.870  1.1210 -0.7514  0.0633
 3397TIP3   OH234385  -2.202   0.071   3.197 -0.2886 -0.3238  0.0941
 3397TIP3    H134386  -2.229   0.122   3.273 -2.1747  0.2229 -0.8689
 3397TIP3    H234387  -2.183   0.135   3.130  1.4659 -0.8007  0.0958
 3398TIP3   OH234388   2.056   1.697   5.522 -1.2572 -0.5607  0.0300
 3398TIP3    H134389   2.064   1.757   5.596 -1.7228  0.2001 -0.5166
 3398TIP3    H234390   2.125   1.632   5.535 -0.1528  0.6163  0.1678
 3399TIP3   OH234391   0.333  -2.950   3.952  0.0026  0.0205  0.3749
 3399TIP3    H134392   0.245  -2.920   3.927  0.1482  0.5591  0.4876
 3399TIP3    H234393   0.320  -3.039   3.983 -0.4017 -0.1447 -0.2576
 3400TIP3   OH234394   1.096  -1.695   3.938  0.1664  0.7005 -0.2997
 3400TIP3    H134395   1.009  -1.729   3.959  0.8363 -0.5522  0.5646
 3400TIP3    H234396   1.142  -1.769   3.898  1.6707  0.5303  1.6263
 3401TIP3   OH234397  -0.807   0.153   3.399 -0.1032  0.0276  0.1524
 3401TIP3    H134398  -0.715   0.177   3.381  0.0760  0.7224  1.8483
 3401TIP3    H234399  -0.802   0.089   3.470 -0.8790 -1.1871 -0.8495
 3402TIP3   OH234400   2.358   2.790   3.122 -0.2200 -0.6178 -0.2895
 3402TIP3    H134401   2.360   2.695   3.131 -0.2464 -0.6012 -0.1062
 3402TIP3    H234402   2.433   2.810   3.066  0.9061 -0.5839  1.1764
 3403TIP3   OH234403   2.157   0.269   3.479 -0.4263 -0.2650  0.0493
 3403TIP3    H134404   2.071   0.275   3.519  0.0183 -0.6988  1.1049
 3403TIP3    H234405   2.140   0.269   3.384 -1.6475 -1.2052  0.2454
 3404TIP3   OH234406  -2.419   2.819   5.351  0.1143  0.1411 -0.3248
 3404TIP3    H134407  -2.402   2.770   5.270 -0.5227 -1.1905  0.3130
 3404TIP3    H234408  -2.354   2.785   5.413  0.5345  1.0872 -0.2266
 3405TIP3   OH234409   1.372  -3.132   5.487  0.2014 -0.0197  0.3670
 3405TIP3    H134410   1.389  -3.038   5.480  0.9356 -0.2775 -2.5266
 3405TIP3    H234411   1.446  -3.166   5.538  0.7263  0.7757  0.1549
 3406TIP3   OH234412   1.401   1.902   5.294  0.0819 -0.4115 -0.0201
 3406TIP3    H134413   1.475   1.918   5.237  0.1654  0.0519  0.2083
 3406TIP3    H234414   1.414   1.813   5.328  1.3270  0.1845  1.1700
 3407TIP3   OH234415   2.188   0.226   5.002  0.1244 -0.1790  0.1009
 3407TIP3    H134416   2.119   0.162   4.985  0.5823 -0.7119  0.2242
 3407TIP3    H234417   2.255   0.177   5.049  0.8120  0.2146 -0.4558
 3408TIP3   OH234418  -0.960   1.378   3.726 -0.1099 -0.2174  0.0720
 3408TIP3    H134419  -0.873   1.347   3.749 -0.3019 -1.1709 -0.4327
 3408TIP3    H234420  -0.973   1.456   3.780  0.1930 -1.3022  1.8087
 3409TIP3   OH234421  -2.537  -1.961   5.544  0.1463  0.1626 -0.0919
 3409TIP3    H134422  -2.527  -2.052   5.517  0.3234  0.0455  0.3746
 3409TIP3    H234423  -2.631  -1.945   5.536  0.0606 -0.1788  0.2038
 3410TIP3   OH234424   3.334  -1.764   4.873  0.7222 -0.0913  0.6694
 3410TIP3    H134425   3.370  -1.762   4.962 -0.8032  0.6782  1.3117
 3410TIP3    H234426   3.239  -1.769   4.886  0.5237 -1.7841 -0.9423
 3411TIP3   OH234427  -3.188   1.570   3.066  0.3043 -0.0685  0.1548
 3411TIP3    H134428  -3.115   1.514   3.094  0.1479 -1.8956 -2.7183
 3411TIP3    H234429  -3.155   1.615   2.989 -1.1099  0.3011 -0.2635
 3412TIP3   OH234430   1.277  -2.179   5.321 -0.1426 -0.6224 -0.2435
 3412TIP3    H134431   1.205  -2.116   5.323  0.2340 -0.1696 -0.7895
 3412TIP3    H234432   1.250  -2.248   5.382 -0.3920  0.2522  0.6737
 3413TIP3   OH234433  -3.067   0.833   2.384  0.4122 -0.5165  0.3944
 3413TIP3    H134434  -2.991   0.803   2.433 -0.2396  0.5593  2.1700
 3413TIP3    H234435  -3.048   0.925   2.365 -0.3461 -0.2950  0.6798
 3414TIP3   OH234436  -3.045  -1.205   4.391  0.0294 -0.6888 -0.5880
 3414TIP3    H134437  -3.079  -1.261   4.321  0.8689 -1.4401 -0.4076
 3414TIP3    H234438  -3.124  -1.172   4.435 -0.4896 -1.2906 -1.0442
 3415TIP3   OH234439  -1.790   0.290   4.598 -0.0834 -0.3258  0.0857
 3415TIP3    H134440  -1.790   0.340   4.680  0.7807 -0.3867  0.1372
 3415TIP3    H234441  -1.719   0.227   4.608 -0.1571 -0.5292 -0.5941
 3416TIP3   OH234442   3.170   3.318   3.476 -0.2422  0.5382  0.0895
 3416TIP3    H134443   3.092   3.262   3.471 -0.0689  0.4062 -2.0596
 3416TIP3    H234444   3.161   3.364   3.559 -2.0430 -0.3003  0.4082
 3417TIP3   OH234445   3.282  -2.542   3.738  0.2404 -0.0867 -0.1371
 3417TIP3    H134446   3.237  -2.475   3.687  1.1819 -0.0363 -0.9493
 3417TIP3    H234447   3.284  -2.508   3.827 -0.4672  0.3356 -0.2775
 3418TIP3   OH234448  -2.134  -0.024   4.946  0.1229 -0.2063  0.2107
 3418TIP3    H134449  -2.048   0.017   4.952  0.1377 -0.3280  0.8697
 3418TIP3    H234450  -2.187   0.041   4.899  1.0724 -0.9905 -2.0792
 3419TIP3   OH234451  -2.869   3.037   4.438  0.1375  0.0946  0.0329
 3419TIP3    H134452  -2.784   2.993   4.427 -0.8648 -1.7491 -0.8194
 3419TIP3    H234453  -2.930   2.984   4.388 -1.5558  1.3555  0.6655
 3420TIP3   OH234454   3.357   0.568   5.826 -0.0786  0.8443 -0.0350
 3420TIP3    H134455   3.401   0.609   5.901 -1.6078  1.9036  0.3303
 3420TIP3    H234456   3.405   0.601   5.750  0.2656  1.3524  0.3914
 3421TIP3   OH234457   0.335   1.297   4.254 -0.4301 -0.1992 -0.1537
 3421TIP3    H134458   0.328   1.226   4.317 -2.1418 -0.7841 -0.9220
 3421TIP3    H234459   0.403   1.269   4.193  1.2019  0.3508  1.3391
 3422TIP3   OH234460   0.873   0.332   3.365 -0.1448  0.4880 -0.0891
 3422TIP3    H134461   0.905   0.361   3.450  0.4930 -1.6525  0.4497
 3422TIP3    H234462   0.947   0.346   3.305 -0.2907  1.1481 -0.1265
 3423TIP3   OH234463  -0.624   2.820   4.699 -0.4052  0.2412 -0.3791
 3423TIP3    H134464  -0.711   2.840   4.665 -0.2157 -0.1936 -1.1469
 3423TIP3    H234465  -0.614   2.725   4.686  0.5290  0.4255 -1.1641
 3424TIP3   OH234466  -1.122  -0.619   3.590 -0.8641 -0.5463 -0.0489
 3424TIP3    H134467  -1.067  -0.542   3.579  0.7636 -1.6766 -0.0954
 3424TIP3    H234468  -1.153  -0.613   3.681  1.1951 -1.0221  0.7373
 3425TIP3   OH234469   1.191  -2.270   3.665 -0.0975 -0.1619 -0.4983
 3425TIP3    H134470   1.159  -2.341   3.721  0.0387  0.1158 -0.0676
 3425TIP3    H234471   1.128  -2.266   3.593 -0.6752 -0.0465  0.0051
 3426TIP3   OH234472  -2.368  -0.004   2.179 -0.4429 -0.5585  0.1036
 3426TIP3    H134473  -2.385  -0.076   2.118 -1.5853 -1.8373  1.8172
 3426TIP3    H234474  -2.456   0.021   2.210  0.0348  0.7686  0.4301
 3427TIP3   OH234475  -2.631   3.224   2.923  0.1582 -0.0563  0.0284
 3427TIP3    H134476  -2.724   3.202   2.918  0.3023 -0.7668  0.2828
 3427TIP3    H234477  -2.626   3.316   2.896 -0.6527  0.0800  0.3051
 3428TIP3   OH234478  -0.988  -3.087   5.288 -0.0253 -0.4267 -0.0433
 3428TIP3    H134479  -0.916  -3.124   5.338  0.9438  0.5261 -0.6744
 3428TIP3    H234480  -0.946  -3.022   5.231 -1.2747 -0.4560 -1.0406
 3429TIP3   OH234481  -2.051  -2.711   5.131  0.4435 -0.4067  0.1625
 3429TIP3    H134482  -2.028  -2.762   5.209  0.5885  0.1112  0.4638
 3429TIP3    H234483  -1.971  -2.711   5.079  0.5415 -0.2275  0.3098
 3430TIP3   OH234484  -2.853  -2.181   5.563  0.0315  0.1169  0.1753
 3430TIP3    H134485  -2.807  -2.211   5.641 -2.2424 -0.2815  1.4343
 3430TIP3    H234486  -2.896  -2.260   5.529  1.7865  0.0458 -2.1563
 3431TIP3   OH234487  -0.695   2.615   3.313 -0.0290 -0.2777 -0.0728
 3431TIP3    H134488  -0.644   2.540   3.343 -1.2852 -1.4345 -0.6735
 3431TIP3    H234489  -0.763   2.626   3.380  0.4634  0.6873  0.2851
 3432TIP3   OH234490   1.190  -3.139   5.749 -0.3099 -0.1343 -0.3327
 3432TIP3    H134491   1.255  -3.132   5.680 -1.2333  2.8543 -1.0461
 3432TIP3    H234492   1.106  -3.120   5.706 -0.9983  1.1486  1.4311
 3433TIP3   OH234493  -1.710  -1.865   5.589  0.0293 -0.1515 -0.4268
 3433TIP3    H134494  -1.637  -1.870   5.651  1.6048  2.2187 -1.9648
 3433TIP3    H234495  -1.779  -1.819   5.637  0.6126  0.1966  0.0898
 3434TIP3   OH234496  -0.993  -2.538   4.855  0.0006  0.0718  0.0056
 3434TIP3    H134497  -0.941  -2.527   4.934  1.4077 -2.5335 -0.4371
 3434TIP3    H234498  -1.048  -2.614   4.873 -1.7631  1.1436 -0.5530
 3435TIP3   OH234499   0.375  -3.043   4.854  0.0671 -0.0406 -0.5161
 3435TIP3    H134500   0.415  -3.058   4.940 -0.0122 -0.6701 -0.5831
 3435TIP3    H234501   0.437  -2.987   4.807 -0.3583  1.1654  0.3082
 3436TIP3   OH234502   2.460   0.286   2.620  0.3405 -0.1840 -0.2258
 3436TIP3    H134503   2.502   0.371   2.609  0.3289  0.0882  1.5388
 3436TIP3    H234504   2.530   0.222   2.602  0.7301  0.2289 -0.2023
 3437TIP3   OH234505  -0.134   2.566   5.714 -0.2152 -0.3193 -0.2346
 3437TIP3    H134506  -0.085   2.489   5.742  0.6610  0.0621 -0.6567
 3437TIP3    H234507  -0.069   2.637   5.715 -1.2404  0.6710  1.2290
 3438TIP3   OH234508   2.513  -2.169   5.720  0.4222 -0.0245 -0.1599
 3438TIP3    H134509   2.512  -2.261   5.695  0.8498  0.3544 -1.7279
 3438TIP3    H234510   2.588  -2.132   5.673 -0.3812  1.3302 -0.4527
 3439TIP3   OH234511  -3.335   2.224   5.456  0.6638 -0.0758  0.1948
 3439TIP3    H134512  -3.305   2.291   5.395 -0.6646 -0.3117 -0.7466
 3439TIP3    H234513  -3.428   2.214   5.437  0.3542 -0.6038  1.8444
 3440TIP3   OH234514   1.116  -2.523   3.766  0.1833  0.0522  0.3297
 3440TIP3    H134515   1.100  -2.615   3.785 -1.2567  0.0242 -0.8614
 3440TIP3    H234516   1.139  -2.522   3.673 -0.1202  0.9112  0.2582
 3441TIP3   OH234517  -0.628  -0.267   3.367 -0.2531 -0.5212  0.0244
 3441TIP3    H134518  -0.638  -0.183   3.411 -0.7626 -0.3835 -0.3362
 3441TIP3    H234519  -0.710  -0.278   3.318  0.3442 -0.6023 -0.9856
 3442TIP3   OH234520   0.599  -2.152   3.426 -0.1574 -0.6453  0.1533
 3442TIP3    H134521   0.610  -2.172   3.333  1.1428 -0.6922  0.2943
 3442TIP3    H234522   0.665  -2.085   3.445 -1.4307  0.5094  0.7172
 3443TIP3   OH234523   2.206  -2.973   5.166 -0.5834  0.1875 -0.2162
 3443TIP3    H134524   2.180  -3.037   5.099  0.1573  0.7556 -1.0692
 3443TIP3    H234525   2.286  -3.008   5.204  0.7777  1.3572 -1.8463
 3444TIP3   OH234526   3.123  -0.503   5.214 -0.5717 -0.3142  0.0517
 3444TIP3    H134527   3.195  -0.484   5.275 -0.9782 -1.3318  0.8856
 3444TIP3    H234528   3.077  -0.420   5.205  0.0489  0.0790  0.3962
 3445TIP3   OH234529   1.775   1.166   3.817 -0.8681 -0.2780 -0.4069
 3445TIP3    H134530   1.777   1.081   3.774 -0.9479 -1.6666  2.1646
 3445TIP3    H234531   1.683   1.177   3.844 -0.7698  0.4344 -0.3340
 3446TIP3   OH234532  -1.776   0.206   3.311 -0.0130  0.4508 -0.2143
 3446TIP3    H134533  -1.819   0.138   3.363  0.5205  0.2927  0.0332
 3446TIP3    H234534  -1.757   0.162   3.228  1.0305  0.0416  0.2222
 3447TIP3   OH234535  -0.976   1.405   4.614  0.0274 -0.3770  0.2552
 3447TIP3    H134536  -0.945   1.332   4.560 -0.8400 -0.7727  0.2644
 3447TIP3    H234537  -0.989   1.367   4.701  0.1899 -0.0574  0.4194
 3448TIP3   OH234538  -0.270   0.320   2.964 -0.3916 -0.2643  0.6090
 3448TIP3    H134539  -0.174   0.320   2.966 -0.3950  0.2208  1.1889
 3448TIP3    H234540  -0.292   0.304   2.873  0.2559  0.4458  0.3139
 3449TIP3   OH234541   2.488   1.401   4.802  0.5990  0.0300 -0.1540
 3449TIP3    H134542   2.416   1.340   4.817  2.4325 -2.1850  0.1768
 3449TIP3    H234543   2.487   1.417   4.708 -0.2492 -0.0692 -0.1661
 3450TIP3   OH234544  -1.699  -3.211   4.500  0.2707 -0.2752 -0.3225
 3450TIP3    H134545  -1.706  -3.136   4.441  0.1134 -0.4558 -0.5373
 3450TIP3    H234546  -1.625  -3.191   4.556 -0.5480  0.6146  0.4558
 3451TIP3   OH234547  -0.216  -1.972   3.147  0.0121 -0.7459 -0.7328
 3451TIP3    H134548  -0.153  -2.020   3.201  0.6967  0.5367 -0.3338
 3451TIP3    H234549  -0.168  -1.951   3.067 -0.5373 -1.4059 -1.2435
 3452TIP3   OH234550  -2.650   1.869   5.089  0.0550 -0.3940  0.0235
 3452TIP3    H134551  -2.723   1.893   5.033 -0.5861 -0.7880  0.6708
 3452TIP3    H234552  -2.656   1.929   5.164  1.0905  0.3396 -0.4558
 3453TIP3   OH234553  -1.043  -1.446   4.082  0.5060  0.3606  0.0667
 3453TIP3    H134554  -0.999  -1.508   4.141  0.5450  2.8293  2.8881
 3453TIP3    H234555  -1.123  -1.491   4.055  0.8972 -1.1973  1.3632
 3454TIP3   OH234556  -1.161   1.490   5.509 -0.4423  0.2205  0.0438
 3454TIP3    H134557  -1.136   1.408   5.550  1.3132  0.2516 -0.8609
 3454TIP3    H234558  -1.147   1.475   5.415  1.8388  2.1261 -0.0015
 3455TIP3   OH234559   0.854  -2.139   4.215  0.4173 -0.4315  0.0434
 3455TIP3    H134560   0.804  -2.157   4.135  0.4519 -0.9962  0.1492
 3455TIP3    H234561   0.800  -2.174   4.286 -0.6072  1.8558  0.4972
 3456TIP3   OH234562  -1.708   1.261   2.062  0.4840 -0.0966 -0.1557
 3456TIP3    H134563  -1.782   1.202   2.078  0.0573 -0.4981 -3.0265
 3456TIP3    H234564  -1.640   1.205   2.025  0.7490  0.8608 -1.1990
 3457TIP3   OH234565   1.136   3.236   4.947 -0.1237 -0.4074 -0.8045
 3457TIP3    H134566   1.194   3.274   5.013  1.5450 -0.6669 -2.0559
 3457TIP3    H234567   1.055   3.218   4.994  1.1349 -0.9630  1.2841
 3458TIP3   OH234568  -1.389  -0.670   4.501  0.1154 -0.5182 -0.2407
 3458TIP3    H134569  -1.318  -0.608   4.516  0.1659 -0.7454  0.4772
 3458TIP3    H234570  -1.345  -0.755   4.491  0.0157 -0.5088 -0.7926
 3459TIP3   OH234571  -0.607  -1.164   4.998 -0.5136  0.2634  0.2503
 3459TIP3    H134572  -0.557  -1.137   5.075  0.4461 -0.0925 -0.2383
 3459TIP3    H234573  -0.601  -1.089   4.939  0.4181 -0.2028 -0.2680
 3460TIP3   OH234574  -0.143   2.092   3.560  0.0363  0.1745 -0.3218
 3460TIP3    H134575  -0.114   2.081   3.470  0.8554  1.8109 -0.3038
 3460TIP3    H234576  -0.233   2.124   3.553  0.0046  0.0382 -0.5403
 3461TIP3   OH234577  -1.487   0.465   4.491  0.0593 -0.1700 -0.0988
 3461TIP3    H134578  -1.452   0.553   4.480 -0.4857 -0.0131 -0.6384
 3461TIP3    H234579  -1.545   0.453   4.416  0.1787 -1.0156 -0.0613
 3462TIP3   OH234580  -2.982  -3.105   5.224 -0.0105  0.0250  0.1254
 3462TIP3    H134581  -3.008  -3.102   5.316  1.6205  0.1571  0.6180
 3462TIP3    H234582  -2.977  -3.013   5.197  1.0300  0.0618  0.3897
 3463TIP3   OH234583   2.374   0.467   3.429  0.5998  0.4497 -0.0692
 3463TIP3    H134584   2.416   0.419   3.358  0.8310  1.4451 -0.6159
 3463TIP3    H234585   2.317   0.402   3.471  0.0561 -0.0337 -1.4890
 3464TIP3   OH234586   2.970   2.598   4.321 -0.0940  0.1076  0.4065
 3464TIP3    H134587   3.050   2.559   4.288 -1.6926 -2.0234 -1.2270
 3464TIP3    H234588   2.951   2.551   4.402 -0.4335 -0.4338  0.0209
 3465TIP3   OH234589   1.513   2.326   4.668  0.0581  0.0630  0.3025
 3465TIP3    H134590   1.595   2.339   4.717 -0.6165  1.2231  1.1641
 3465TIP3    H234591   1.451   2.387   4.708 -0.6946  0.6281 -1.6230
 3466TIP3   OH234592   0.390   1.154   3.931  0.6375 -0.4503  0.1283
 3466TIP3    H134593   0.455   1.132   3.998 -0.4980  0.6497  1.6613
 3466TIP3    H234594   0.411   1.244   3.906 -0.0498 -0.2370  0.3236
 3467TIP3   OH234595   2.507   0.130   5.862  0.2189  0.0677 -0.0006
 3467TIP3    H134596   2.546   0.215   5.843 -1.5613  1.2885  1.3911
 3467TIP3    H234597   2.521   0.117   5.955 -0.1885 -0.8023 -0.0470
 3468TIP3   OH234598   0.457  -2.510   3.534  0.1763 -0.0782  0.4038
 3468TIP3    H134599   0.541  -2.502   3.487 -0.7592  1.8706 -1.1336
 3468TIP3    H234600   0.431  -2.601   3.521  0.9612 -0.1257 -1.1007
 3469TIP3   OH234601   2.851   0.527   2.870 -0.4749  0.0659  0.3111
 3469TIP3    H134602   2.920   0.589   2.896 -1.1254  1.3272 -0.8557
 3469TIP3    H234603   2.839   0.542   2.777 -1.9838 -0.4966  0.3884
 3470TIP3   OH234604   2.877  -2.943   3.043  0.3137 -0.2817  0.0103
 3470TIP3    H134605   2.826  -2.955   3.124 -0.1008 -1.5001 -0.4125
 3470TIP3    H234606   2.823  -2.886   2.989 -0.1359 -0.7279 -0.0202
 3471TIP3   OH234607  -2.477  -1.593   3.396 -0.2296 -0.1173  0.3596
 3471TIP3    H134608  -2.562  -1.583   3.438 -0.8882  0.4335 -1.0240
 3471TIP3    H234609  -2.452  -1.504   3.371 -0.0497 -0.4549 -0.7197
 3472TIP3   OH234610  -0.424   3.195   3.594  0.3820  0.2451 -0.5890
 3472TIP3    H134611  -0.364   3.124   3.573  1.8377  1.0825  0.5037
 3472TIP3    H234612  -0.415   3.207   3.689 -1.8702  0.1306 -0.2953
 3473TIP3   OH234613   2.232  -2.031   5.918  0.4378 -0.2685  0.6596
 3473TIP3    H134614   2.208  -1.946   5.880 -1.6261  0.2455  2.9206
 3473TIP3    H234615   2.328  -2.027   5.926  0.8096  0.3302 -2.4985
 3474TIP3   OH234616  -1.364  -1.979   3.177 -0.0958  0.1354 -0.7371
 3474TIP3    H134617  -1.315  -2.055   3.145 -1.5719 -0.6968 -1.1499
 3474TIP3    H234618  -1.367  -1.992   3.272  0.0677 -0.0725 -0.7576
 3475TIP3   OH234619  -2.420   2.046   3.331  0.2632  0.3718 -0.7644
 3475TIP3    H134620  -2.331   2.025   3.359  0.5444  0.6631 -1.4044
 3475TIP3    H234621  -2.462   2.083   3.409 -0.0065 -1.7479  0.1601
 3476TIP3   OH234622  -0.375  -0.151   5.700 -0.2671  0.1364 -0.3142
 3476TIP3    H134623  -0.407  -0.220   5.642  1.0755 -0.5584 -0.2651
 3476TIP3    H234624  -0.432  -0.076   5.682 -1.6447 -0.9157 -0.4846
 3477TIP3   OH234625   0.492  -0.311   4.348 -0.4014  0.3622 -0.2741
 3477TIP3    H134626   0.404  -0.296   4.314 -0.7697  1.9503  1.2209
 3477TIP3    H234627   0.532  -0.373   4.287 -3.4653 -2.6601  0.4788
 3478TIP3   OH234628  -3.309  -1.141   4.431  0.4936  0.5593 -0.3385
 3478TIP3    H134629  -3.363  -1.082   4.380 -2.9815 -0.9851  1.1807
 3478TIP3    H234630  -3.357  -1.152   4.513  2.0817 -2.5901  0.3361
 3479TIP3   OH234631   2.985  -0.225   2.539 -0.3011  0.0460 -0.0758
 3479TIP3    H134632   3.025  -0.310   2.554  1.0404  0.6243 -0.2307
 3479TIP3    H234633   3.013  -0.201   2.451  0.8455  1.4162  0.6201
 3480TIP3   OH234634   2.386   2.289   3.918  0.7001  0.1120 -0.5575
 3480TIP3    H134635   2.344   2.207   3.893 -0.3098 -0.4479  2.5171
 3480TIP3    H234636   2.317   2.354   3.913 -0.2445 -0.4566  2.6747
 3481TIP3   OH234637  -2.686   0.223   2.799 -0.3904  0.6649 -0.3067
 3481TIP3    H134638  -2.633   0.192   2.872 -0.1631  1.4745 -0.1211
 3481TIP3    H234639  -2.775   0.195   2.820 -0.2707  0.6112  0.1216
 3482TIP3   OH234640  -0.665  -0.874   2.958  0.4292  0.4588 -0.1564
 3482TIP3    H134641  -0.597  -0.821   3.000 -0.2227  2.4928 -1.5312
 3482TIP3    H234642  -0.663  -0.957   3.006  2.0823  1.3908  1.5405
 3483TIP3   OH234643   1.045  -3.013   3.330  1.4355 -0.2114  0.0283
 3483TIP3    H134644   1.098  -3.093   3.327  0.3708 -0.9332 -1.9472
 3483TIP3    H234645   1.049  -2.979   3.240 -0.8954  0.0332 -0.0417
 3484TIP3   OH234646   1.350  -0.183   4.558  0.1437  0.5986  0.4026
 3484TIP3    H134647   1.427  -0.126   4.561  0.1308  0.5929  2.3192
 3484TIP3    H234648   1.369  -0.247   4.490  1.5594  0.9540  0.4455
 3485TIP3   OH234649  -0.018  -2.009   2.392 -0.0200 -0.0027  0.2887
 3485TIP3    H134650  -0.060  -2.087   2.428  1.6985 -0.6410  1.0023
 3485TIP3    H234651  -0.080  -1.938   2.408 -0.4428 -0.7472  2.0972
 3486TIP3   OH234652   0.657  -0.479   4.200  0.0372 -0.3080 -0.1694
 3486TIP3    H134653   0.620  -0.534   4.131  0.3845 -0.8237  0.0449
 3486TIP3    H234654   0.713  -0.538   4.251 -0.7064 -0.0812  0.9456
 3487TIP3   OH234655  -0.557   2.173   4.272 -0.0204 -0.4217  0.0191
 3487TIP3    H134656  -0.505   2.179   4.191 -0.7945  1.1047 -0.4137
 3487TIP3    H234657  -0.640   2.136   4.244  0.4960 -2.0660  0.5617
 3488TIP3   OH234658   1.097   0.274   2.096 -0.1121 -0.2858 -0.0588
 3488TIP3    H134659   1.016   0.306   2.135 -1.0213 -1.4508 -0.9188
 3488TIP3    H234660   1.102   0.317   2.011 -0.3598 -0.9703 -0.4259
 3489TIP3   OH234661   2.503   2.635   3.844 -0.3671 -0.4818  0.5291
 3489TIP3    H134662   2.531   2.581   3.917  0.5496  0.6635  1.0573
 3489TIP3    H234663   2.409   2.618   3.836 -0.0274 -2.5120  0.3270
 3490TIP3   OH234664  -1.567  -0.980   5.588 -0.0837 -0.1268  0.7125
 3490TIP3    H134665  -1.475  -0.988   5.562 -0.2748 -0.7704  0.2133
 3490TIP3    H234666  -1.577  -1.043   5.660  0.4014  1.5285  2.3023
 3491TIP3   OH234667   3.331  -1.459   5.229  0.2510 -0.1129  0.0087
 3491TIP3    H134668   3.416  -1.416   5.224 -0.5040  1.2638 -2.0773
 3491TIP3    H234669   3.308  -1.480   5.139 -1.9188  0.1464  0.4338
 3492TIP3   OH234670   1.220  -1.394   5.893 -0.0414  0.0747  0.1299
 3492TIP3    H134671   1.233  -1.480   5.934  0.9788  1.3132  2.6347
 3492TIP3    H234672   1.125  -1.380   5.896 -0.1142 -0.5035  0.7492
 3493TIP3   OH234673  -2.950   1.309   4.936 -0.5793 -0.0615 -0.0410
 3493TIP3    H134674  -2.970   1.401   4.950 -2.3444 -0.1897 -1.3622
 3493TIP3    H234675  -3.009   1.262   4.995  0.3761 -0.3644  0.6951
 3494TIP3   OH234676   2.209  -0.894   4.115  0.4667 -0.3404  0.0926
 3494TIP3    H134677   2.198  -0.821   4.175  0.0938 -0.8956  0.7138
 3494TIP3    H234678   2.127  -0.899   4.067  0.3600 -0.5567  0.2930
 3495TIP3   OH234679   2.543   0.941   5.945  0.3543 -0.3353 -0.1376
 3495TIP3    H134680   2.483   1.016   5.947  2.1898  1.2034  1.5790
 3495TIP3    H234681   2.523   0.892   6.025  0.9761 -0.1140  0.1634
 3496TIP3   OH234682   2.903  -2.362   2.951  0.3267  0.0443 -0.1120
 3496TIP3    H134683   2.936  -2.383   3.039 -1.3645 -0.0034  0.5619
 3496TIP3    H234684   2.808  -2.351   2.964  0.3186  2.1402 -1.5405
 3497TIP3   OH234685   0.527  -2.234   5.200  0.4369  0.0670  0.1303
 3497TIP3    H134686   0.564  -2.306   5.251  2.7290  1.6456  0.8539
 3497TIP3    H234687   0.565  -2.244   5.113  0.2750  0.0653  0.0592
 3498TIP3   OH234688   2.936  -2.454   3.235  0.0542  0.1294  0.0714
 3498TIP3    H134689   3.017  -2.460   3.285 -0.0852 -1.2481  0.1957
 3498TIP3    H234690   2.867  -2.453   3.301 -0.0545  0.5682 -0.0471
 3499TIP3   OH234691  -2.975  -3.030   3.077 -0.4971  0.3948 -0.0260
 3499TIP3    H134692  -3.070  -3.042   3.074 -0.5851 -1.0725  3.8160
 3499TIP3    H234693  -2.963  -2.944   3.116 -0.3928 -0.5171  2.0869
 3500TIP3   OH234694  -0.438  -0.009   5.313  0.3701  0.1826  0.0846
 3500TIP3    H134695  -0.464   0.042   5.390 -0.0427 -0.4466  0.3693
 3500TIP3    H234696  -0.374  -0.072   5.346  0.5264  0.2031 -0.1768
 3501TIP3   OH234697   2.252  -2.860   5.572 -0.3576 -0.1247 -0.4839
 3501TIP3    H134698   2.274  -2.769   5.594 -0.5807 -0.3287  0.6654
 3501TIP3    H234699   2.158  -2.866   5.587 -0.4483 -0.3893 -1.1577
 3502TIP3   OH234700  -2.011   2.486   2.970  0.1009 -0.0631  0.5930
 3502TIP3    H134701  -1.963   2.423   2.916  0.9409  0.0317  1.2274
 3502TIP3    H234702  -2.093   2.500   2.921  0.8745  0.0916 -0.7017
 3503TIP3   OH234703   3.275   2.694   4.400  0.6151  0.5182  0.6875
 3503TIP3    H134704   3.271   2.789   4.384 -0.1674  0.3573 -0.1593
 3503TIP3    H234705   3.308   2.658   4.317 -1.5668 -0.1633  0.0477
 3504TIP3   OH234706  -0.392   2.912   4.828  0.2568  0.4493 -0.5334
 3504TIP3    H134707  -0.474   2.890   4.783 -0.6392 -0.5316  1.4619
 3504TIP3    H234708  -0.376   2.837   4.886  0.8576  2.0140  1.4333
 3505TIP3   OH234709  -1.512   0.511   2.885  0.0195 -0.5522 -0.1553
 3505TIP3    H134710  -1.508   0.533   2.978  0.4683  1.7265 -0.6669
 3505TIP3    H234711  -1.580   0.568   2.849  0.1424 -1.1016 -1.3175
 3506TIP3   OH234712  -1.940  -0.588   2.471  0.5369 -0.2028  0.0975
 3506TIP3    H134713  -2.009  -0.523   2.457 -0.0118 -0.7522  0.2168
 3506TIP3    H234714  -1.864  -0.552   2.425 -0.5098 -0.7337 -2.2174
 3507TIP3   OH234715  -3.270   3.061   5.200  0.0061 -0.2104 -0.2076
 3507TIP3    H134716  -3.257   2.967   5.212  0.0104 -0.0154  1.6474
 3507TIP3    H234717  -3.182   3.097   5.194  0.0293 -0.4832 -3.0902
 3508TIP3   OH234718  -3.113   2.262   3.233  0.5041 -0.5559  0.1619
 3508TIP3    H134719  -3.047   2.317   3.275  0.0340 -1.2957  1.9541
 3508TIP3    H234720  -3.118   2.296   3.143  0.7607  1.8183  0.9657
 3509TIP3   OH234721   3.159  -1.219   2.968 -0.3227  0.1267 -0.4321
 3509TIP3    H134722   3.230  -1.251   2.913 -0.2292 -0.7128  0.1559
 3509TIP3    H234723   3.200  -1.201   3.052 -0.7489 -0.0956 -0.1727
 3510TIP3   OH234724  -2.871  -1.001   2.808 -0.1007 -0.2015 -0.2844
 3510TIP3    H134725  -2.945  -0.959   2.764  0.0707  0.3858 -0.0287
 3510TIP3    H234726  -2.896  -1.002   2.901 -0.5947 -1.7086 -0.4155
 3511TIP3   OH234727  -2.788   1.698   4.150  0.5097 -0.0266  0.1876
 3511TIP3    H134728  -2.706   1.690   4.199  1.2992  0.5626 -0.9930
 3511TIP3    H234729  -2.850   1.735   4.213  1.9866  2.4507  0.2979
 3512TIP3   OH234730  -0.662   2.484   5.291  0.3663  0.4048  0.0683
 3512TIP3    H134731  -0.740   2.498   5.345  0.4030  0.5825  0.0755
 3512TIP3    H234732  -0.695   2.438   5.214  0.3639 -0.1382  0.3868
 3513TIP3   OH234733   1.333   1.145   3.089  0.2249  0.4009 -0.1373
 3513TIP3    H134734   1.315   1.128   3.182 -0.4834  2.0284  0.0635
 3513TIP3    H234735   1.289   1.075   3.043 -1.9978  1.1930  0.6528
 3514TIP3   OH234736   1.516   2.266   2.707 -0.6532  0.9805 -0.1993
 3514TIP3    H134737   1.527   2.361   2.703 -2.6331  1.2844  0.7336
 3514TIP3    H234738   1.422   2.252   2.697 -0.3681 -0.9126 -0.5749
 3515TIP3   OH234739   1.675   1.126   4.781  0.1075 -0.3938 -0.1422
 3515TIP3    H134740   1.676   1.063   4.709 -1.5447 -0.7032  0.0749
 3515TIP3    H234741   1.590   1.171   4.773  0.4190  0.4266  0.8804
 3516TIP3   OH234742   2.889   3.148   4.837 -0.3149 -0.0447  0.1431
 3516TIP3    H134743   2.841   3.225   4.866  0.3383  0.9095 -1.1787
 3516TIP3    H234744   2.963   3.183   4.788  1.0205 -1.4967  1.0227
 3517TIP3   OH234745  -2.825  -1.282   2.868 -0.1453  0.0436 -0.2395
 3517TIP3    H134746  -2.797  -1.191   2.860 -0.7871  0.2046 -0.7389
 3517TIP3    H234747  -2.899  -1.279   2.929  0.6690 -0.3335  0.8070
 3518TIP3   OH234748   1.037  -0.748   5.121  0.0432  0.3153 -0.6059
 3518TIP3    H134749   1.037  -0.666   5.170  0.5310  2.1137 -3.3511
 3518TIP3    H234750   0.966  -0.738   5.058  1.0964 -0.6547 -2.0171
 3519TIP3   OH234751   3.265   2.108   4.748  0.1857 -0.5137 -0.1234
 3519TIP3    H134752   3.322   2.032   4.741  0.2367 -0.3536 -2.3114
 3519TIP3    H234753   3.179   2.072   4.768  0.6219 -0.9423  1.0234
 3520TIP3   OH234754  -2.471  -2.902   3.082 -0.1655 -0.0361 -0.1997
 3520TIP3    H134755  -2.424  -2.979   3.053 -1.7802 -0.9527 -0.5185
 3520TIP3    H234756  -2.452  -2.835   3.016  1.1478 -0.1724  0.0173
 3521TIP3   OH234757  -1.221   2.595   5.503 -0.0887  0.3479 -0.5689
 3521TIP3    H134758  -1.197   2.687   5.500  0.5858  0.1997 -0.0675
 3521TIP3    H234759  -1.140   2.548   5.481 -0.0637 -0.1497  0.5077
 3522TIP3   OH234760   0.014   1.099   3.451  0.9538  0.3931  0.3209
 3522TIP3    H134761   0.007   1.178   3.504 -1.4600  0.9346 -0.6495
 3522TIP3    H234762   0.057   1.127   3.370 -1.3697  1.2294 -0.7285
 3523TIP3   OH234763   1.222  -0.638   3.967  0.0894  0.1460  0.0791
 3523TIP3    H134764   1.242  -0.544   3.974  1.4028 -0.0880 -0.2930
 3523TIP3    H234765   1.241  -0.673   4.055 -1.9916  0.4714  0.7203
 3524TIP3   OH234766  -0.967   0.136   4.430 -0.0499 -0.2288  0.2584
 3524TIP3    H134767  -0.891   0.143   4.373  0.0432  1.3450  0.5385
 3524TIP3    H234768  -0.954   0.204   4.497 -1.5460 -0.1283  0.4839
 3525TIP3   OH234769  -2.926  -2.375   3.009 -0.3150  0.0920  0.0974
 3525TIP3    H134770  -2.928  -2.314   2.936  1.5368 -0.7631 -0.7325
 3525TIP3    H234771  -2.911  -2.461   2.969 -0.0330 -0.5138  1.4328
 3526TIP3   OH234772   2.981   0.231   5.355  0.4429 -0.4423 -0.1058
 3526TIP3    H134773   2.906   0.219   5.297  0.1981  1.4633 -0.2542
 3526TIP3    H234774   2.969   0.317   5.393  2.3250 -0.2624  0.2152
 3527TIP3   OH234775  -3.215  -1.017   5.184 -0.2425  0.1627 -0.2814
 3527TIP3    H134776  -3.267  -0.961   5.126 -0.2005  1.0104  0.4816
 3527TIP3    H234777  -3.214  -1.103   5.140  1.4096  1.2397 -2.5414
 3528TIP3   OH234778  -1.459   2.206   5.341  0.1543 -0.3880  0.1595
 3528TIP3    H134779  -1.474   2.180   5.432 -2.0447  3.3585  1.0824
 3528TIP3    H234780  -1.525   2.158   5.291  0.6720 -1.6599  0.6505
 3529TIP3   OH234781  -1.931  -3.264   3.829  0.5497  1.2939 -0.3316
 3529TIP3    H134782  -2.021  -3.294   3.834  0.3175  1.3395 -2.9052
 3529TIP3    H234783  -1.897  -3.274   3.918 -1.6480  0.2608  0.4530
 3530TIP3   OH234784   1.564   0.897   4.143 -0.2440  0.0433 -0.0776
 3530TIP3    H134785   1.553   0.815   4.191  1.5598 -0.1413  0.1193
 3530TIP3    H234786   1.584   0.962   4.210 -2.0731  0.7732 -0.1917
 3531TIP3   OH234787  -2.482  -1.726   3.763  0.4145  0.5148 -0.1820
 3531TIP3    H134788  -2.498  -1.820   3.765  1.0985  0.3938 -0.0089
 3531TIP3    H234789  -2.465  -1.703   3.854 -0.4426  0.9357 -0.1234
 3532TIP3   OH234790   2.961   1.461   4.092 -0.4161  0.1118 -0.1345
 3532TIP3    H134791   2.980   1.381   4.140  0.6006 -1.1548 -2.4707
 3532TIP3    H234792   3.040   1.476   4.039  0.1881  3.6981  1.4969
 3533TIP3   OH234793   1.585  -0.421   5.823  0.0748 -0.0835 -0.0827
 3533TIP3    H134794   1.627  -0.348   5.778 -0.7115 -0.6388 -1.7686
 3533TIP3    H234795   1.658  -0.475   5.853  0.6522 -0.9141 -2.7509
 3534TIP3   OH234796   2.187   0.344   4.686 -0.2806 -0.2485 -0.1829
 3534TIP3    H134797   2.198   0.384   4.773  3.8397  0.2035 -0.7116
 3534TIP3    H234798   2.208   0.252   4.699 -2.9129 -0.9349 -0.2346
 3535TIP3   OH234799   1.725  -2.968   4.421 -0.2404 -0.0494 -0.1010
 3535TIP3    H134800   1.742  -2.877   4.444  0.4626 -0.0563 -0.5623
 3535TIP3    H234801   1.694  -3.008   4.502 -2.1618  0.9718 -0.2882
 3536TIP3   OH234802  -3.314   1.962   5.312  0.0360  0.5284 -0.2951
 3536TIP3    H134803  -3.370   2.031   5.347 -0.7284 -0.1238 -0.1931
 3536TIP3    H234804  -3.336   1.885   5.365  2.8465  0.8000  1.4689
 3537TIP3   OH234805   2.870   2.445   3.633  0.4974 -0.2468  0.0443
 3537TIP3    H134806   2.926   2.370   3.610  1.9487  1.0004 -0.6663
 3537TIP3    H234807   2.869   2.446   3.728  1.1772 -0.6634  0.0632
 3538TIP3   OH234808  -2.498  -0.162   4.878  0.3569 -0.3251 -0.0321
 3538TIP3    H134809  -2.424  -0.158   4.939  1.0582 -2.2049 -0.7039
 3538TIP3    H234810  -2.555  -0.230   4.914 -0.6953  0.5590  0.0449
 3539TIP3   OH234811   1.394   1.384   3.293  0.1857 -0.2437 -0.0252
 3539TIP3    H134812   1.304   1.404   3.270  0.5526 -1.5007 -2.8530
 3539TIP3    H234813   1.394   1.291   3.316  0.9961 -0.6756 -1.6558
 3540TIP3   OH234814   0.409   1.816   5.810  0.0447  0.6913 -0.1420
 3540TIP3    H134815   0.496   1.820   5.851 -0.5402 -1.4941  1.5402
 3540TIP3    H234816   0.422   1.849   5.722  2.7414 -0.1792 -0.1546
 3541TIP3   OH234817   0.528   0.069   4.852 -0.6928 -0.5850 -0.2936
 3541TIP3    H134818   0.613   0.026   4.865  0.1104  0.6701 -1.1144
 3541TIP3    H234819   0.511   0.061   4.759 -1.3805 -0.6408 -0.1645
 3542TIP3   OH234820  -3.276   0.481   4.839 -0.1063  0.2845  0.4714
 3542TIP3    H134821  -3.265   0.386   4.845 -1.8727  0.0838  1.3494
 3542TIP3    H234822  -3.353   0.499   4.893  0.4323  2.2823  0.6520
 3543TIP3   OH234823  -1.636  -2.251   3.622  0.2501  0.0178 -0.0099
 3543TIP3    H134824  -1.694  -2.328   3.616 -0.8799  0.8183  0.2378
 3543TIP3    H234825  -1.690  -2.184   3.664  1.7445  0.4625  1.3002
 3544TIP3   OH234826   2.195   0.826   4.092 -0.0062  0.2026 -0.2923
 3544TIP3    H134827   2.218   0.896   4.030  1.1726  0.2024  0.1112
 3544TIP3    H234828   2.279   0.803   4.133 -0.7957  0.4188  1.5454
 3545TIP3   OH234829  -0.010  -1.177   5.377 -0.8024 -0.1203 -0.2117
 3545TIP3    H134830   0.064  -1.183   5.438 -0.5206 -1.1536 -0.6401
 3545TIP3    H234831  -0.029  -1.267   5.352  0.0123  0.3112 -2.7437
 3546TIP3   OH234832   1.239   3.166   2.591  0.1526 -0.4249  0.1373
 3546TIP3    H134833   1.319   3.120   2.566 -0.3719 -0.6960 -1.1024
 3546TIP3    H234834   1.260   3.259   2.583  0.5765 -0.4811  0.5865
 3547TIP3   OH234835   1.897   1.129   4.208  0.0070 -0.4422  0.3321
 3547TIP3    H134836   1.887   1.133   4.303  0.4694 -0.9224  0.4066
 3547TIP3    H234837   1.820   1.175   4.173 -0.4026 -0.6708  0.9261
 3548TIP3   OH234838   1.984   0.661   2.635 -0.4054 -0.0169 -0.4353
 3548TIP3    H134839   1.891   0.681   2.627 -0.3447  0.0230 -1.0753
 3548TIP3    H234840   2.013   0.644   2.546 -0.1979 -1.8763 -0.0438
 3549TIP3   OH234841  -2.482  -0.872   4.240 -0.0688 -0.6136 -0.6419
 3549TIP3    H134842  -2.435  -0.951   4.268 -1.2043 -0.8720  0.6801
 3549TIP3    H234843  -2.514  -0.833   4.322  0.7724  1.4499 -1.2294
 3550TIP3   OH234844  -1.038  -0.396   2.430  0.6217 -0.4636  0.1386
 3550TIP3    H134845  -1.063  -0.351   2.349  2.9499 -1.6442 -1.3486
 3550TIP3    H234846  -1.083  -0.480   2.425 -1.2051  0.3781  1.3666
 3551TIP3   OH234847   0.136   1.596   5.110 -0.0058  0.6252 -0.2227
 3551TIP3    H134848   0.212   1.596   5.168  0.6646 -0.9008 -1.0340
 3551TIP3    H234849   0.061   1.587   5.169  0.6533 -0.8146  0.4577
 3552TIP3   OH234850   0.186  -2.859   3.050 -0.3938 -0.3696 -0.2023
 3552TIP3    H134851   0.256  -2.803   3.016  0.4065 -1.0475  0.2594
 3552TIP3    H234852   0.139  -2.889   2.972 -1.2767  1.4544 -0.4186
 3553TIP3   OH234853   0.768  -0.637   4.415 -0.5442  0.0764  0.1843
 3553TIP3    H134854   0.826  -0.714   4.411 -1.0410 -0.2337 -1.4876
 3553TIP3    H234855   0.825  -0.566   4.445  1.0038 -0.0031 -2.2677
 3554TIP3   OH234856   0.236   0.211   3.933  0.5648  0.7575 -0.1417
 3554TIP3    H134857   0.236   0.300   3.898  0.2479  0.8414  0.0721
 3554TIP3    H234858   0.192   0.159   3.867 -2.0679  1.2898  1.0636
 3555TIP3   OH234859   2.397   2.761   4.748  0.3306 -0.3792 -0.1511
 3555TIP3    H134860   2.437   2.676   4.732  1.6892  0.0010  1.0740
 3555TIP3    H234861   2.471   2.821   4.762 -0.6303  0.5212  1.3603
 3556TIP3   OH234862  -2.601  -2.072   4.395 -0.5976 -0.3690  0.0790
 3556TIP3    H134863  -2.577  -2.161   4.418  0.6708 -0.0767 -0.0070
 3556TIP3    H234864  -2.636  -2.078   4.306 -1.4557 -0.9085  0.4490
 3557TIP3   OH234865   3.316  -1.339   2.563  0.0135  0.2827 -0.3175
 3557TIP3    H134866   3.362  -1.422   2.573 -0.0003  0.3506  0.3436
 3557TIP3    H234867   3.254  -1.355   2.492 -0.1877 -0.3650 -0.0086
 3558TIP3   OH234868   0.104   0.925   4.919 -0.2558  0.5412 -0.8136
 3558TIP3    H134869   0.085   0.850   4.863  0.7351 -0.1194 -0.2993
 3558TIP3    H234870   0.120   0.887   5.006  1.9491  1.1459 -0.9000
 3559TIP3   OH234871  -1.144   1.605   5.160  0.1661 -0.1763 -0.3752
 3559TIP3    H134872  -1.160   1.595   5.066 -0.7964  0.3446 -0.2788
 3559TIP3    H234873  -1.167   1.521   5.198 -1.1565  0.1435 -0.4079
 3560TIP3   OH234874   3.138  -1.177   5.394  0.3205 -0.1243 -0.0515
 3560TIP3    H134875   3.127  -1.175   5.299  0.0042  1.1655 -0.0059
 3560TIP3    H234876   3.064  -1.126   5.428  1.7625  1.5376  0.7520
 3561TIP3   OH234877  -3.007   1.781   5.126 -0.0503 -0.3887  0.3806
 3561TIP3    H134878  -3.097   1.750   5.112 -0.0952  0.2745 -0.9797
 3561TIP3    H234879  -2.990   1.764   5.218 -2.6443  2.1150  1.5096
 3562TIP3   OH234880  -1.707  -3.250   4.027 -0.2912 -0.1709 -0.2777
 3562TIP3    H134881  -1.755  -3.264   4.109  1.6140  0.2154  0.9533
 3562TIP3    H234882  -1.684  -3.157   4.029  2.2400 -0.7527  0.1901
 3563TIP3   OH234883   2.867  -2.943   4.062  0.4219  0.2228  0.1713
 3563TIP3    H134884   2.909  -2.894   4.133  0.8566 -0.2459  0.2481
 3563TIP3    H234885   2.838  -3.025   4.104 -0.5823  0.5342  0.1206
 3564TIP3   OH234886   1.052  -0.390   2.064  0.2215 -0.3969 -0.0257
 3564TIP3    H134887   1.000  -0.415   1.987  0.4221  0.6556 -0.5282
 3564TIP3    H234888   1.048  -0.466   2.122 -2.4775 -0.1443  0.2712
 3565TIP3   OH234889   3.017   2.341   5.475  0.1265 -0.2695  0.1842
 3565TIP3    H134890   2.933   2.332   5.520 -0.2892  0.9728 -0.2941
 3565TIP3    H234891   3.000   2.312   5.386  0.3827 -0.6324  0.2486
 3566TIP3   OH234892  -0.345   0.442   4.336 -0.6398 -0.1140 -0.1309
 3566TIP3    H134893  -0.273   0.497   4.365 -1.0100  1.0654 -1.3168
 3566TIP3    H234894  -0.377   0.485   4.257 -2.0429 -1.1207 -0.1494
 3567TIP3   OH234895  -1.882  -2.451   5.090  0.4142  0.3391  0.1776
 3567TIP3    H134896  -1.860  -2.368   5.132  1.0994  0.7796 -0.9953
 3567TIP3    H234897  -1.909  -2.508   5.162 -0.3152  1.6434  0.9901
 3568TIP3   OH234898   1.285   3.367   3.068  0.1090 -0.1789 -0.8866
 3568TIP3    H134899   1.358   3.417   3.104  0.5620  0.0962 -2.1582
 3568TIP3    H234900   1.250   3.319   3.143  1.4718 -0.1801 -0.2282
 3569TIP3   OH234901   0.940   2.092   3.186 -0.0928 -0.4904  0.1657
 3569TIP3    H134902   0.948   2.135   3.271 -0.2609 -0.3461  0.1102
 3569TIP3    H234903   1.030   2.080   3.156 -0.0524  0.1483  0.0160
 3570TIP3   OH234904  -2.401   3.033   5.922 -0.0995 -0.5727  0.4066
 3570TIP3    H134905  -2.315   3.075   5.918  0.1153 -0.9010  1.2301
 3570TIP3    H234906  -2.462   3.104   5.940 -0.1819 -0.1478 -1.4259
 3571TIP3   OH234907  -2.924  -2.589   2.030  0.6653  0.8114 -0.1295
 3571TIP3    H134908  -3.014  -2.577   2.059  0.5625 -1.3685  0.6420
 3571TIP3    H234909  -2.931  -2.647   1.954  1.3908  0.8944 -0.2699
 3572TIP3   OH234910  -1.068   2.575   2.883 -0.0508  0.0191  0.5526
 3572TIP3    H134911  -1.137   2.641   2.890  0.9280  0.9972  1.2908
 3572TIP3    H234912  -1.015   2.587   2.962  0.6726 -1.0561  0.2551
 3573TIP3   OH234913   1.105  -3.208   2.917  0.4102  0.3009  0.0017
 3573TIP3    H134914   1.193  -3.231   2.948 -0.0735 -2.0703 -0.1541
 3573TIP3    H234915   1.119  -3.138   2.854  2.0718  0.6992  0.7661
 3574TIP3   OH234916   2.716  -3.165   5.162 -0.4445  0.1437 -0.0122
 3574TIP3    H134917   2.704  -3.138   5.253  2.4485 -1.6508  1.0356
 3574TIP3    H234918   2.769  -3.096   5.124  0.1078 -0.0886  0.3134
 3575TIP3   OH234919  -0.800   3.177   4.471  0.0242 -0.5495 -0.1333
 3575TIP3    H134920  -0.790   3.233   4.548  0.1549 -1.2744  0.3910
 3575TIP3    H234921  -0.809   3.088   4.507  0.1048 -0.9017 -0.9549
 3576TIP3   OH234922  -1.669  -0.497   4.969 -0.3023 -0.0671 -0.1681
 3576TIP3    H134923  -1.638  -0.513   4.880  0.6880  0.2487  0.1121
 3576TIP3    H234924  -1.763  -0.482   4.960 -0.2560 -0.3352 -1.1196
 3577TIP3   OH234925   1.265   2.724   3.402 -0.5234  0.0641  0.1219
 3577TIP3    H134926   1.186   2.698   3.451 -1.0455  0.4076 -0.5256
 3577TIP3    H234927   1.337   2.680   3.448 -1.1529 -0.7308  0.3766
 3578TIP3   OH234928   3.204   2.637   4.044 -0.4264 -0.3229 -0.6750
 3578TIP3    H134929   3.132   2.579   4.068  1.1106 -2.2176 -0.4431
 3578TIP3    H234930   3.280   2.602   4.091  0.5436  2.0179 -0.3759
 3579TIP3   OH234931   2.914   0.684   4.288 -0.1269  0.2897  0.1951
 3579TIP3    H134932   2.984   0.689   4.223 -0.8858  0.2894 -0.6626
 3579TIP3    H234933   2.837   0.656   4.237 -0.6638 -0.0460  1.1664
 3580TIP3   OH234934   0.497  -0.085   3.518  0.5810  0.5770  0.1900
 3580TIP3    H134935   0.554  -0.017   3.553 -0.1032  0.7395  1.0240
 3580TIP3    H234936   0.505  -0.158   3.579 -0.4614  0.7856  0.6084
 3581TIP3   OH234937   1.472   0.990   5.447  0.4613 -0.9648 -0.2143
 3581TIP3    H134938   1.428   1.071   5.474  0.5347 -0.8684 -0.3844
 3581TIP3    H234939   1.444   0.926   5.512 -0.3071 -1.0218 -0.5858
 3582TIP3   OH234940   2.713   0.779   3.872  0.1939  0.4327  0.5319
 3582TIP3    H134941   2.733   0.844   3.940  2.9364  0.2192  0.0671
 3582TIP3    H234942   2.795   0.771   3.822 -1.1395 -0.8108 -1.6356
 3583TIP3   OH234943  -1.346  -0.639   3.890  0.4655  0.5162  0.5960
 3583TIP3    H134944  -1.407  -0.696   3.844  1.8066 -0.7828  0.3776
 3583TIP3    H234945  -1.382  -0.551   3.877 -0.5623 -0.0610 -0.7670
 3584TIP3   OH234946   1.514  -1.115   4.293 -0.0895 -0.2212 -0.1437
 3584TIP3    H134947   1.463  -1.109   4.212  0.1639  0.3298 -0.2702
 3584TIP3    H234948   1.497  -1.203   4.325  0.2855 -0.6655 -1.1152
 3585TIP3   OH234949  -1.515   1.390   5.288 -0.4214 -0.0660 -0.0977
 3585TIP3    H134950  -1.508   1.380   5.193  0.1344  0.2029 -0.0884
 3585TIP3    H234951  -1.450   1.328   5.323  0.7089  1.1707  0.0504
 3586TIP3   OH234952   3.237  -0.877   4.524  0.3621 -0.4016  0.4536
 3586TIP3    H134953   3.170  -0.911   4.584 -0.1904  0.4880  0.3529
 3586TIP3    H234954   3.193  -0.808   4.476  1.2990  0.0398  0.2127
 3587TIP3   OH234955  -3.259  -1.544   2.965  0.0118 -0.2300 -0.4903
 3587TIP3    H134956  -3.346  -1.565   2.998 -0.0289 -1.4775 -1.3291
 3587TIP3    H234957  -3.201  -1.603   3.013  0.1955 -0.5575 -1.1041
 3588TIP3   OH234958   0.447   2.501   3.611  0.2549 -0.3351  0.8064
 3588TIP3    H134959   0.476   2.417   3.646  0.5235 -0.0679  1.2294
 3588TIP3    H234960   0.524   2.537   3.567 -0.4791 -1.4093 -1.5760
 3589TIP3   OH234961   0.883   1.867   5.484 -0.2780  0.4895 -0.1610
 3589TIP3    H134962   0.854   1.919   5.559 -1.4448  0.8806 -0.8614
 3589TIP3    H234963   0.969   1.902   5.463  0.1828  0.2086  1.1401
 3590TIP3   OH234964  -2.171   0.960   1.851 -0.2322 -0.3453 -0.4588
 3590TIP3    H134965  -2.203   0.882   1.805  1.5328 -1.1460 -0.3800
 3590TIP3    H234966  -2.096   0.930   1.902  2.2712  1.8914 -2.5331
 3591TIP3   OH234967   1.002   0.477   2.940  0.1308  0.4977 -0.0279
 3591TIP3    H134968   0.913   0.442   2.938  0.5982 -0.6781 -1.2151
 3591TIP3    H234969   1.024   0.480   3.033 -0.6905 -0.4056  0.2100
 3592TIP3   OH234970   1.177  -0.795   4.728 -0.0348  0.6514  0.1504
 3592TIP3    H134971   1.212  -0.777   4.640  1.5563 -1.4107  0.2819
 3592TIP3    H234972   1.172  -0.709   4.769  2.4115  1.3733 -0.8497
 3593TIP3   OH234973   1.872   3.171   5.853 -0.9197 -0.4175 -0.4356
 3593TIP3    H134974   1.823   3.115   5.793 -1.8048  0.0560 -0.1651
 3593TIP3    H234975   1.853   3.136   5.940  1.5749 -2.0749 -0.4395
 3594TIP3   OH234976   1.006  -0.586   3.793 -0.2609 -0.2063  0.1300
 3594TIP3    H134977   1.087  -0.602   3.841  1.7168  1.8432 -2.2398
 3594TIP3    H234978   1.015  -0.638   3.714 -0.0483  1.8284 -1.2637
 3595TIP3   OH234979  -1.326   0.215   5.047  0.1542 -0.0331  0.3239
 3595TIP3    H134980  -1.293   0.137   5.002 -0.2885 -0.0533  0.0378
 3595TIP3    H234981  -1.268   0.224   5.123  0.0208 -0.8214  0.5299
 3596TIP3   OH234982   0.131  -2.694   4.997 -0.0685  0.1383  0.3503
 3596TIP3    H134983   0.096  -2.618   4.951 -2.0823 -1.1024 -0.2921
 3596TIP3    H234984   0.123  -2.766   4.935  2.7928 -0.4788  0.5407
 3597TIP3   OH234985  -3.202  -0.820   4.940 -0.2060  0.7326  0.1928
 3597TIP3    H134986  -3.266  -0.889   4.920 -0.0102  0.2396  1.2311
 3597TIP3    H234987  -3.157  -0.804   4.857 -0.6118 -0.0203 -0.1771
 3598TIP3   OH234988   2.732  -2.830   5.324 -0.2247 -0.0189 -0.1285
 3598TIP3    H134989   2.809  -2.873   5.361  0.7794 -0.1823 -2.2501
 3598TIP3    H234990   2.658  -2.866   5.373  0.9148 -1.1887  0.7857
 3599TIP3   OH234991  -1.624   2.640   2.425  0.2877  0.3262 -0.6524
 3599TIP3    H134992  -1.531   2.660   2.415  0.8997 -0.4234  2.4284
 3599TIP3    H234993  -1.651   2.690   2.503 -1.1633 -1.4869  0.1012
 3600TIP3   OH234994   3.150  -2.273   3.655 -0.2732 -0.1425 -0.4107
 3600TIP3    H134995   3.235  -2.242   3.688  0.8322 -0.3473 -2.8366
 3600TIP3    H234996   3.117  -2.200   3.602 -0.2982 -1.0317 -1.6702
 3601TIP3   OH234997  -1.117   2.316   4.600 -0.4579 -0.5628 -0.0882
 3601TIP3    H134998  -1.065   2.299   4.522 -1.3401 -1.1979 -0.5497
 3601TIP3    H234999  -1.160   2.233   4.619  0.3765 -0.6650  1.5781
 3602TIP3   OH235000   1.024   2.454   2.950 -0.5887  0.1010 -0.0526
 3602TIP3    H135001   1.012   2.410   2.866 -1.4351 -0.6293  0.4241
 3602TIP3    H235002   1.115   2.436   2.974 -0.0023  1.2390 -1.2964
 3603TIP3   OH235003  -0.932  -1.037   4.057 -0.1513  0.2777  0.3227
 3603TIP3    H135004  -0.920  -0.946   4.084 -2.2412  0.2696  1.5900
 3603TIP3    H235005  -1.026  -1.043   4.038  0.0034 -1.5366 -0.0054
 3604TIP3   OH235006  -3.345   0.619   5.467  0.0289  0.5909  0.7920
 3604TIP3    H135007  -3.328   0.533   5.428  1.7552  1.9928 -1.8772
 3604TIP3    H235008  -3.270   0.634   5.525 -0.7892 -0.0540  2.0691
 3605TIP3   OH235009   2.012  -0.075   3.291 -0.4251 -0.3763 -0.1784
 3605TIP3    H135010   2.003  -0.167   3.266  0.0914  0.0238 -2.0050
 3605TIP3    H235011   2.078  -0.076   3.360 -0.2609 -1.3577 -0.3237
 3606TIP3   OH235012  -1.112  -2.336   5.075 -0.4456  0.0814  0.2746
 3606TIP3    H135013  -1.040  -2.325   5.013  0.2001 -2.2912  0.4918
 3606TIP3    H235014  -1.134  -2.247   5.104  1.0359  1.0068 -1.3000
 3607TIP3   OH235015   2.063  -1.324   3.435 -0.2504  0.0758  0.2385
 3607TIP3    H135016   2.111  -1.382   3.494 -0.2164 -1.5473 -1.3000
 3607TIP3    H235017   2.129  -1.293   3.373 -0.5481  0.6420  0.1951
 3608TIP3   OH235018   3.033   1.434   3.665  0.1224 -0.2559 -0.3646
 3608TIP3    H135019   2.990   1.511   3.704  0.4416 -0.9400  1.4009
 3608TIP3    H235020   3.109   1.470   3.619  0.3671  0.4827  0.5888
 3609TIP3   OH235021  -1.344  -0.899   4.705  0.4315  0.1781 -0.6638
 3609TIP3    H135022  -1.304  -0.986   4.711  0.1060  0.0283 -0.6775
 3609TIP3    H235023  -1.430  -0.915   4.667  0.3325  0.4974 -0.5717
 3610TIP3   OH235024   0.897  -1.426   5.369 -0.1878  0.2823 -0.0330
 3610TIP3    H135025   0.841  -1.502   5.352 -1.2708  0.7556  1.2476
 3610TIP3    H235026   0.900  -1.419   5.464 -1.1357  2.5414 -0.1025
 3611TIP3   OH235027  -2.227  -2.467   2.392 -0.6988  0.6305  0.2650
 3611TIP3    H135028  -2.174  -2.546   2.389 -2.9634 -0.9598  0.2042
 3611TIP3    H235029  -2.221  -2.436   2.482 -3.6423 -2.5135  1.7688
 3612TIP3   OH235030   1.496   1.945   3.748 -0.3617 -0.2223  0.5638
 3612TIP3    H135031   1.487   2.040   3.755  3.5450  0.5722 -1.9073
 3612TIP3    H235032   1.532   1.918   3.833 -0.8018  0.6289  1.0317
 3613TIP3   OH235033  -2.952  -2.763   3.210 -0.3948 -0.1712 -0.1111
 3613TIP3    H135034  -3.020  -2.699   3.230  1.0097  1.3494  0.0586
 3613TIP3    H235035  -2.900  -2.722   3.141  1.2281 -0.5822  0.8105
 3614TIP3   OH235036   1.931   0.617   5.700 -0.1034  0.3268  0.1897
 3614TIP3    H135037   1.989   0.693   5.709 -0.5417  0.9229 -1.4976
 3614TIP3    H235038   1.985   0.542   5.722  1.1373  0.9328 -0.6837
 3615TIP3   OH235039   0.039  -1.722   3.782  0.2305  0.7044 -1.1878
 3615TIP3    H135040  -0.014  -1.643   3.789 -2.0342 -0.8470  3.5918
 3615TIP3    H235041   0.107  -1.712   3.848 -0.1581 -1.2976 -0.4072
 3616TIP3   OH235042   2.080   2.223   3.107  0.3520  0.0572 -0.0975
 3616TIP3    H135043   2.139   2.271   3.165  1.0606 -1.8662  0.8618
 3616TIP3    H235044   2.104   2.250   3.019  1.7549  0.3119  0.3506
 3617TIP3   OH235045   1.971  -0.548   4.566 -0.1471 -0.6151  0.1311
 3617TIP3    H135046   1.936  -0.608   4.500  0.8606 -0.0492 -0.9506
 3617TIP3    H235047   2.000  -0.472   4.517 -1.8197  1.0272  1.5150
 3618TIP3   OH235048   1.180  -2.423   5.514 -0.1076 -0.0177  0.3938
 3618TIP3    H135049   1.241  -2.449   5.583  1.9968  1.1017 -0.9260
 3618TIP3    H235050   1.204  -2.479   5.440 -1.4273 -0.2820  0.1498
 3619TIP3   OH235051  -2.483  -0.373   4.044  0.3814 -0.0589  0.1645
 3619TIP3    H135052  -2.519  -0.343   3.961 -0.9292 -0.1332  0.6841
 3619TIP3    H235053  -2.392  -0.344   4.043  0.3573  0.0125 -1.2505
 3620TIP3   OH235054   1.649  -0.976   2.947  0.1613  0.6534  0.3431
 3620TIP3    H135055   1.637  -0.949   2.856 -0.2295  1.0523  0.5076
 3620TIP3    H235056   1.572  -0.941   2.993  0.5887  0.8703  0.9125
 3621TIP3   OH235057   3.077   2.796   4.583  0.7558 -0.1494  0.1968
 3621TIP3    H135058   3.017   2.860   4.544  0.1936 -0.0498  1.2016
 3621TIP3    H235059   3.105   2.741   4.509  0.3357  0.5269 -0.4760
 3622TIP3   OH235060   2.853   1.659   3.757  0.4001 -0.6056 -0.4918
 3622TIP3    H135061   2.805   1.583   3.723  1.7421 -0.8522 -1.9567
 3622TIP3    H235062   2.816   1.733   3.709  0.7904 -0.6681 -0.8947
 3623TIP3   OH235063  -0.934   0.244   3.753  0.5991 -0.5843  0.4686
 3623TIP3    H135064  -0.860   0.187   3.772  0.3202 -0.4604  2.0184
 3623TIP3    H235065  -1.008   0.184   3.738  0.5342 -0.6556  1.0726
 3624TIP3   OH235066   1.618   1.450   4.917 -0.8701  0.0723  0.3227
 3624TIP3    H135067   1.677   1.405   4.977 -1.0616 -1.0747 -0.3059
 3624TIP3    H235068   1.531   1.415   4.938 -0.9530 -0.2817 -0.5386
 3625TIP3   OH235069  -2.279  -1.975   3.702 -0.7868 -0.1296  0.2153
 3625TIP3    H135070  -2.258  -2.058   3.744 -0.9985 -0.5127 -0.4082
 3625TIP3    H235071  -2.368  -1.956   3.731 -1.3439 -0.9394 -0.8589
 3626TIP3   OH235072  -0.996   1.616   4.431 -0.5828 -0.8280  0.4247
 3626TIP3    H135073  -1.038   1.584   4.351  0.6073 -0.2695 -0.4412
 3626TIP3    H235074  -0.966   1.537   4.475 -1.1721 -1.1338  0.2960
 3627TIP3   OH235075   2.203  -3.212   3.299  0.0256  0.4327  0.0228
 3627TIP3    H135076   2.121  -3.261   3.291  0.6706 -0.8411  0.7443
 3627TIP3    H235077   2.184  -3.126   3.262 -1.1396 -0.3819 -1.3610
 3628TIP3   OH235078  -1.458   1.671   5.674 -0.8241  0.1459 -0.1186
 3628TIP3    H135079  -1.365   1.690   5.687 -0.4370 -0.1036 -2.1165
 3628TIP3    H235080  -1.504   1.747   5.709  0.1767  0.6247  0.1862
 3629TIP3   OH235081  -2.287   0.696   1.795  0.1947  0.5657  0.0820
 3629TIP3    H135082  -2.364   0.646   1.767  0.5807 -0.7453  1.2415
 3629TIP3    H235083  -2.264   0.659   1.880  1.2113  1.9670  0.4473
 3630TIP3   OH235084  -3.191  -0.006   5.057 -0.2006  0.7883 -1.0781
 3630TIP3    H135085  -3.165   0.024   5.144 -0.4117 -0.8761 -0.4016
 3630TIP3    H235086  -3.263  -0.067   5.073 -1.3715  1.7092 -2.5612
 3631TIP3   OH235087   1.129   1.430   5.301 -0.5459 -0.0375 -0.0358
 3631TIP3    H135088   1.144   1.502   5.241  2.1536 -0.4250  0.0777
 3631TIP3    H235089   1.096   1.472   5.381  2.2418  1.3528  0.5120
 3632TIP3   OH235090  -1.241   3.099   4.868  0.0824  0.1166 -0.1418
 3632TIP3    H135091  -1.183   3.024   4.854  0.8310  0.5022  0.7827
 3632TIP3    H235092  -1.259   3.133   4.780 -0.2468 -1.1137 -0.5726
 3633TIP3   OH235093   2.258  -1.247   5.825 -0.8655  0.6428  0.1771
 3633TIP3    H135094   2.339  -1.274   5.781 -0.4888  0.2153  1.1088
 3633TIP3    H235095   2.276  -1.160   5.858 -1.4315  1.3063 -1.1880
 3634TIP3   OH235096  -2.133  -2.744   5.425 -0.4712 -0.4920  0.2496
 3634TIP3    H135097  -2.073  -2.672   5.405 -0.6299 -0.6499 -0.8611
 3634TIP3    H235098  -2.085  -2.822   5.397 -0.7607 -0.7167  0.3776
 3635TIP3   OH235099  -0.554   0.939   4.251 -0.6308 -0.2070 -0.2334
 3635TIP3    H135100  -0.515   1.015   4.208 -0.4340 -0.2389 -0.1144
 3635TIP3    H235101  -0.623   0.910   4.192  0.9862 -1.5388 -1.5660
 3636TIP3   OH235102   2.507   0.620   4.448  0.2140  0.3564 -0.2228
 3636TIP3    H135103   2.558   0.674   4.508 -0.5739  0.4611  0.3747
 3636TIP3    H235104   2.565   0.547   4.426  0.3812  0.0909  1.0081
 3637TIP3   OH235105  -3.272   0.286   4.390 -0.5087  0.2253 -0.3085
 3637TIP3    H135106  -3.207   0.337   4.438 -1.1678 -0.2138  1.0864
 3637TIP3    H235107  -3.331   0.252   4.457 -1.1452 -0.8611 -1.3765
 3638TIP3   OH235108   1.046  -0.797   2.985  0.1630  0.2445 -0.2074
 3638TIP3    H135109   1.088  -0.843   2.912  0.7396  2.5513 -1.4215
 3638TIP3    H235110   0.957  -0.780   2.954 -0.3256 -0.7369  0.5860
 3639TIP3   OH235111  -2.919   2.253   4.544 -0.2175 -0.5777 -0.2096
 3639TIP3    H135112  -2.873   2.333   4.570  1.7916 -2.2397  1.7293
 3639TIP3    H235113  -2.983   2.238   4.613  0.8704 -1.7063  0.6030
 3640TIP3   OH235114   0.743  -1.509   4.355  0.2184  0.3114  0.8424
 3640TIP3    H135115   0.697  -1.436   4.397  1.9669  0.4496  2.7084
 3640TIP3    H235116   0.755  -1.573   4.426  1.6066 -0.3284  0.0668
 3641TIP3   OH235117  -1.899  -0.901   3.038  0.4113  0.0640 -0.9661
 3641TIP3    H135118  -1.987  -0.896   3.002 -0.4987 -1.3075  0.8977
 3641TIP3    H235119  -1.859  -0.817   3.014 -2.2655  1.8623  0.2981
 3642TIP3   OH235120   1.489  -2.476   3.166  0.4196  0.5396  0.1006
 3642TIP3    H135121   1.556  -2.507   3.105 -0.4772  0.4470 -0.8491
 3642TIP3    H235122   1.480  -2.383   3.146 -2.6162 -0.2059 -2.6520
 3643TIP3   OH235123  -0.987  -1.197   5.527  0.3768 -0.7295  0.3589
 3643TIP3    H135124  -1.083  -1.199   5.522  0.3490  0.8847 -0.1901
 3643TIP3    H235125  -0.968  -1.214   5.619 -0.4076 -1.5330  0.3852
 3644TIP3   OH235126  -2.459  -1.470   4.958 -0.0247  0.4104 -1.1380
 3644TIP3    H135127  -2.479  -1.392   5.011  1.7644 -1.1368  2.1085
 3644TIP3    H235128  -2.543  -1.516   4.952 -0.1884  0.2773  1.1328
 3645TIP3   OH235129   1.131  -0.655   5.502 -0.1313 -0.0927  0.1293
 3645TIP3    H135130   1.173  -0.576   5.534  1.6089 -0.7467 -0.4184
 3645TIP3    H235131   1.066  -0.624   5.439  0.6694  0.9078 -0.2263
 3646TIP3   OH235132   1.187   0.636   5.647 -0.6219  0.0677  0.4067
 3646TIP3    H135133   1.242   0.588   5.584 -0.7988  1.6676 -1.0547
 3646TIP3    H235134   1.155   0.569   5.707  0.5595 -1.3535 -0.4789
 3647TIP3   OH235135   1.285  -0.505   5.875 -0.2500 -0.7554 -0.8224
 3647TIP3    H135136   1.307  -0.597   5.890  0.7341 -0.8520 -2.5570
 3647TIP3    H235137   1.361  -0.469   5.829 -0.4690  1.0361  0.1404
 3648TIP3   OH235138  -2.700   1.487   3.242  0.1794  0.6354  0.3738
 3648TIP3    H135139  -2.612   1.449   3.243 -0.3172 -0.6132 -0.5360
 3648TIP3    H235140  -2.688   1.576   3.277  1.8642  0.6417 -0.1029
 3649TIP3   OH235141   3.041  -2.644   4.817  0.0998 -0.3695 -0.0541
 3649TIP3    H135142   3.042  -2.582   4.744 -1.8199  2.6272  2.2053
 3649TIP3    H235143   3.087  -2.599   4.888 -1.7325 -1.2734  1.8366
 3650TIP3   OH235144  -1.004   0.898   4.218 -0.1184  0.3634  0.1396
 3650TIP3    H135145  -0.989   0.843   4.141  0.6971 -0.3413  0.7733
 3650TIP3    H235146  -1.031   0.836   4.286 -4.3561  1.3363 -0.4037
 3651TIP3   OH235147   0.563  -2.257   3.789 -0.0136  0.3250 -0.1978
 3651TIP3    H135148   0.629  -2.269   3.720 -1.3685 -1.4220 -1.2820
 3651TIP3    H235149   0.537  -2.166   3.781  0.4115  0.3629 -1.5151
 3652TIP3   OH235150   2.287  -1.264   4.459  0.1327  0.4328  0.4261
 3652TIP3    H135151   2.382  -1.257   4.451  0.1691  0.1422  0.5924
 3652TIP3    H235152   2.258  -1.298   4.374  0.2811 -0.4231  0.7069
 3653TIP3   OH235153  -0.667  -0.414   5.713  0.4269 -1.0342  0.1765
 3653TIP3    H135154  -0.761  -0.413   5.693  0.4667 -2.9603 -0.2699
 3653TIP3    H235155  -0.659  -0.363   5.793 -0.6771  1.0200 -0.9359
 3654TIP3   OH235156  -2.584   1.499   3.840 -0.1558 -0.5284 -0.2162
 3654TIP3    H135157  -2.679   1.516   3.840  0.0604  0.9970  1.1936
 3654TIP3    H235158  -2.550   1.557   3.908  1.9789 -0.1131 -1.5500
 3655TIP3   OH235159  -0.146  -2.816   5.361  0.2553  0.3693 -0.2791
 3655TIP3    H135160  -0.193  -2.771   5.431 -0.8681 -0.8343 -0.2160
 3655TIP3    H235161  -0.146  -2.909   5.387  0.3946 -0.0124 -1.5469
 3656TIP3   OH235162   2.268  -0.911   5.361  0.1269  0.3283 -0.2798
 3656TIP3    H135163   2.295  -0.979   5.298 -2.5097 -0.3174 -0.8242
 3656TIP3    H235164   2.195  -0.866   5.318  1.6490  3.4812  0.1578
 3657TIP3   OH235165  -2.191   2.312   3.702  0.1277 -0.3108  0.3465
 3657TIP3    H135166  -2.274   2.264   3.698 -0.8948  1.3556  0.5242
 3657TIP3    H235167  -2.164   2.322   3.611 -0.7185  0.4866  0.1626
 3658TIP3   OH235168  -2.500   2.809   3.856 -0.0777  0.3910  0.3273
 3658TIP3    H135169  -2.447   2.865   3.912  0.3964  0.8000 -0.5230
 3658TIP3    H235170  -2.551   2.869   3.801 -1.8413  0.0306  1.4654
 3659TIP3   OH235171  -0.188  -0.458   3.457 -0.7928  0.2766 -0.0023
 3659TIP3    H135172  -0.229  -0.390   3.404 -0.7784 -0.0246 -0.4084
 3659TIP3    H235173  -0.168  -0.528   3.395  0.2649  0.3815  0.1987
 3660TIP3   OH235174   0.657  -2.705   4.208  0.3219  0.8015  0.0876
 3660TIP3    H135175   0.637  -2.614   4.232 -2.4933  0.2563  0.1017
 3660TIP3    H235176   0.679  -2.701   4.115 -0.0501  1.4712  0.0232
 3661TIP3   OH235177   0.010   1.158   4.803  0.2655  0.0681 -0.0907
 3661TIP3    H135178   0.035   1.094   4.870 -0.9530  0.3947  0.7089
 3661TIP3    H235179   0.015   1.109   4.721  1.3631 -0.4649  0.2667
 3662TIP3   OH235180  -2.151  -1.323   5.078 -0.5070  0.1157  0.0012
 3662TIP3    H135181  -2.203  -1.272   5.017 -0.4476  0.9059  0.5889
 3662TIP3    H235182  -2.064  -1.327   5.039 -0.4333  0.7395  0.0913
 3663TIP3   OH235183   1.635   0.574   5.063 -0.1647  0.1312 -0.0192
 3663TIP3    H135184   1.631   0.669   5.072 -0.9819  0.1836 -0.7784
 3663TIP3    H235185   1.726   0.552   5.079  0.7948  1.4235 -2.9642
 3664TIP3   OH235186  -2.755   0.952   4.028  0.1868 -0.4788 -0.1289
 3664TIP3    H135187  -2.724   0.963   4.118 -1.5987 -0.2367  0.4997
 3664TIP3    H235188  -2.741   1.037   3.987  0.0724 -0.2799  0.2382
 3665TIP3   OH235189  -0.656  -2.682   4.704  0.0004  0.1793 -0.3735
 3665TIP3    H135190  -0.689  -2.771   4.720 -1.3487  0.8329  0.7917
 3665TIP3    H235191  -0.645  -2.645   4.792  0.3113  1.2313 -0.8429
 3666TIP3   OH235192  -2.710   1.047   5.155 -0.2084 -0.0417  0.3713
 3666TIP3    H135193  -2.635   1.103   5.136 -0.6140  0.2327 -0.4695
 3666TIP3    H235194  -2.754   1.036   5.071  0.5358 -2.6438  0.2312
 3667TIP3   OH235195   2.489  -0.603   4.138 -0.7135 -0.0714  0.4089
 3667TIP3    H135196   2.527  -0.586   4.224 -0.6564 -2.3634  0.9014
 3667TIP3    H235197   2.419  -0.539   4.130 -0.7171  0.1909  2.1657
 3668TIP3   OH235198   2.955  -0.098   4.480  0.3988 -0.0597 -0.0148
 3668TIP3    H135199   2.862  -0.078   4.487  0.1531 -0.5417 -1.4931
 3668TIP3    H235200   2.994  -0.060   4.559 -0.9605  0.5983  0.3719
 3669TIP3   OH235201   2.285  -0.642   3.910  0.3955 -0.4481  0.6355
 3669TIP3    H135202   2.197  -0.660   3.878  0.0879  0.1902  1.0783
 3669TIP3    H235203   2.271  -0.579   3.981  1.3281  0.9893 -0.4004
 3670TIP3   OH235204   1.216  -1.799   4.402 -0.2669 -0.3455 -0.2446
 3670TIP3    H135205   1.205  -1.859   4.475  0.0039  0.6282  0.6227
 3670TIP3    H235206   1.277  -1.844   4.343  3.0454  0.5627  2.1993
 3671TIP3   OH235207   2.189   3.134   4.604 -0.2384  0.1997  0.1382
 3671TIP3    H135208   2.203   3.052   4.651  0.8507  0.9149  1.1050
 3671TIP3    H235209   2.249   3.196   4.645 -0.7613  1.3899 -0.8318
 3672TIP3   OH235210   2.530   3.245   3.178 -0.3687  0.1865  0.0175
 3672TIP3    H135211   2.490   3.211   3.258 -0.3985  0.1976  0.0075
 3672TIP3    H235212   2.605   3.188   3.162 -0.3287  0.2188  0.0848
 3673TIP3   OH235213   1.747  -0.671   3.402  0.8423 -0.3305  0.1550
 3673TIP3    H135214   1.706  -0.591   3.369 -0.0218  0.1124  2.1793
 3673TIP3    H235215   1.729  -0.671   3.496 -1.2486 -4.0982 -0.0586
 3674TIP3   OH235216  -0.639  -0.035   5.125 -0.0339  0.6638 -0.4825
 3674TIP3    H135217  -0.562  -0.029   5.182 -0.2259 -2.7794  0.3596
 3674TIP3    H235218  -0.604  -0.060   5.040 -0.1638 -0.6444 -0.1665
 3675TIP3   OH235219  -3.280  -2.760   3.898  0.1897 -0.1505  0.5843
 3675TIP3    H135220  -3.233  -2.709   3.963  0.1616 -0.7567  1.0877
 3675TIP3    H235221  -3.211  -2.806   3.849  0.3063  1.3467 -0.7364
 3676TIP3   OH235222   1.366   0.358   4.436  0.5428  0.4508 -0.2352
 3676TIP3    H135223   1.341   0.449   4.453  2.6073  0.8820  1.0034
 3676TIP3    H235224   1.349   0.313   4.519  0.1589 -0.1386 -0.6304
 3677TIP3   OH235225  -2.098  -0.699   4.216  0.2501  0.0063 -0.1037
 3677TIP3    H135226  -2.168  -0.642   4.248 -0.5433  0.4379 -2.4048
 3677TIP3    H235227  -2.143  -0.778   4.187  0.7218  0.1483 -1.2826
 3678TIP3   OH235228  -0.960   0.097   5.657 -0.1351  0.3503  0.4552
 3678TIP3    H135229  -0.978   0.190   5.644  0.4413  0.4452  0.3210
 3678TIP3    H235230  -0.954   0.087   5.752 -1.8099  0.1331  0.5794
 3679TIP3   OH235231  -3.124  -0.832   3.359 -0.5461  0.8103 -0.4329
 3679TIP3    H135232  -3.093  -0.764   3.418 -2.1715 -0.9418  2.6931
 3679TIP3    H235233  -3.183  -0.786   3.298  0.0432  2.4881  0.2124
 3680TIP3   OH235234  -1.043  -0.818   5.578  0.7985 -0.2522  0.4752
 3680TIP3    H135235  -1.002  -0.865   5.650 -0.0895 -0.5608  0.7826
 3680TIP3    H235236  -0.972  -0.805   5.515  2.3977  2.6228  2.6008
 3681TIP3   OH235237   2.611   1.793   5.699  0.0102 -0.4857  0.1004
 3681TIP3    H135238   2.647   1.706   5.679  0.0494 -1.0737  2.4204
 3681TIP3    H235239   2.625   1.803   5.793 -1.7023  1.2523  0.2219
 3682TIP3   OH235240   1.928  -2.983   2.732 -0.1837  0.4707 -0.1237
 3682TIP3    H135241   1.947  -3.046   2.802 -0.8933  0.0975 -0.2589
 3682TIP3    H235242   1.993  -3.001   2.665 -1.3377 -1.2089 -0.8522
 3683TIP3   OH235243  -1.648   2.648   3.338  0.1122  0.0217  0.1281
 3683TIP3    H135244  -1.650   2.661   3.433 -1.1752 -0.1692  0.1484
 3683TIP3    H235245  -1.692   2.726   3.303 -0.3973 -0.4227 -0.2374
 3684TIP3   OH235246   0.188  -2.045   4.879 -0.3827 -0.3575  0.2432
 3684TIP3    H135247   0.231  -2.065   4.962 -0.0191 -3.0480 -0.4831
 3684TIP3    H235248   0.153  -2.130   4.849 -0.9753  0.6245 -2.0861
 3685TIP3   OH235249   0.484   2.858   4.007 -0.2564 -0.0598  0.2213
 3685TIP3    H135250   0.442   2.914   3.941 -1.1537 -0.2943  0.5787
 3685TIP3    H235251   0.478   2.907   4.088 -0.6082 -0.4667  0.4415
 3686TIP3   OH235252  -3.095  -2.249   5.908  0.3137 -0.0379 -0.2373
 3686TIP3    H135253  -3.189  -2.256   5.889  0.0031 -1.3546  1.5181
 3686TIP3    H235254  -3.072  -2.160   5.883 -1.1013 -0.0784 -1.8982
 3687TIP3   OH235255  -2.696  -2.788   2.456 -0.2810  0.0038 -0.4073
 3687TIP3    H135256  -2.652  -2.728   2.395  0.5728  1.3421  1.4303
 3687TIP3    H235257  -2.676  -2.875   2.421  0.3394  0.7037 -1.9145
 3688TIP3   OH235258  -2.812  -1.556   2.854  0.0359 -0.2119 -0.3442
 3688TIP3    H135259  -2.828  -1.557   2.759  0.2903 -0.7050 -0.3887
 3688TIP3    H235260  -2.796  -1.465   2.875  1.5165 -0.2785 -1.0413
 3689TIP3   OH235261   0.113  -1.626   5.549  0.4853 -0.0661  0.5214
 3689TIP3    H135262   0.168  -1.687   5.598  1.5964  1.5793  1.4468
 3689TIP3    H235263   0.038  -1.610   5.607 -0.1396 -1.0209 -0.0060
 3690TIP3   OH235264  -1.906   2.824   2.953 -0.4535  0.4102 -0.5102
 3690TIP3    H135265  -2.002   2.821   2.954 -0.4476  0.2609 -0.3417
 3690TIP3    H235266  -1.881   2.776   2.874 -0.4608 -1.2097  0.4267
 3691TIP3   OH235267  -1.437  -0.390   5.218 -0.6073  0.7255  0.3134
 3691TIP3    H135268  -1.439  -0.383   5.122  0.4420 -2.7666 -0.1129
 3691TIP3    H235269  -1.344  -0.383   5.240 -0.6153 -0.5141  0.8076
 3692TIP3   OH235270   2.829   0.960   5.888  0.2543 -0.6754  0.9098
 3692TIP3    H135271   2.840   1.053   5.907 -0.8684 -0.2125 -0.4989
 3692TIP3    H235272   2.735   0.945   5.895  0.1732 -1.2106 -0.8612
 3693TIP3   OH235273  -0.002   1.886   4.090 -0.0486 -0.3859 -0.2277
 3693TIP3    H135274   0.084   1.892   4.049  0.3579 -0.2203  0.6214
 3693TIP3    H235275  -0.064   1.892   4.017  0.6447  0.0103 -0.8004
 3694TIP3   OH235276   2.223   0.604   5.536  0.4397 -0.1527 -0.7753
 3694TIP3    H135277   2.293   0.669   5.539 -0.2033  0.6008 -1.8770
 3694TIP3    H235278   2.208   0.588   5.443 -2.7965  1.8570 -0.7518
 3695TIP3   OH235279  -2.950   1.570   4.977  0.5803  0.6310  0.0330
 3695TIP3    H135280  -2.956   1.624   5.056 -1.6042  0.5115  0.0117
 3695TIP3    H235281  -2.958   1.632   4.905 -1.1701  0.4293 -0.0000
 3696TIP3   OH235282  -2.955   2.377   3.436  0.3063 -0.5239  0.0576
 3696TIP3    H135283  -2.928   2.314   3.502  0.2264  0.6177  1.2185
 3696TIP3    H235284  -2.956   2.461   3.482 -0.5503  0.1771 -1.1830
 3697TIP3   OH235285  -1.846  -1.117   5.098  0.4425 -0.1178 -0.0068
 3697TIP3    H135286  -1.780  -1.158   5.154 -0.5039 -0.6310  0.7739
 3697TIP3    H235287  -1.815  -1.135   5.009  0.6660 -1.5492  0.3252
 3698TIP3   OH235288  -1.411   0.084   5.398  0.3329  0.0986  0.0834
 3698TIP3    H135289  -1.441   0.011   5.452  1.2572 -0.4490 -0.1097
 3698TIP3    H235290  -1.359   0.042   5.329 -0.0650  0.8574 -0.6937
 3699TIP3   OH235291   1.184  -3.178   5.277  0.4380 -0.3689  0.6109
 3699TIP3    H135292   1.154  -3.088   5.290  1.0992  0.1926 -1.4107
 3699TIP3    H235293   1.255  -3.189   5.340  1.3132  1.0430 -0.0872
 3700TIP3   OH235294  -1.918  -2.259   3.391  0.0878  0.4915 -0.3237
 3700TIP3    H135295  -1.971  -2.302   3.458 -0.7030  0.3439 -1.0255
 3700TIP3    H235296  -1.920  -2.166   3.414 -1.6239  0.6732 -1.0826
 3701TIP3   OH235297   3.030  -0.070   3.875 -0.0692 -0.1557 -0.0614
 3701TIP3    H135298   3.096  -0.090   3.942 -1.3706 -0.0986  1.2842
 3701TIP3    H235299   2.949  -0.109   3.909 -0.4456 -1.5686 -2.4017
 3702TIP3   OH235300  -2.434  -1.947   3.424 -0.0850 -0.2350 -0.2958
 3702TIP3    H135301  -2.461  -1.962   3.333 -0.2478 -0.6514 -0.1790
 3702TIP3    H235302  -2.464  -1.858   3.443  0.7408  0.1943 -0.9344
 3703TIP3   OH235303   2.549   2.239   4.275  0.2519  0.4661 -0.3333
 3703TIP3    H135304   2.479   2.190   4.318  0.2142  0.9572  0.1832
 3703TIP3    H235305   2.596   2.282   4.346  0.8369  0.4608 -0.7068
 3704TIP3   OH235306  -1.304  -2.488   5.200 -0.4809 -0.7562 -0.3866
 3704TIP3    H135307  -1.351  -2.408   5.226  1.8263 -0.0952  2.3099
 3704TIP3    H235308  -1.244  -2.459   5.132  0.5158 -0.0516  0.7497
 3705TIP3   OH235309  -1.763   1.716   5.262  0.0544  0.0251  0.2145
 3705TIP3    H135310  -1.692   1.697   5.322 -0.8487  0.3280  1.4269
 3705TIP3    H235311  -1.839   1.733   5.319 -1.5571 -2.3547 -1.0233
 3706TIP3   OH235312   2.255  -1.530   3.891 -0.4603 -0.4070  0.1107
 3706TIP3    H135313   2.260  -1.434   3.892 -1.4134 -0.3510  1.2340
 3706TIP3    H235314   2.347  -1.558   3.889 -0.1523  0.5245  0.4278
 3707TIP3   OH235315  -1.944   1.483   2.362  0.2958 -0.3225 -0.0460
 3707TIP3    H135316  -1.994   1.419   2.311 -0.5262 -0.3224  0.7267
 3707TIP3    H235317  -1.875   1.512   2.303 -0.4456 -0.5426 -1.0575
 3708TIP3   OH235318   1.316   1.232   4.196 -0.1296 -0.0790  0.3457
 3708TIP3    H135319   1.284   1.318   4.170 -1.4534 -0.9355 -0.9584
 3708TIP3    H235320   1.277   1.216   4.282  0.8336  0.9635  1.0034
 3709TIP3   OH235321  -0.973  -3.188   4.895 -0.7457  0.3508 -0.6653
 3709TIP3    H135322  -1.007  -3.117   4.841 -0.1151 -0.2263 -1.8699
 3709TIP3    H235323  -0.878  -3.179   4.889 -0.6212 -1.3998 -2.0123
 3710TIP3   OH235324  -1.098  -3.176   2.552  0.0140  0.0801 -0.4771
 3710TIP3    H135325  -1.103  -3.269   2.533  1.5217 -0.0593 -0.3151
 3710TIP3    H235326  -1.082  -3.135   2.468 -1.6919  0.3329 -0.7177
 3711TIP3   OH235327  -0.176   1.641   5.138 -0.6507  0.4271  1.0883
 3711TIP3    H135328  -0.258   1.672   5.177 -1.0428  0.9501 -0.1164
 3711TIP3    H235329  -0.122   1.719   5.129 -0.3029  0.2009  1.2106
 3712TIP3   OH235330   1.292   0.425   2.570 -0.2085  0.0907 -0.2316
 3712TIP3    H135331   1.338   0.466   2.643 -1.1788 -0.4505  0.7140
 3712TIP3    H235332   1.200   0.449   2.583 -0.7718 -2.0561  0.1730
 3713TIP3   OH235333  -1.727  -1.538   5.352 -0.2522  0.7353 -0.2773
 3713TIP3    H135334  -1.822  -1.549   5.365 -0.4243 -0.1462 -1.9086
 3713TIP3    H235335  -1.716  -1.444   5.338 -0.4895  1.2206  2.4151
 3714TIP3   OH235336  -2.953   2.585   6.077  0.0638  0.0962 -0.9702
 3714TIP3    H135337  -3.004   2.594   5.997 -0.8441  0.5004 -0.3625
 3714TIP3    H235338  -3.004   2.525   6.131  0.7355 -0.2759 -0.7375
 3715TIP3   OH235339  -0.060  -3.297   5.224  0.4407 -0.2500 -0.2873
 3715TIP3    H135340  -0.140  -3.263   5.184  1.9501  3.0987 -0.8094
 3715TIP3    H235341  -0.027  -3.361   5.162  0.0967  1.1554 -1.9828
 3716TIP3   OH235342  -2.607   3.225   5.425  0.0844 -0.3531 -0.5594
 3716TIP3    H135343  -2.661   3.277   5.366  2.8174 -0.7911 -3.7481
 3716TIP3    H235344  -2.562   3.289   5.480  1.2483  0.6129 -2.4984
 3717TIP3   OH235345  -3.232  -2.343   5.038  0.0811  0.5034  0.0936
 3717TIP3    H135346  -3.203  -2.429   5.069  1.2073  1.1963  1.0292
 3717TIP3    H235347  -3.199  -2.338   4.948  1.3929  0.5748  0.5608
 3718TIP3   OH235348  -2.855   1.499   4.408 -0.5253 -0.3993  0.6841
 3718TIP3    H135349  -2.930   1.496   4.468 -1.1569  0.8655  0.0072
 3718TIP3    H235350  -2.783   1.533   4.460 -0.5765 -1.0404  1.1833
 3719TIP3   OH235351  -0.490   0.136   4.394  0.2680 -0.2705 -0.4518
 3719TIP3    H135352  -0.465   0.183   4.473 -0.8355 -1.9100  0.9363
 3719TIP3    H235353  -0.582   0.157   4.382 -0.0338 -1.4255 -0.2571
 3720TIP3   OH235354   0.112   2.878   2.982 -0.0927 -0.2982  0.0540
 3720TIP3    H135355   0.017   2.891   2.975 -0.2556 -0.2231  1.9374
 3720TIP3    H235356   0.150   2.946   2.927 -1.1137 -1.7922 -2.6915
 3721TIP3   OH235357  -2.434   2.064   2.149 -0.1681 -0.3043 -0.4815
 3721TIP3    H135358  -2.424   2.133   2.083  0.9637  0.3005  0.2911
 3721TIP3    H235359  -2.345   2.049   2.181 -0.7429 -0.2604  1.2168
 3722TIP3   OH235360  -1.000   2.455   3.738  0.0470 -0.2996  0.4116
 3722TIP3    H135361  -1.085   2.450   3.780  0.9129 -1.5666  2.1433
 3722TIP3    H235362  -0.939   2.475   3.809  1.4779 -1.7337 -0.3565
 3723TIP3   OH235363  -1.837   1.416   3.379 -0.1633  0.2406  0.4670
 3723TIP3    H135364  -1.871   1.444   3.463 -1.5238 -1.6717  0.6411
 3723TIP3    H235365  -1.914   1.380   3.334  0.8309 -0.1620 -0.9685
 3724TIP3   OH235366   1.837  -1.468   3.459 -0.6810  0.2698  0.3360
 3724TIP3    H135367   1.909  -1.408   3.439  0.4336 -0.9482  0.5182
 3724TIP3    H235368   1.873  -1.527   3.525 -2.0697  0.0041  0.8868
 3725TIP3   OH235369   1.559  -0.400   4.477 -0.6043 -0.3529 -0.0921
 3725TIP3    H135370   1.603  -0.373   4.397 -0.5573  0.3995  0.1816
 3725TIP3    H235371   1.631  -0.417   4.539 -0.6736  0.2975  0.1735
 3726TIP3   OH235372  -2.484   0.477   1.801  0.9746  0.2442  0.1963
 3726TIP3    H135373  -2.536   0.412   1.754  0.5378  0.5827  0.2064
 3726TIP3    H235374  -2.529   0.487   1.885 -0.2595  2.1872 -0.6479
 3727TIP3   OH235375   1.500   2.206   3.663 -0.3387  0.0249  0.0085
 3727TIP3    H135376   1.429   2.199   3.600 -0.8516 -0.6549  0.6431
 3727TIP3    H235377   1.486   2.291   3.706 -0.4724  0.1149 -0.2133
 3728TIP3   OH235378   1.638  -2.606   3.359  0.3177 -0.0232  0.4142
 3728TIP3    H135379   1.573  -2.655   3.409  1.7350 -2.0357  0.4134
 3728TIP3    H235380   1.587  -2.554   3.297 -1.3119 -1.1718  0.7263
 3729TIP3   OH235381  -0.009  -3.039   4.649 -0.1941  0.8349  0.0022
 3729TIP3    H135382   0.060  -3.026   4.583 -1.4511  2.3299 -1.0834
 3729TIP3    H235383  -0.047  -3.124   4.626  0.4582  0.5747 -0.1527
 3730TIP3   OH235384  -0.847  -2.274   2.264  0.0493 -0.3782  0.2291
 3730TIP3    H135385  -0.819  -2.355   2.221  0.6408 -0.7185  1.2031
 3730TIP3    H235386  -0.788  -2.266   2.339  0.4492  1.3521 -0.2466
 3731TIP3   OH235387   2.158   0.489   4.960 -0.4713 -0.2859 -0.1204
 3731TIP3    H135388   2.176   0.399   4.989  1.1449  0.4400  1.3524
 3731TIP3    H235389   2.245   0.529   4.952 -1.0568  0.6496 -2.6107
 3732TIP3   OH235390  -0.054  -2.939   4.070 -0.5820 -0.1210 -0.5898
 3732TIP3    H135391  -0.009  -2.899   3.995  1.0639  0.9326  0.8720
 3732TIP3    H235392  -0.141  -2.900   4.070  0.0488  1.3580 -0.8536
 3733TIP3   OH235393  -0.064  -2.119   3.860  0.4039  0.3220  0.6723
 3733TIP3    H135394   0.002  -2.067   3.907  0.5816 -0.0858  0.8768
 3733TIP3    H235395  -0.015  -2.195   3.827  1.0046  1.9231 -2.6286
 3734TIP3   OH235396   0.715  -1.003   5.595 -0.1335  0.4828 -0.2236
 3734TIP3    H135397   0.695  -0.916   5.559 -1.1843  1.1413  1.7630
 3734TIP3    H235398   0.757  -0.985   5.679  0.3212 -0.9533 -0.1123
 3735TIP3   OH235399  -2.966   1.991   3.702  0.2688  0.0257 -0.3088
 3735TIP3    H135400  -2.907   1.960   3.771  0.0922  0.0398 -0.1524
 3735TIP3    H235401  -2.999   1.911   3.662 -1.4129 -0.0340  1.1171
 3736TIP3   OH235402  -1.782  -1.277   5.481 -0.3081 -0.3579 -0.3293
 3736TIP3    H135403  -1.728  -1.221   5.425 -0.3035 -1.8182 -1.8468
 3736TIP3    H235404  -1.872  -1.255   5.456 -0.3571  0.1297  0.2556
 3737TIP3   OH235405  -1.594  -2.725   3.117  0.4625 -0.0309 -0.0888
 3737TIP3    H135406  -1.679  -2.696   3.149  0.0477  0.3291 -1.4783
 3737TIP3    H235407  -1.576  -2.670   3.041  1.2233 -1.1349 -0.7470
 3738TIP3   OH235408  -2.399   0.780   3.446 -0.2142 -0.5180 -0.0554
 3738TIP3    H135409  -2.352   0.769   3.528  0.1132 -0.8872 -0.2903
 3738TIP3    H235410  -2.490   0.756   3.467 -0.1712 -0.4287  0.2413
 3739TIP3   OH235411  -2.827  -0.646   3.179 -0.0044  0.0857  0.6100
 3739TIP3    H135412  -2.911  -0.607   3.203  0.7657  2.0330  0.3642
 3739TIP3    H235413  -2.762  -0.583   3.210  1.3763 -1.3505  0.7518
 3740TIP3   OH235414  -0.846  -2.082   2.094 -0.6317  0.3951  0.1575
 3740TIP3    H135415  -0.761  -2.062   2.054 -0.4002  0.3637  0.6379
 3740TIP3    H235416  -0.830  -2.159   2.149 -1.1570 -0.1286 -0.3962
 3741TIP3   OH235417   2.529  -0.000   2.592  0.2251  0.4400 -0.5097
 3741TIP3    H135418   2.459   0.024   2.532  0.3162 -1.5503 -1.4999
 3741TIP3    H235419   2.504  -0.087   2.625  0.5477  1.1545  1.8052
 3742TIP3   OH235420   1.659   3.305   3.647  0.4063 -0.1359 -0.6152
 3742TIP3    H135421   1.675   3.286   3.554 -0.4078 -0.2502 -0.7468
 3742TIP3    H235422   1.564   3.318   3.652  0.4978  0.2805  0.1325
 3743TIP3   OH235423  -3.028   0.747   5.831 -0.0419  0.2043  0.1545
 3743TIP3    H135424  -3.020   0.840   5.810  0.3998  0.9529  3.1318
 3743TIP3    H235425  -2.939   0.717   5.846 -0.2545 -0.4151  0.2162
 3744TIP3   OH235426  -1.967  -1.642   2.725  0.0279 -0.6011 -0.0113
 3744TIP3    H135427  -2.002  -1.578   2.663  0.3123 -1.4253 -1.0420
 3744TIP3    H235428  -2.001  -1.726   2.695  0.3370 -1.0398  0.8378
 3745TIP3   OH235429   1.270  -2.797   5.590  0.7172 -0.4289  0.0278
 3745TIP3    H135430   1.352  -2.816   5.545  1.4256  2.8983 -0.3774
 3745TIP3    H235431   1.297  -2.753   5.671 -0.6480  0.3033  0.1181
 3746TIP3   OH235432   2.658   3.339   4.251 -0.0995  0.1779  0.3382
 3746TIP3    H135433   2.657   3.256   4.203 -0.7384  0.2091  0.2929
 3746TIP3    H235434   2.659   3.313   4.343  0.2003  0.1216  0.3203
 3747TIP3   OH235435   3.334   1.503   4.658  0.1881 -0.3819 -0.0277
 3747TIP3    H135436   3.314   1.447   4.733  0.6820 -0.4953  0.0198
 3747TIP3    H235437   3.323   1.592   4.691 -0.6142 -0.4382 -0.1094
 3748TIP3   OH235438  -0.373  -1.721   3.201  0.5599  0.5852  0.4878
 3748TIP3    H135439  -0.354  -1.794   3.260  2.3401  0.8580  0.3083
 3748TIP3    H235440  -0.289  -1.701   3.160 -0.7139 -0.1276 -2.7811
 3749TIP3   OH235441  -0.351  -2.307   4.606  0.1098  0.1721 -0.1452
 3749TIP3    H135442  -0.405  -2.233   4.634 -2.5462 -1.6558 -0.0539
 3749TIP3    H235443  -0.355  -2.369   4.680  0.4301 -0.9889 -1.0726
 3750TIP3   OH235444  -1.704  -2.640   5.423 -0.2497  0.5557 -0.1010
 3750TIP3    H135445  -1.639  -2.571   5.427  0.4354 -0.0366 -0.6610
 3750TIP3    H235446  -1.714  -2.669   5.514 -0.2554  1.1283  0.0803
 3751TIP3   OH235447   2.136   1.495   3.316 -0.1512  0.4903 -0.2476
 3751TIP3    H135448   2.111   1.565   3.377 -2.4249  0.0834 -0.6083
 3751TIP3    H235449   2.178   1.429   3.370  0.1634  1.2436  0.4416
 3752TIP3   OH235450  -3.164  -0.289   3.250 -0.3797  0.2004  0.2256
 3752TIP3    H135451  -3.218  -0.282   3.171  0.3766 -0.2523 -0.3507
 3752TIP3    H235452  -3.077  -0.260   3.222 -0.4764  1.6268  1.3228
 3753TIP3   OH235453   2.681  -2.761   2.909 -0.2554 -0.5340 -0.3843
 3753TIP3    H135454   2.695  -2.711   2.990 -0.4883  0.1414 -0.7513
 3753TIP3    H235455   2.611  -2.713   2.864 -0.7523 -1.4192 -0.5625
 3754TIP3   OH235456  -0.267  -2.618   2.778  0.4508  0.0126  0.1098
 3754TIP3    H135457  -0.279  -2.592   2.686  0.5941  0.9064  0.3405
 3754TIP3    H235458  -0.174  -2.604   2.795  0.5667 -0.7925  0.2116
 3755TIP3   OH235459  -0.023   3.133   3.965  0.4589 -0.3021 -0.2235
 3755TIP3    H135460  -0.011   3.077   3.889  1.3114 -0.7793  0.2470
 3755TIP3    H235461  -0.084   3.085   4.021 -1.1125  0.5844 -1.1054
 3756TIP3   OH235462   1.226  -2.505   4.014 -0.4131 -0.1375 -0.1410
 3756TIP3    H135463   1.200  -2.510   3.922 -1.0707 -0.3280  0.0551
 3756TIP3    H235464   1.270  -2.420   4.022 -0.8079  0.1066 -0.5160
 3757TIP3   OH235465   2.446   0.678   3.934  0.0013  0.0699 -0.1955
 3757TIP3    H135466   2.420   0.654   4.023 -0.8573 -1.6376 -0.8625
 3757TIP3    H235467   2.505   0.752   3.945 -1.4171  0.9811  1.6766
 3758TIP3   OH235468   2.685   0.300   3.444  0.8361  0.3753 -0.1157
 3758TIP3    H135469   2.627   0.344   3.383 -0.5414 -2.0358 -0.6480
 3758TIP3    H235470   2.628   0.245   3.497  2.4290 -0.5690  0.7164
 3759TIP3   OH235471   1.546  -0.845   3.473 -0.0904 -0.1378 -0.3709
 3759TIP3    H135472   1.553  -0.815   3.564  0.1996  0.4422 -0.5740
 3759TIP3    H235473   1.626  -0.811   3.432 -0.2126 -0.4170 -0.8347
 3760TIP3   OH235474  -0.121  -3.293   4.554 -0.5572  0.1326 -0.2762
 3760TIP3    H135475  -0.113  -3.362   4.488 -3.3149  1.0878 -1.7864
 3760TIP3    H235476  -0.142  -3.340   4.635 -0.9818 -0.8929 -0.9585
 3761TIP3   OH235477  -1.652  -2.849   5.269 -0.1579 -0.1546 -0.4746
 3761TIP3    H135478  -1.581  -2.895   5.315 -1.4038 -0.5359  1.1711
 3761TIP3    H235479  -1.636  -2.757   5.287 -0.3061 -0.2682  0.2783
 3762TIP3   OH235480  -2.253   0.645   2.500  0.0441 -0.3392 -0.3612
 3762TIP3    H135481  -2.223   0.576   2.442 -0.8110 -1.4536  0.4864
 3762TIP3    H235482  -2.346   0.654   2.482  0.1430  0.6213 -0.4740
 3763TIP3   OH235483  -0.615  -2.952   4.398  0.5840 -0.4014  0.8287
 3763TIP3    H135484  -0.539  -2.969   4.343  0.2650 -1.2589  0.6399
 3763TIP3    H235485  -0.577  -2.925   4.483  1.0882 -0.4578  0.6270
 3764TIP3   OH235486  -2.926   0.907   4.658  0.5856  0.2897  0.1678
 3764TIP3    H135487  -2.932   0.858   4.740 -0.1021  1.8410  1.0904
 3764TIP3    H235488  -2.920   0.840   4.591  0.1202 -1.0547  1.4064
 3765TIP3   OH235489   0.863   1.701   2.496 -0.4143 -0.5711  0.3520
 3765TIP3    H135490   0.951   1.696   2.459 -0.5871 -1.5981  0.0438
 3765TIP3    H235491   0.846   1.612   2.528 -1.6621 -0.5961 -0.3406
 3766TIP3   OH235492   2.592  -0.057   5.674  0.2544 -0.0707  0.0272
 3766TIP3    H135493   2.551  -0.025   5.755 -0.1712 -1.2284  0.2818
 3766TIP3    H235494   2.685  -0.035   5.684  0.1931 -0.1503  0.7958
 3767TIP3   OH235495   2.163  -2.804   3.621  0.0156 -0.1871 -0.1081
 3767TIP3    H135496   2.171  -2.884   3.673 -0.3434  0.2647  0.6637
 3767TIP3    H235497   2.077  -2.810   3.580 -0.1518 -0.0436  0.2196
 3768TIP3   OH235498  -1.469  -2.398   2.623  0.0663 -0.4082 -0.6754
 3768TIP3    H135499  -1.399  -2.429   2.680 -0.6162 -0.4026  0.1791
 3768TIP3    H235500  -1.453  -2.442   2.539  0.0667 -1.7848  0.0243
 3769TIP3   OH235501  -0.981   3.331   4.202  0.1989  0.1266  0.1399
 3769TIP3    H135502  -0.891   3.335   4.233 -0.0024 -0.3731  0.8255
 3769TIP3    H235503  -0.973   3.322   4.107  0.9343 -1.5178  0.3129
 3770TIP3   OH235504   2.147  -0.410   5.279  0.3691 -0.2045 -0.2472
 3770TIP3    H135505   2.109  -0.331   5.317  1.9620 -0.7133  2.8160
 3770TIP3    H235506   2.106  -0.482   5.328  1.5277 -1.0201 -0.4260
 3771TIP3   OH235507  -0.082  -3.077   5.407 -0.0734  0.6554  0.0780
 3771TIP3    H135508  -0.055  -3.122   5.327 -0.0234 -1.0228  1.0016
 3771TIP3    H235509  -0.116  -3.146   5.464 -0.5268  1.8726  1.3479
 3772TIP3   OH235510   2.076   0.306   4.419  0.8645  0.5611 -0.3173
 3772TIP3    H135511   1.988   0.340   4.403  0.9781  0.6838 -0.7008
 3772TIP3    H235512   2.109   0.357   4.493  0.1067 -0.4117  0.7380
 3773TIP3   OH235513   1.040   2.006   4.624 -0.0003  0.1507  0.2301
 3773TIP3    H135514   1.124   2.013   4.669  0.4683 -0.5229 -0.5016
 3773TIP3    H235515   0.982   1.965   4.687  0.5056 -0.3198  0.3923
 3774TIP3   OH235516  -2.998  -2.800   3.841 -0.2199 -0.4430  0.5684
 3774TIP3    H135517  -2.998  -2.886   3.883 -0.3687 -1.1652 -0.8295
 3774TIP3    H235518  -2.936  -2.748   3.892  0.2843 -1.5525  1.1199
 3775TIP3   OH235519   1.054   0.767   4.567 -0.4731 -0.5217  0.0884
 3775TIP3    H135520   1.059   0.672   4.577 -1.4477 -0.3987  2.2724
 3775TIP3    H235521   0.962   0.784   4.546 -0.4041 -0.0221  0.1850
 3776TIP3   OH235522  -1.867  -0.752   4.864  0.4115  0.4472  0.4354
 3776TIP3    H135523  -1.808  -0.706   4.803  2.3335 -1.3821  0.7803
 3776TIP3    H235524  -1.834  -0.728   4.951  0.0015  0.1826  0.6620
 3777TIP3   OH235525  -2.753  -0.021   4.811  0.1092  0.1664 -0.2475
 3777TIP3    H135526  -2.701  -0.097   4.783  1.0298  1.1285 -1.2974
 3777TIP3    H235527  -2.732  -0.010   4.904  1.2795  0.1110 -0.4891
 3778TIP3   OH235528   0.470  -1.949   5.561  0.7233  0.5332  0.0716
 3778TIP3    H135529   0.499  -2.039   5.546  0.3464  0.3801  0.2531
 3778TIP3    H235530   0.550  -1.896   5.554  0.7806  0.3102 -1.0516
 3779TIP3   OH235531   2.958  -2.327   3.844  0.1895  0.6534 -0.2367
 3779TIP3    H135532   2.955  -2.423   3.844  0.9811  0.6166 -0.7510
 3779TIP3    H235533   2.998  -2.305   3.760 -0.1421  1.4457 -0.1935
 3780TIP3   OH235534   0.228   1.052   2.998 -0.4510 -0.3361  0.2959
 3780TIP3    H135535   0.249   1.063   3.091 -1.6533  2.0516  0.3583
 3780TIP3    H235536   0.148   0.999   2.999  0.6349 -2.0580  0.4635
 3781TIP3   OH235537   2.100   1.217   3.534 -0.1680  0.5160  0.3400
 3781TIP3    H135538   2.189   1.250   3.523 -0.1790  0.5486  0.3499
 3781TIP3    H235539   2.108   1.152   3.605 -0.5281  2.0499  1.8532
 3782TIP3   OH235540   1.621   1.359   2.250  0.0321 -0.1846  0.5275
 3782TIP3    H135541   1.637   1.265   2.247  0.3943 -0.1036 -0.8574
 3782TIP3    H235542   1.538   1.371   2.203  0.7135  0.3061 -0.5994
 3783TIP3   OH235543  -1.317  -2.038   5.662 -0.2249  0.3473  0.6288
 3783TIP3    H135544  -1.351  -2.037   5.572  1.9900  0.5628 -0.2569
 3783TIP3    H235545  -1.238  -2.091   5.657  0.0024  0.4737  2.4519
 3784TIP3   OH235546   1.976  -2.407   5.333 -0.0437  0.3637  0.0937
 3784TIP3    H135547   1.972  -2.410   5.238 -1.0492 -1.4968  0.1580
 3784TIP3    H235548   2.067  -2.381   5.352  0.3466  0.1368 -1.3415
 3785TIP3   OH235549   2.031  -2.195   3.892  0.0504  0.1005  0.4736
 3785TIP3    H135550   2.108  -2.207   3.948 -0.3868 -0.4800  0.9589
 3785TIP3    H235551   2.004  -2.284   3.869  1.7523  0.2809 -2.8353
 3786TIP3   OH235552   2.785  -2.765   3.430 -0.3851  0.4518  0.2534
 3786TIP3    H135553   2.764  -2.827   3.360 -0.0122  0.0242  0.5114
 3786TIP3    H235554   2.763  -2.812   3.511  0.6753  0.3328  0.4889
 3787TIP3   OH235555  -2.816   2.715   3.413  0.0441  0.5990 -0.2773
 3787TIP3    H135556  -2.855   2.802   3.424 -2.2164 -0.4451  0.4163
 3787TIP3    H235557  -2.794   2.710   3.320 -1.1590  1.3821 -0.6246
 3788TIP3   OH235558   2.201  -0.405   4.941  0.3343 -0.1428  0.1738
 3788TIP3    H135559   2.110  -0.435   4.946  0.1645  0.1081 -1.0230
 3788TIP3    H235560   2.196  -0.319   4.899  0.9869  0.6852  1.7079
 3789TIP3   OH235561  -2.574   1.057   3.241  0.1229 -0.1860 -0.2116
 3789TIP3    H135562  -2.578   1.054   3.337 -0.6816  0.1925 -0.2189
 3789TIP3    H235563  -2.657   1.018   3.214 -0.5725  1.5719 -0.7068
 3790TIP3   OH235564   0.698   2.354   5.724 -0.0879 -0.2322 -0.0598
 3790TIP3    H135565   0.652   2.423   5.772  2.0730  0.2294  1.5090
 3790TIP3    H235566   0.704   2.387   5.634 -0.9644  0.6223  0.1840
 3791TIP3   OH235567   1.422   1.552   4.387  0.4637 -0.4433 -1.3015
 3791TIP3    H135568   1.367   1.546   4.309 -1.0162 -2.5303 -0.1888
 3791TIP3    H235569   1.370   1.603   4.449  0.4546 -1.0648 -0.7868
 3792TIP3   OH235570   1.259   1.137   3.359 -0.6197 -0.2488 -0.1202
 3792TIP3    H135571   1.202   1.201   3.402 -2.0777 -1.3416 -0.3670
 3792TIP3    H235572   1.307   1.095   3.430 -0.5170  0.3057  0.1395
 3793TIP3   OH235573  -3.119   3.308   3.426 -0.0980 -0.2504  0.9106
 3793TIP3    H135574  -3.075   3.290   3.344 -0.0012 -2.2155  1.3478
 3793TIP3    H235575  -3.050   3.344   3.483  0.1446 -0.1341  0.5451
 3794TIP3   OH235576   1.733   2.946   2.339 -0.0170 -0.2356 -0.3209
 3794TIP3    H135577   1.778   2.902   2.411  0.8515 -0.9310 -1.2501
 3794TIP3    H235578   1.659   2.890   2.319 -0.0707 -0.2136 -0.1853
 3795TIP3   OH235579   0.184   2.983   2.653 -0.6605  0.2016 -0.4137
 3795TIP3    H135580   0.094   2.963   2.625 -0.5442 -0.3926 -0.3862
 3795TIP3    H235581   0.213   3.052   2.594 -1.8666  1.9373  0.9011
 3796TIP3   OH235582   0.197  -3.043   3.570  0.6650 -0.2552 -0.5407
 3796TIP3    H135583   0.179  -3.137   3.580 -2.1549  0.2237 -0.2137
 3796TIP3    H235584   0.199  -3.029   3.476 -1.3499 -0.3181 -0.6367
 3797TIP3   OH235585  -1.695  -2.197   5.780 -0.3394  0.2814  0.6138
 3797TIP3    H135586  -1.743  -2.114   5.779  0.7801  0.9912  2.0418
 3797TIP3    H235587  -1.748  -2.254   5.836 -0.9566  0.1264 -0.1225
 3798TIP3   OH235588  -3.063   2.376   2.989  0.4319  0.0304  0.0641
 3798TIP3    H135589  -2.989   2.435   2.980  0.7047 -0.4596 -1.1538
 3798TIP3    H235590  -3.030   2.291   2.958 -0.2791 -0.4950  0.6852
 3799TIP3   OH235591   2.941   1.279   5.633  0.0363  0.1797 -0.0046
 3799TIP3    H135592   2.965   1.204   5.688 -1.8533 -0.7812 -0.4085
 3799TIP3    H235593   2.914   1.239   5.550 -1.5896  1.2434 -0.0252
 3800TIP3   OH235594   2.528   0.577   5.185  0.2396  0.2743  0.4949
 3800TIP3    H135595   2.521   0.493   5.140  0.5965  0.8874 -0.7451
 3800TIP3    H235596   2.590   0.627   5.132 -1.5248  2.0623  0.0266
 3801TIP3   OH235597  -1.433  -2.821   3.894 -0.1665 -0.5978 -0.0359
 3801TIP3    H135598  -1.469  -2.748   3.945 -1.6386  0.2429 -2.0908
 3801TIP3    H235599  -1.360  -2.853   3.946 -2.0014 -0.3511  2.9299
 3802TIP3   OH235600   1.410   3.367   3.706  0.4586  0.8778  0.5368
 3802TIP3    H135601   1.319   3.352   3.679  0.5157  1.7324 -0.1950
 3802TIP3    H235602   1.417   3.326   3.792 -0.1413 -0.7157 -0.1180
 3803TIP3   OH235603   1.154   2.294   5.754  0.0638 -0.5288  0.0377
 3803TIP3    H135604   1.193   2.277   5.668 -0.4083 -0.7635 -0.1366
 3803TIP3    H235605   1.098   2.371   5.739 -0.7066 -1.1005 -0.0888
 3804TIP3   OH235606  -0.260  -0.162   3.388 -0.2858 -0.5184  0.2192
 3804TIP3    H135607  -0.279  -0.205   3.305  1.4889  0.0144 -0.5043
 3804TIP3    H235608  -0.332  -0.100   3.400 -1.3685 -1.6584 -0.1349
 3805TIP3   OH235609  -0.306   3.363   5.560 -0.0730  0.0882  0.2441
 3805TIP3    H135610  -0.222   3.337   5.521 -0.8388 -0.0210 -1.3900
 3805TIP3    H235611  -0.312   3.311   5.640  1.7016  0.5768  0.7437
 3806TIP3   OH235612   3.125   1.630   2.710  0.1799  0.2337 -0.2307
 3806TIP3    H135613   3.171   1.573   2.648  0.6399  0.0399  0.2796
 3806TIP3    H235614   3.178   1.626   2.790 -0.1349  0.8740  0.0155
 3807TIP3   OH235615  -2.484  -3.285   5.563 -0.4127 -0.0488 -0.5043
 3807TIP3    H135616  -2.471  -3.209   5.507  0.0212 -0.5284 -1.0751
 3807TIP3    H235617  -2.469  -3.253   5.652  0.7066  0.3191 -0.8132
 3808TIP3   OH235618   3.071  -0.382   5.578 -0.0762 -0.0101  0.1917
 3808TIP3    H135619   3.071  -0.471   5.613 -0.9156  0.0335  0.3374
 3808TIP3    H235620   2.990  -0.377   5.526  0.2336  0.5006 -0.2525
 3809TIP3   OH235621  -2.548   0.267   5.260  0.3568 -0.1975 -0.1427
 3809TIP3    H135622  -2.467   0.218   5.271  0.2395 -0.2297  0.6536
 3809TIP3    H235623  -2.617   0.200   5.260  0.0472  0.0031  2.5721
 3810TIP3   OH235624  -3.104   3.153   4.482  0.0284  0.4811 -1.0386
 3810TIP3    H135625  -3.161   3.100   4.426  0.0975 -0.1151 -0.5585
 3810TIP3    H235626  -3.015   3.127   4.457  0.0537 -0.8368  0.3015
 3811TIP3   OH235627  -0.779   0.105   2.334 -0.2248  0.4027 -0.0310
 3811TIP3    H135628  -0.845   0.040   2.308  0.0921  0.2774 -0.5319
 3811TIP3    H235629  -0.764   0.157   2.256  1.0181 -0.2179 -0.2283
 3812TIP3   OH235630   2.518  -2.421   5.579  0.0314 -0.2076  0.9266
 3812TIP3    H135631   2.547  -2.496   5.527  0.5900  0.3966  0.3439
 3812TIP3    H235632   2.426  -2.438   5.597  0.1005 -0.9282  0.6116
 3813TIP3   OH235633   0.035  -2.714   3.494 -0.5504  0.2382  0.1703
 3813TIP3    H135634   0.046  -2.750   3.406  0.4990 -0.4119  0.5344
 3813TIP3    H235635   0.052  -2.621   3.485 -1.3992  0.3362 -0.4739
 3814TIP3   OH235636   0.710   2.922   2.996 -0.1578  0.6027  0.1000
 3814TIP3    H135637   0.779   2.864   2.965  0.4106  1.7984 -0.9568
 3814TIP3    H235638   0.667   2.954   2.917 -1.6273  0.2650  0.7244
 3815TIP3   OH235639  -1.947   2.495   2.250 -0.1718 -0.0938 -0.0562
 3815TIP3    H135640  -1.998   2.490   2.331 -1.8801  0.3368 -1.0476
 3815TIP3    H235641  -1.960   2.585   2.220 -0.3795 -0.5346 -1.3190
 3816TIP3   OH235642   2.798   2.010   5.464 -0.1450  0.1531  0.1091
 3816TIP3    H135643   2.778   2.095   5.505 -1.6772 -0.2882  0.3535
 3816TIP3    H235644   2.851   2.033   5.388  1.1176  1.1549  1.2209
 3817TIP3   OH235645  -0.807   1.356   5.470 -1.0716 -0.6294  0.0058
 3817TIP3    H135646  -0.736   1.381   5.530 -1.4867  2.5939 -0.6810
 3817TIP3    H235647  -0.776   1.384   5.384 -3.1959  1.0410 -0.2811
 3818TIP3   OH235648   3.084   0.624   2.554 -0.0545  0.5369  0.0546
 3818TIP3    H135649   2.994   0.591   2.562 -0.0581  0.6085  0.3043
 3818TIP3    H235650   3.109   0.603   2.464 -0.0230 -0.2230  0.2380
 3819TIP3   OH235651   2.290  -2.382   5.391 -0.3999 -0.1691  0.3649
 3819TIP3    H135652   2.284  -2.474   5.364 -0.3980  0.1463 -0.7483
 3819TIP3    H235653   2.381  -2.357   5.372 -0.8367  0.5234 -0.9319
 3820TIP3   OH235654  -2.444   2.529   4.398 -0.4888  0.1333 -0.0363
 3820TIP3    H135655  -2.504   2.469   4.355 -0.8434  0.6591 -0.2884
 3820TIP3    H235656  -2.476   2.535   4.488 -0.6255  0.1675 -0.0872
 3821TIP3   OH235657   2.478   2.672   5.466 -0.2796  0.6412 -0.2464
 3821TIP3    H135658   2.507   2.694   5.377 -0.4557  1.9503  0.0105
 3821TIP3    H235659   2.387   2.699   5.470 -0.0721  1.2817  0.5508
 3822TIP3   OH235660   0.013  -0.963   5.720  0.6822  0.1678 -0.0769
 3822TIP3    H135661   0.076  -1.029   5.690 -0.1363 -0.0406 -1.4107
 3822TIP3    H235662  -0.049  -1.013   5.773  0.9603  0.1659  0.2524
 3823TIP3   OH235663   0.662  -2.056   2.795 -0.0671  0.3158 -0.4903
 3823TIP3    H135664   0.586  -2.004   2.825 -1.2463 -1.9495  0.6988
 3823TIP3    H235665   0.732  -2.032   2.857 -1.1563 -0.8610  1.2979
 3824TIP3   OH235666   0.936  -0.525   2.821 -0.3256  0.0038  0.5381
 3824TIP3    H135667   0.908  -0.553   2.734  1.8904 -0.2546 -0.1674
 3824TIP3    H235668   0.892  -0.585   2.881  0.3545 -1.7381 -0.6177
 3825TIP3   OH235669   0.978  -2.890   4.059  0.5217  0.2225  0.2427
 3825TIP3    H135670   1.029  -2.914   3.981  0.1117  1.3155 -0.3837
 3825TIP3    H235671   0.960  -2.797   4.048  0.8935  0.5164  1.9169
 3826TIP3   OH235672  -0.878  -1.282   2.970  0.0734  0.5149 -0.4044
 3826TIP3    H135673  -0.898  -1.277   2.876 -1.8153  0.1405 -0.0657
 3826TIP3    H235674  -0.868  -1.376   2.988 -1.5464  0.4066  0.0991
 3827TIP3   OH235675  -1.293   2.743   2.940 -0.0448  0.6609  0.0717
 3827TIP3    H135676  -1.339   2.814   2.984  2.3653  1.3799  1.6466
 3827TIP3    H235677  -1.308   2.666   2.996 -0.1275  0.6711  0.0627
 3828TIP3   OH235678  -2.349   1.527   4.679 -0.1301  0.2889 -0.3395
 3828TIP3    H135679  -2.346   1.447   4.627  2.8392 -1.3050  1.9719
 3828TIP3    H235680  -2.383   1.500   4.764 -2.7719  2.3974 -0.5776
 3829TIP3   OH235681   0.109   3.179   2.881 -0.4354 -0.5200 -0.4580
 3829TIP3    H135682   0.115   3.141   2.794  0.4225 -1.0793 -0.1660
 3829TIP3    H235683   0.025   3.226   2.881 -1.4624 -2.2283 -0.9150
 3830TIP3   OH235684  -3.296   1.414   3.307  0.3920 -0.5490 -0.1754
 3830TIP3    H135685  -3.271   1.473   3.236  0.3946  0.6897  0.8237
 3830TIP3    H235686  -3.219   1.411   3.364  0.0513 -0.7461  0.2823
 3831TIP3   OH235687   1.117   2.049   3.602  0.3697 -0.0745  0.5680
 3831TIP3    H135688   1.182   1.998   3.651  1.9124  1.0195 -0.2953
 3831TIP3    H235689   1.165   2.090   3.531 -1.4498  0.0363 -0.6880
 3832TIP3   OH235690  -0.434   3.187   5.768 -0.4604 -0.0259 -0.2256
 3832TIP3    H135691  -0.464   3.106   5.808 -0.0183  0.6824  1.6616
 3832TIP3    H235692  -0.496   3.203   5.697 -2.3259 -0.5284  1.1958
 3833TIP3   OH235693   2.226   3.139   4.987  0.5299 -0.3280 -0.4918
 3833TIP3    H135694   2.130   3.133   4.988  0.4771 -0.8117 -2.8515
 3833TIP3    H235695   2.254   3.088   5.062 -1.0395 -0.7085 -0.1256
 3834TIP3   OH235696   1.316   0.251   2.283  0.0796 -0.5684 -0.0060
 3834TIP3    H135697   1.241   0.267   2.226  1.7830  1.9723 -1.7216
 3834TIP3    H235698   1.390   0.242   2.224  1.1514 -3.9470  1.5703
 3835TIP3   OH235699   1.628   0.645   3.703  0.2594  0.3709 -0.1866
 3835TIP3    H135700   1.595   0.635   3.614  1.4392  0.6047 -0.6673
 3835TIP3    H235701   1.715   0.605   3.702  0.5289  0.8846  0.7054
 3836TIP3   OH235702  -2.615  -2.146   3.519  0.0282  0.1148  0.1518
 3836TIP3    H135703  -2.562  -2.188   3.451 -0.8491  0.4665 -0.7712
 3836TIP3    H235704  -2.590  -2.054   3.515 -2.1592  0.7016 -1.8051
 3837TIP3   OH235705   1.997  -1.427   4.222 -0.1243  0.3371  0.3936
 3837TIP3    H135706   2.058  -1.375   4.170  1.4116  0.6448  2.3502
 3837TIP3    H235707   1.997  -1.513   4.181  1.5608  0.3772  0.2369
 3838TIP3   OH235708  -1.230   1.100   4.084 -0.5137 -0.3676  0.6196
 3838TIP3    H135709  -1.265   1.019   4.121  1.5566 -1.5417  0.1211
 3838TIP3    H235710  -1.302   1.135   4.031 -1.3354 -2.0457  0.5671
 3839TIP3   OH235711  -2.980   1.713   3.675 -0.0973 -0.3428  0.5396
 3839TIP3    H135712  -2.885   1.720   3.667 -0.0626 -0.5515  0.7526
 3839TIP3    H235713  -2.997   1.726   3.768 -0.0902 -2.3175  0.8516
 3840TIP3   OH235714  -2.358  -1.166   2.984  0.8750  0.0763 -0.2996
 3840TIP3    H135715  -2.290  -1.202   3.041 -0.2543 -1.3300  0.2069
 3840TIP3    H235716  -2.400  -1.242   2.946  0.5359  0.9645 -1.7751
 3841TIP3   OH235717   0.076   1.716   4.848  0.0159 -0.0128 -0.0703
 3841TIP3    H135718   0.102   1.663   4.923 -1.4365  0.0966  0.5329
 3841TIP3    H235719   0.118   1.801   4.863  0.7429 -0.3664 -0.0413
 3842TIP3   OH235720   2.625  -0.868   3.631  0.3544 -0.0803 -0.5169
 3842TIP3    H135721   2.677  -0.787   3.636 -1.3135  0.9980  0.1296
 3842TIP3    H235722   2.623  -0.889   3.538 -0.4713  1.5089 -0.8814
 3843TIP3   OH235723   1.967  -1.719   3.342 -0.0448 -0.4886  0.2319
 3843TIP3    H135724   1.903  -1.679   3.283 -0.1859 -1.2231 -0.1232
 3843TIP3    H235725   1.948  -1.679   3.427 -0.8540 -0.5438  0.0902
 3844TIP3   OH235726   2.603   2.792   2.920 -0.3465  1.2335 -0.0261
 3844TIP3    H135727   2.676   2.775   2.980 -0.4519 -0.1430 -0.2638
 3844TIP3    H235728   2.634   2.760   2.835 -1.9147 -1.2698  0.2495
 3845TIP3   OH235729  -1.872  -1.705   5.067  0.5740 -0.1825  0.2159
 3845TIP3    H135730  -1.818  -1.724   4.990  0.8527  2.6088 -0.3759
 3845TIP3    H235731  -1.815  -1.723   5.142  1.1131 -0.5962 -0.2861
 3846TIP3   OH235732   2.937   0.707   5.373 -0.2037 -0.0228 -0.0664
 3846TIP3    H135733   2.881   0.713   5.451  0.9297  0.9974  0.6870
 3846TIP3    H235734   3.024   0.690   5.407 -0.1947 -3.0038 -1.2923
 3847TIP3   OH235735   2.322  -3.078   4.037 -0.6838 -0.0495  0.5381
 3847TIP3    H135736   2.287  -3.112   4.119  0.0237  1.1739  1.3755
 3847TIP3    H235737   2.398  -3.134   4.018 -2.5026 -2.2432 -0.9060
 3848TIP3   OH235738  -0.147  -1.602   4.758 -0.4345  0.1738  0.5296
 3848TIP3    H135739  -0.240  -1.588   4.739  0.2422  1.6947 -2.1959
 3848TIP3    H235740  -0.107  -1.619   4.673  1.8419 -0.2076  1.5959
 3849TIP3   OH235741   0.484   2.749   2.777  0.2523 -0.0861 -0.2270
 3849TIP3    H135742   0.519   2.662   2.796 -0.0731  0.2142  2.1329
 3849TIP3    H235743   0.543   2.785   2.711  0.5119 -2.0001 -1.0728
 3850TIP3   OH235744   0.649  -1.679   3.335 -0.2251  0.2663  0.0040
 3850TIP3    H135745   0.737  -1.715   3.325 -0.2519  0.6054 -1.7002
 3850TIP3    H235746   0.638  -1.670   3.430  1.8334  0.8377  0.2424
 3851TIP3   OH235747  -0.249  -2.214   2.853  0.9773  0.0981 -0.3429
 3851TIP3    H135748  -0.314  -2.280   2.827 -1.0656  1.9816 -0.2868
 3851TIP3    H235749  -0.200  -2.256   2.923 -1.7137 -0.6881  1.2260
 3852TIP3   OH235750   3.249   0.849   2.437 -0.2644  0.6626  0.4193
 3852TIP3    H135751   3.296   0.882   2.361  0.3346  0.1054  0.5351
 3852TIP3    H235752   3.226   0.759   2.414  3.4223 -1.0041  2.3046
 3853TIP3   OH235753  -2.531   0.073   5.572 -0.5797  0.5348 -0.4557
 3853TIP3    H135754  -2.484   0.139   5.623 -1.3285  0.5697  0.1999
 3853TIP3    H235755  -2.462   0.013   5.543 -0.1047  0.6211  0.4411
 3854TIP3   OH235756  -1.346  -1.782   3.006 -0.4054 -0.6748  0.2615
 3854TIP3    H135757  -1.371  -1.854   3.064 -1.6044  0.5406  1.3267
 3854TIP3    H235758  -1.416  -1.717   3.017  1.3928  1.3457  0.5560
 3855TIP3   OH235759  -2.574   0.292   4.992  0.2302 -0.1103 -0.5505
 3855TIP3    H135760  -2.581   0.314   5.085 -2.2859  0.0622 -0.7030
 3855TIP3    H235761  -2.586   0.197   4.989 -1.1250  0.0455 -0.7605
 3856TIP3   OH235762  -2.375  -0.235   4.411  0.5245 -0.1467 -0.0715
 3856TIP3    H135763  -2.340  -0.162   4.361  0.1046 -0.2668 -0.5478
 3856TIP3    H235764  -2.456  -0.202   4.450 -0.0602 -0.5587 -0.8890
 3857TIP3   OH235765  -0.813   1.011   4.011  0.2336 -0.4219  0.3290
 3857TIP3    H135766  -0.869   1.011   4.088  0.3316 -0.7286  0.4058
 3857TIP3    H235767  -0.774   0.923   4.010  1.3513  0.0560  0.7390
 3858TIP3   OH235768  -3.142  -1.973   4.337 -0.0061  0.0566 -0.3461
 3858TIP3    H135769  -3.083  -2.031   4.290 -0.2379 -0.6752  0.2490
 3858TIP3    H235770  -3.188  -1.924   4.269 -0.1678 -0.8196 -0.8791
 3859TIP3   OH235771  -2.694  -2.028   5.215  0.0554  0.1190 -0.8114
 3859TIP3    H135772  -2.611  -2.073   5.227  0.3234  0.3393 -1.7603
 3859TIP3    H235773  -2.672  -1.948   5.167 -0.2402  1.8532  1.7373
 3860TIP3   OH235774   3.104  -0.023   4.698  0.2084 -0.3239 -0.1274
 3860TIP3    H135775   3.172  -0.071   4.746  0.5673  0.0531 -0.2569
 3860TIP3    H235776   3.063   0.032   4.765  0.1312 -0.4446 -0.0768
 3861TIP3   OH235777   0.810   0.825   4.450 -0.0448  0.0549 -0.6587
 3861TIP3    H135778   0.737   0.842   4.509 -0.1789 -1.1417 -0.4625
 3861TIP3    H235779   0.848   0.911   4.434 -0.1648  0.4328  0.9575
 3862TIP3   OH235780  -1.824  -2.493   3.629  0.4354  0.8501 -0.4608
 3862TIP3    H135781  -1.842  -2.485   3.723  1.8896  0.2780 -0.1060
 3862TIP3    H235782  -1.895  -2.547   3.595  0.6383 -0.1177  0.5898
 3863TIP3   OH235783  -0.346   2.316   4.890  0.2338  0.0341 -0.4040
 3863TIP3    H135784  -0.436   2.284   4.879  0.6761 -1.9782  1.2650
 3863TIP3    H235785  -0.304   2.297   4.806 -0.7062  0.3862 -0.9700
 3864TIP3   OH235786  -3.039  -2.369   3.281  0.3330 -0.2571 -0.1638
 3864TIP3    H135787  -2.982  -2.325   3.344  0.1046  1.0013 -0.8010
 3864TIP3    H235788  -2.997  -2.355   3.196 -0.3655 -0.2500 -0.5150
 3865TIP3   OH235789   0.977   3.324   2.733 -0.3045 -0.1991 -0.0085
 3865TIP3    H135790   1.024   3.397   2.774  1.0136 -0.4695 -0.9775
 3865TIP3    H235791   0.942   3.361   2.652 -1.0113 -0.2495  0.2614
 3866TIP3   OH235792  -2.345  -1.286   2.500  0.1856  0.4469 -0.1859
 3866TIP3    H135793  -2.353  -1.200   2.540  0.5413 -0.1176  1.1387
 3866TIP3    H235794  -2.273  -1.276   2.437  1.7836  0.5594  1.5844
 3867TIP3   OH235795  -0.860   2.076   5.195 -0.1260 -1.3071  0.0420
 3867TIP3    H135796  -0.804   1.999   5.194 -0.6043 -1.7070  1.3608
 3867TIP3    H235797  -0.949   2.041   5.193 -0.3440 -0.7978  0.4927
 3868TIP3   OH235798   2.635  -2.358   2.989  0.4345 -0.1157 -0.0336
 3868TIP3    H135799   2.564  -2.382   2.929  0.5060 -0.6504  0.0914
 3868TIP3    H235800   2.619  -2.266   3.010 -1.1110 -0.6109  1.1840
 3869TIP3   OH235801  -3.264  -1.524   4.017  0.4017 -0.3035 -0.5446
 3869TIP3    H135802  -3.271  -1.616   4.040  1.1514 -0.5701 -1.3598
 3869TIP3    H235803  -3.306  -1.516   3.932 -0.3454  0.2584 -0.1369
 3870TIP3   OH235804  -2.124   2.370   4.514  0.1226  0.3934 -0.1056
 3870TIP3    H135805  -2.155   2.456   4.544  1.2890  1.3141 -1.4171
 3870TIP3    H235806  -2.033   2.386   4.487  1.2612 -1.8225  2.0174
 3871TIP3   OH235807  -0.161   0.237   4.610 -0.2243 -0.1753  0.4618
 3871TIP3    H135808  -0.105   0.166   4.577 -0.5913  0.2981 -1.2522
 3871TIP3    H235809  -0.242   0.227   4.561 -0.2393  1.4950  0.1006
 3872TIP3   OH235810   1.280   1.587   3.794 -0.2121 -0.1811 -0.3376
 3872TIP3    H135811   1.192   1.570   3.828 -0.6824  0.2196 -1.3127
 3872TIP3    H235812   1.305   1.506   3.751  0.0178 -0.3899  0.1826
 3873TIP3   OH235813   3.319   1.868   3.746 -0.4283 -0.3424 -0.2022
 3873TIP3    H135814   3.309   1.857   3.652 -2.1972  1.6391 -0.3364
 3873TIP3    H235815   3.230   1.884   3.778  0.0338 -1.5848  1.9224
 3874TIP3   OH235816   2.786  -2.864   5.659  0.2559 -0.4426  0.4645
 3874TIP3    H135817   2.870  -2.839   5.621  0.1520 -0.4401  0.2387
 3874TIP3    H235818   2.804  -2.874   5.752 -0.3546  3.5202  1.1832
 3875TIP3   OH235819  -0.311   0.265   3.873 -0.0480  0.0354 -0.0925
 3875TIP3    H135820  -0.355   0.229   3.796  2.2489 -0.4002 -1.2859
 3875TIP3    H235821  -0.221   0.232   3.868  0.9930  2.3831  1.1404
 3876TIP3   OH235822  -0.199  -0.447   4.091 -0.0419 -0.3492  0.2362
 3876TIP3    H135823  -0.227  -0.421   4.004 -0.1381  0.6648  0.5483
 3876TIP3    H235824  -0.122  -0.503   4.077 -0.3401 -0.5744 -0.5066
 3877TIP3   OH235825  -0.519   0.244   3.044 -0.3091 -0.1373  0.6517
 3877TIP3    H135826  -0.424   0.254   3.031 -0.4614 -0.4868 -0.9869
 3877TIP3    H235827  -0.551   0.213   2.959 -1.8565 -0.3273  1.2802
 3878TIP3   OH235828   2.615   2.783   5.238  0.6060 -0.0560 -0.1445
 3878TIP3    H135829   2.622   2.750   5.148  0.8448 -0.3222 -0.0288
 3878TIP3    H235830   2.618   2.878   5.229 -1.8951  0.0559 -0.6570
 3879TIP3   OH235831   0.672  -1.505   5.620  0.2294 -0.3961  0.4835
 3879TIP3    H135832   0.708  -1.577   5.672 -2.3388 -0.9594  1.6294
 3879TIP3    H235833   0.683  -1.428   5.676  1.1426 -0.2304  0.0997
 3880TIP3   OH235834  -1.068  -1.522   2.786  0.0890  0.9445  0.5170
 3880TIP3    H135835  -0.976  -1.513   2.763 -0.2302  0.5110 -1.0755
 3880TIP3    H235836  -1.074  -1.603   2.836  0.3675  0.1218 -0.7434
 3881TIP3   OH235837   1.824  -3.230   3.053  0.1361 -0.3872 -0.2755
 3881TIP3    H135838   1.902  -3.251   3.103  0.2694  0.2295 -0.2190
 3881TIP3    H235839   1.857  -3.186   2.974 -0.1825  0.4454  0.0453
 3882TIP3   OH235840   1.671   0.338   5.519  0.2579  0.9746  0.1209
 3882TIP3    H135841   1.639   0.373   5.602  0.1709 -0.6403  0.8096
 3882TIP3    H235842   1.659   0.410   5.457 -0.7432  1.8435  1.2558
 3883TIP3   OH235843  -3.303   3.104   2.928  0.1351 -0.8785 -0.0603
 3883TIP3    H135844  -3.344   3.112   2.842  2.6995  0.1907 -1.2951
 3883TIP3    H235845  -3.354   3.037   2.973 -3.4429  0.8964 -1.0572
 3884TIP3   OH235846  -0.461   1.642   4.362  0.6326 -0.4386  0.1859
 3884TIP3    H135847  -0.378   1.690   4.358  0.1720  0.3032 -1.1940
 3884TIP3    H235848  -0.446   1.574   4.427  1.4113  1.3818  2.0079
 3885TIP3   OH235849  -1.520   2.501   4.062 -0.3107  0.6206 -0.5568
 3885TIP3    H135850  -1.486   2.562   3.998  1.7449  0.9077  0.7010
 3885TIP3    H235851  -1.605   2.537   4.088  0.2579  2.2278 -0.8093
 3886TIP3   OH235852  -2.012  -1.010   2.348 -0.7487  0.1458 -0.2225
 3886TIP3    H135853  -2.061  -0.930   2.333  0.6554  0.8120 -1.4771
 3886TIP3    H235854  -1.922  -0.981   2.361 -0.0428 -1.2682 -1.6769
 3887TIP3   OH235855   3.077   0.340  15.584 -0.1675  0.1571  1.3695
 3887TIP3    H135856   3.103   0.282  15.656 -0.2552  0.1853  1.4235
 3887TIP3    H235857   3.031   0.412  15.626 -1.2247 -0.3944  1.1873
 3888TIP3   OH235858  -3.090  -0.928   5.701 -0.5303  0.1014  0.2698
 3888TIP3    H135859  -3.029  -0.877   5.648  0.1828  0.2555  1.2187
 3888TIP3    H235860  -3.175  -0.914   5.660  0.2530 -1.4221 -2.0785
 3889TIP3   OH235861   2.828   3.286   5.295  0.0448  0.0337  0.0153
 3889TIP3    H135862   2.792   3.365   5.255  0.7259  0.1633 -0.3493
 3889TIP3    H235863   2.917   3.309   5.319 -0.2031 -0.1905  1.2073
 3890TIP3   OH235864  -1.346  -0.153   2.507  0.6778 -0.2714 -0.2281
 3890TIP3    H135865  -1.378  -0.235   2.470  0.3474  0.0231 -0.6020
 3890TIP3    H235866  -1.342  -0.092   2.433 -1.1297  0.6656  0.3799
 3891TIP3   OH235867   0.311  -0.976   5.209 -0.0606 -0.3922 -0.4611
 3891TIP3    H135868   0.324  -1.041   5.278 -0.2584  0.9542  0.8972
 3891TIP3    H235869   0.395  -0.971   5.165  0.8940  0.5531  1.3575
 3892TIP3   OH235870   1.644   0.851   5.066  0.0844 -0.5901  0.1627
 3892TIP3    H135871   1.645   0.848   5.161 -0.6373 -1.6486  0.1481
 3892TIP3    H235872   1.710   0.917   5.044  0.1311 -0.1950  1.3887
 3893TIP3   OH235873  -0.406  -1.553   4.592 -0.3261 -0.2074  0.5101
 3893TIP3    H135874  -0.467  -1.565   4.519 -0.3541  2.3415  0.0280
 3893TIP3    H235875  -0.413  -1.460   4.614  2.8367  0.0125  0.9651
 3894TIP3   OH235876  -3.116   1.491   3.525  0.1520  0.0747  0.1056
 3894TIP3    H135877  -3.074   1.575   3.542  0.4988 -0.3174  1.2653
 3894TIP3    H235878  -3.181   1.482   3.594  0.1170 -0.6176 -0.0086
 3895TIP3   OH235879  -1.208  -2.234   3.354 -0.4879  0.2649 -0.0253
 3895TIP3    H135880  -1.156  -2.153   3.353  0.2682 -0.2116  0.1968
 3895TIP3    H235881  -1.299  -2.204   3.362 -0.1679  1.0745  0.7575
 3896TIP3   OH235882   2.917  -1.011   3.300 -0.0033 -0.4036 -0.2956
 3896TIP3    H135883   2.869  -1.087   3.333  0.6012 -0.3355  0.8122
 3896TIP3    H235884   3.009  -1.033   3.314  0.1527  1.2725  1.8895
 3897TIP3   OH235885   3.102   0.757   3.426 -0.8514 -0.5479  0.2029
 3897TIP3    H135886   3.122   0.713   3.509 -0.4574  1.3571  1.1594
 3897TIP3    H235887   3.120   0.849   3.443 -1.0369 -0.0810 -1.9361
 3898TIP3   OH235888  -0.341   0.753   4.168 -0.2236  0.1722  0.6951
 3898TIP3    H135889  -0.246   0.741   4.173 -0.1039 -0.2555 -1.4012
 3898TIP3    H235890  -0.357   0.837   4.211  0.8474 -0.5312  2.5768
 3899TIP3   OH235891   2.781   3.104   3.158  0.7312 -0.1332  0.3942
 3899TIP3    H135892   2.790   3.019   3.199  0.3691  0.0384  0.8332
 3899TIP3    H235893   2.744   3.085   3.071 -1.3329 -0.2927  1.2449
 3900TIP3   OH235894   1.738  -0.759   5.047 -0.3127  0.1009  0.1847
 3900TIP3    H135895   1.668  -0.699   5.073  1.2040  1.1258  2.2162
 3900TIP3    H235896   1.726  -0.835   5.104  2.0586  1.6714  3.0436
 3901TIP3   OH235897  -0.203   2.282   5.118  0.0169  0.2547  0.1075
 3901TIP3    H135898  -0.267   2.288   5.048 -1.2657  2.0929  1.3348
 3901TIP3    H235899  -0.118   2.298   5.076 -0.6491  0.7220 -1.0868
 3902TIP3   OH235900  -1.909  -2.648   5.910 -0.0298 -0.3304  0.0925
 3902TIP3    H135901  -1.930  -2.708   5.838  0.9153 -0.8025  0.1872
 3902TIP3    H235902  -1.978  -2.662   5.975 -0.9741  0.2050 -0.7727
 3903TIP3   OH235903   0.413  -1.915   4.733 -0.0444  0.0175  0.0382
 3903TIP3    H135904   0.402  -1.830   4.776 -1.2141 -0.3332  0.4569
 3903TIP3    H235905   0.331  -1.961   4.749  0.3215 -0.9450 -0.7574
 3904TIP3   OH235906  -0.052   1.626   2.984  0.4542  0.2434 -0.1486
 3904TIP3    H135907   0.000   1.557   3.025  0.6172  0.0591 -0.6570
 3904TIP3    H235908  -0.113   1.579   2.927  1.3646  0.5541 -1.4253
 3905TIP3   OH235909  -2.298   1.857   2.662  0.0424  0.3585 -0.1344
 3905TIP3    H135910  -2.205   1.843   2.650  0.4054  2.5169 -0.2567
 3905TIP3    H235911  -2.309   1.865   2.757 -0.2409 -1.0366 -0.0277
 3906TIP3   OH235912   2.435   2.492   4.135 -0.5193  0.0245  0.5120
 3906TIP3    H135913   2.412   2.407   4.098  3.3708  0.8125 -4.9266
 3906TIP3    H235914   2.510   2.475   4.192  0.7444 -0.2393 -1.1716
 3907TIP3   OH235915   0.126   0.250   4.179  0.3564 -0.5912  0.1953
 3907TIP3    H135916   0.181   0.217   4.108  0.9385  0.4127  0.1648
 3907TIP3    H235917   0.062   0.306   4.135  1.7311  1.3930  0.5401
 3908TIP3   OH235918  -2.443  -2.380   4.380 -0.2557  0.1092  0.1266
 3908TIP3    H135919  -2.457  -2.307   4.441  1.8086 -0.0538  0.8887
 3908TIP3    H235920  -2.510  -2.443   4.404 -1.3420  1.2661  0.2405
 3909TIP3   OH235921   2.910   1.983   4.472  0.1383  0.4710 -0.4810
 3909TIP3    H135922   2.923   1.970   4.378 -0.5015  2.0491 -0.8265
 3909TIP3    H235923   2.994   1.961   4.511  0.6363  0.4786 -1.5122
 3910TIP3   OH235924   0.091  -2.840   3.865 -0.6105 -0.1909 -0.5694
 3910TIP3    H135925   0.115  -2.754   3.898  1.0396 -0.8960  0.2066
 3910TIP3    H235926   0.047  -2.823   3.782  2.5562  1.3255 -2.1076
 3911TIP3   OH235927  -0.883   2.646   4.501  0.6925 -0.2236 -0.1447
 3911TIP3    H135928  -0.839   2.637   4.417 -0.0351 -0.3850 -0.5141
 3911TIP3    H235929  -0.958   2.703   4.484 -0.2425 -1.3446  0.0783
 3912TIP3   OH235930  -1.014  -2.249   3.810 -0.4870  0.2895 -0.4634
 3912TIP3    H135931  -1.080  -2.287   3.752  0.0953 -2.0084  0.2780
 3912TIP3    H235932  -1.037  -2.282   3.897  0.4936  1.0913  0.1169
 3913TIP3   OH235933  -2.125   3.200   2.434 -0.0141 -0.1512  0.0903
 3913TIP3    H135934  -2.096   3.140   2.365  0.1404 -1.1378  0.9835
 3913TIP3    H235935  -2.150   3.280   2.388  1.4798 -0.2573 -0.9721
 3914TIP3   OH235936  -0.959  -2.728   4.197  0.3996  0.3113  0.0306
 3914TIP3    H135937  -0.935  -2.660   4.261 -0.2848  2.7634 -2.1404
 3914TIP3    H235938  -1.049  -2.750   4.218 -0.6145  2.7640 -1.2744
 3915TIP3   OH235939  -2.200   3.128   2.954 -0.1186  0.8319 -0.1656
 3915TIP3    H135940  -2.267   3.147   3.019  3.0692  1.1656  3.3801
 3915TIP3    H235941  -2.185   3.034   2.960  0.9112  1.0187  0.4032
 3916TIP3   OH235942   2.528  -1.882   5.383 -0.2099 -0.3806  0.2084
 3916TIP3    H135943   2.481  -1.899   5.301 -0.5004 -0.1912  0.3304
 3916TIP3    H235944   2.458  -1.874   5.448 -0.0360  0.3291  0.3207
 3917TIP3   OH235945   0.177   2.336   2.524 -0.2556 -0.4400 -0.0091
 3917TIP3    H135946   0.208   2.344   2.434  0.4837 -1.5450  0.1282
 3917TIP3    H235947   0.256   2.348   2.577 -1.0005  2.3991  0.6399
 3918TIP3   OH235948   0.151  -1.929   2.704 -0.7141  0.3508 -0.0418
 3918TIP3    H135949   0.205  -1.981   2.645 -2.4215  0.2027 -1.5532
 3918TIP3    H235950   0.123  -1.990   2.772  0.7350  0.3644  0.5953
 3919TIP3   OH235951   0.682   0.618   4.316 -0.3111  0.3848 -0.4610
 3919TIP3    H135952   0.727   0.548   4.269 -1.3626 -1.1592  0.7053
 3919TIP3    H235953   0.749   0.684   4.331  1.2897 -1.2591  0.1150
 3920TIP3   OH235954  -1.802   2.196   3.945 -0.0178 -0.4064 -0.3091
 3920TIP3    H135955  -1.808   2.279   3.897  1.3302  1.0873  1.9369
 3920TIP3    H235956  -1.866   2.205   4.016  1.2307 -0.6030  0.8745
 3921TIP3   OH235957   2.516  -1.652   4.285  0.1305  0.5486 -0.0748
 3921TIP3    H135958   2.519  -1.665   4.190  1.2844 -2.8930  0.2744
 3921TIP3    H235959   2.422  -1.642   4.304 -0.0627  2.0221 -1.5895
 3922TIP3   OH235960  -1.199  -2.755   4.284  0.2690  0.2392 -0.0496
 3922TIP3    H135961  -1.206  -2.660   4.289  1.7636  0.3876 -0.3284
 3922TIP3    H235962  -1.180  -2.783   4.373 -1.2041  0.0691  0.2437
 3923TIP3   OH235963  -1.225   2.557   3.984 -0.2978  0.1983  0.2668
 3923TIP3    H135964  -1.236   2.463   3.997 -0.0316  0.2114  0.5901
 3923TIP3    H235965  -1.295   2.597   4.037 -0.5663  0.1748 -0.0672
 3924TIP3   OH235966   1.228   1.862   3.783 -0.0027 -0.0188  0.0332
 3924TIP3    H135967   1.322   1.877   3.772 -0.1442  0.0455 -1.1855
 3924TIP3    H235968   1.217   1.768   3.769 -0.2047  0.0825 -0.5036
 3925TIP3   OH235969   0.672  -0.089   3.955 -0.0001 -0.2027  0.2745
 3925TIP3    H135970   0.739  -0.129   3.899  0.7456 -0.6406  1.4532
 3925TIP3    H235971   0.690  -0.123   4.042 -1.3492  0.2134  0.7370
 3926TIP3   OH235972  -1.611  -1.387   4.961  0.5133 -0.0370  0.4283
 3926TIP3    H135973  -1.530  -1.413   5.005  1.1793  0.2040 -0.6165
 3926TIP3    H235974  -1.583  -1.321   4.898 -0.5856  0.4287  0.4112
 3927TIP3   OH235975   0.149  -0.884   4.143 -0.1432 -0.1840  0.0686
 3927TIP3    H135976   0.184  -0.800   4.174  0.2773  0.5233 -2.1654
 3927TIP3    H235977   0.074  -0.861   4.089  0.5863 -1.1207 -1.4267
 3928TIP3   OH235978   3.211  -2.929   2.599 -0.2024 -0.3310  0.1927
 3928TIP3    H135979   3.121  -2.910   2.623 -1.0101 -3.1654 -0.1942
 3928TIP3    H235980   3.217  -2.903   2.507 -1.1582 -1.5562 -0.2471
 3929TIP3   OH235981   0.441   2.746   3.268 -0.1844  0.2150  0.0173
 3929TIP3    H135982   0.460   2.653   3.278  0.4713  0.1796 -1.3184
 3929TIP3    H235983   0.526   2.789   3.281 -0.5678  0.6732  1.0694
 3930TIP3   OH235984   1.867  -1.360   4.493 -0.0571 -0.6092 -0.6956
 3930TIP3    H135985   1.872  -1.402   4.407 -2.2617 -1.0899 -0.6504
 3930TIP3    H235986   1.817  -1.421   4.547 -0.5993  0.6627  0.2996
 3931TIP3   OH235987  -0.112   0.151   5.199  0.2674  0.2662  0.1851
 3931TIP3    H135988  -0.200   0.130   5.169 -0.0638 -0.3821  1.5161
 3931TIP3    H235989  -0.057   0.080   5.164  0.0531  0.0242  0.3390
 3932TIP3   OH235990   0.978   3.338   5.416  0.2973  0.3753  0.0162
 3932TIP3    H135991   1.026   3.256   5.415  0.4708  0.4169  2.0774
 3932TIP3    H235992   1.037   3.401   5.374  0.9045 -0.1531  0.0746
 3933TIP3   OH235993  -2.103   1.815   4.088 -0.6989 -0.3338  0.0705
 3933TIP3    H135994  -2.174   1.837   4.148  0.3221  0.0106  1.1907
 3933TIP3    H235995  -2.081   1.725   4.110  0.6293  0.2464  1.2434
 3934TIP3   OH235996  -0.312   0.668   2.835 -0.2906 -0.1215 -0.1415
 3934TIP3    H135997  -0.325   0.616   2.756  0.8062  1.5040 -1.4419
 3934TIP3    H235998  -0.380   0.734   2.832 -0.0817  0.1102  0.1301
 3935TIP3   OH235999   1.504  -3.117   3.568  0.2425  0.7262  0.0166
 3935TIP3    H136000   1.476  -3.192   3.620  1.2653 -0.1027 -0.5885
 3935TIP3    H236001   1.477  -3.041   3.619 -1.9055 -0.0056  0.0762
 3936TIP3   OH236002  -2.103   0.062   4.628 -0.3184  0.4789  0.2175
 3936TIP3    H136003  -2.084   0.152   4.653  0.8018  0.7937 -1.6294
 3936TIP3    H236004  -2.187   0.043   4.669  0.6270  1.4499  2.8008
 3937TIP3   OH236005   2.702   0.179   4.282  0.6913  0.1631 -0.0737
 3937TIP3    H136006   2.611   0.207   4.292 -0.1891 -2.7289  1.4847
 3937TIP3    H236007   2.701   0.120   4.206  1.7378  1.5971 -1.2499
 3938TIP3   OH236008  -2.676   0.587   3.047 -0.3516 -0.0392  0.5483
 3938TIP3    H136009  -2.655   0.530   3.121  0.6239  1.4734  1.5109
 3938TIP3    H236010  -2.599   0.582   2.990 -0.1013  0.5610  0.8207
 3939TIP3   OH236011  -0.889  -2.165   5.326  0.2124 -0.0281  0.2820
 3939TIP3    H136012  -0.885  -2.251   5.285  1.2779  0.9413 -1.7750
 3939TIP3    H236013  -0.977  -2.132   5.305 -0.0317 -0.4079  0.6836
 3940TIP3   OH236014  -1.086  -0.058   2.512 -0.1517  0.2716 -0.0146
 3940TIP3    H136015  -1.155  -0.124   2.503  1.3697 -1.4448  0.2037
 3940TIP3    H236016  -1.119   0.018   2.464 -2.1029 -0.5394 -0.0462
 3941TIP3   OH236017   0.671   3.240   5.384  0.2950  0.3215 -0.2536
 3941TIP3    H136018   0.643   3.285   5.304  0.1700  0.2582 -0.2452
 3941TIP3    H236019   0.757   3.278   5.404 -0.0981  1.0382  0.1202
 3942TIP3   OH236020  -1.632  -2.557   3.464 -0.0364  0.1907 -0.1217
 3942TIP3    H136021  -1.624  -2.652   3.473  0.5071  0.2385 -0.0457
 3942TIP3    H236022  -1.699  -2.533   3.527  1.0389  0.0498  1.1314
 3943TIP3   OH236023  -2.171   3.053   3.917 -0.7886 -0.2124 -0.3084
 3943TIP3    H136024  -2.097   3.108   3.943 -0.7399 -1.0132  1.3567
 3943TIP3    H236025  -2.202   3.092   3.835  0.3489  1.2134 -0.1008
 3944TIP3   OH236026  -1.775   2.913   5.184  0.1379  0.3167  0.3621
 3944TIP3    H136027  -1.860   2.949   5.210 -0.1510 -0.1481  0.0742
 3944TIP3    H236028  -1.714   2.986   5.193 -0.3164  0.6880  0.4472
 3945TIP3   OH236029   0.370   2.218   3.246  0.0733 -0.0272  0.3015
 3945TIP3    H136030   0.354   2.181   3.332  0.5731 -0.4966  0.1978
 3945TIP3    H236031   0.405   2.146   3.194 -0.0451  0.2934 -0.2448
 3946TIP3   OH236032  -2.147   2.770   4.214  0.1415 -0.1344  0.1104
 3946TIP3    H136033  -2.068   2.720   4.232 -0.8851 -1.8852 -0.0926
 3946TIP3    H236034  -2.156   2.828   4.290 -0.3022 -2.4524  1.9268
 3947TIP3   OH236035  -1.658   2.191   3.010 -0.2428  0.0804  0.2606
 3947TIP3    H136036  -1.752   2.203   3.001 -0.5002 -0.9228  1.3340
 3947TIP3    H236037  -1.645   2.172   3.103  1.0495  0.4640  0.1801
 3948TIP3   OH236038  -0.030   0.097   2.633 -0.0410 -0.0843  0.1541
 3948TIP3    H136039  -0.016   0.085   2.539 -0.5407 -2.3921  0.3098
 3948TIP3    H236040  -0.120   0.129   2.639  0.4757  1.5294 -0.1820
 3949TIP3   OH236041   1.829   2.885   2.842  0.4290 -0.0734 -0.1655
 3949TIP3    H136042   1.848   2.881   2.748  0.7397  0.1435 -0.1114
 3949TIP3    H236043   1.734   2.874   2.847  0.4907 -0.7873 -0.4558
 3950TIP3   OH236044  -1.006   3.032   3.311 -0.2263  0.0662  0.2067
 3950TIP3    H136045  -0.943   3.082   3.260 -0.6720 -0.5386 -0.9832
 3950TIP3    H236046  -1.002   3.070   3.398 -0.5027  2.1016 -0.6239
 3951TIP3   OH236047  -0.530  -0.174   3.601  0.3466  0.5525  0.1944
 3951TIP3    H136048  -0.497  -0.167   3.691  0.6612  1.2418  0.0359
 3951TIP3    H236049  -0.477  -0.242   3.561  1.2416  1.2867  0.0965
 3952TIP3   OH236050   1.569   0.391   3.001  0.2454  0.2628  1.1105
 3952TIP3    H136051   1.489   0.422   2.958 -0.5757 -1.1324  1.5614
 3952TIP3    H236052   1.617   0.470   3.023 -0.6716  1.1001  0.1777
 3953TIP3   OH236053  -0.025   0.427   4.077  0.2767  0.1187 -0.4878
 3953TIP3    H136054  -0.077   0.503   4.102 -0.1583 -0.0523 -0.8409
 3953TIP3    H236055   0.053   0.463   4.035 -0.8332  0.3825 -2.4455
 3954TIP3   OH236056  -0.735   2.936   3.805 -0.6434 -0.0674 -0.3158
 3954TIP3    H136057  -0.830   2.938   3.793 -0.5560 -2.3897 -2.0961
 3954TIP3    H236058  -0.705   2.865   3.749  2.0685 -0.0609  0.9498
 3955TIP3   OH236059   1.947   0.872   5.481  0.5759 -0.4471 -0.0781
 3955TIP3    H136060   2.040   0.876   5.459  0.4589  0.7587 -0.4245
 3955TIP3    H236061   1.910   0.812   5.416  0.6979  1.0161 -1.5486
 3956TIP3   OH236062  -0.596  -1.649   4.095 -0.1599  0.4020  0.2921
 3956TIP3    H136063  -0.550  -1.570   4.067 -0.8644  0.3593 -1.0653
 3956TIP3    H236064  -0.637  -1.683   4.016 -3.3961  1.0145  1.5439
 3957TIP3   OH236065   0.596   1.597   5.473 -0.4752 -0.0187 -0.2598
 3957TIP3    H136066   0.650   1.524   5.504  0.5719 -0.0605 -2.0884
 3957TIP3    H236067   0.645   1.634   5.400 -2.8324  0.0363 -1.9271
 3958TIP3   OH236068  -0.942  -1.211   2.698 -0.2130  0.5307 -0.2918
 3958TIP3    H136069  -0.905  -1.148   2.636  0.1370 -0.8921 -1.5850
 3958TIP3    H236070  -1.010  -1.162   2.744  0.3578  1.9774 -0.9203
 3959TIP3   OH236071   2.666   3.192   3.602 -0.0782  0.0529  0.1054
 3959TIP3    H136072   2.628   3.194   3.690  0.2995  0.1586  0.2714
 3959TIP3    H236073   2.651   3.103   3.570 -1.5748  0.4289 -0.3354
 3960TIP3   OH236074   0.960   3.129   4.393 -0.1100  0.3770  0.4059
 3960TIP3    H136075   0.882   3.177   4.364 -1.3056 -1.2757  0.7932
 3960TIP3    H236076   1.016   3.197   4.431 -0.1796  2.0277 -2.1575
 3961TIP3   OH236077  -2.161   2.056   3.578  0.0780  0.0172 -0.2719
 3961TIP3    H136078  -2.210   2.133   3.607  0.8662  0.6936 -0.6924
 3961TIP3    H236079  -2.090   2.048   3.641  0.7223  0.3922 -0.9344
 3962TIP3   OH236080   2.909   0.449   3.950  0.1529  0.3774  0.4024
 3962TIP3    H136081   2.869   0.443   3.863 -0.0203 -1.8860  0.5883
 3962TIP3    H236082   2.930   0.359   3.973 -0.6562  0.8079  3.1217
 3963TIP3   OH236083  -2.732  -0.603   4.149  0.1284  0.3542  0.5770
 3963TIP3    H136084  -2.722  -0.632   4.240 -0.8089 -0.3753  0.4664
 3963TIP3    H236085  -2.645  -0.618   4.110  0.3515  0.0325  1.1750
 3964TIP3   OH236086   1.290  -0.410   2.544 -0.4955  0.0459  0.7339
 3964TIP3    H136087   1.220  -0.475   2.539 -1.2494  0.8782  0.2319
 3964TIP3    H236088   1.359  -0.446   2.489  0.8567 -2.3376  3.6818
 3965TIP3   OH236089  -2.374  -0.494   5.663  0.1423 -0.1161 -0.3467
 3965TIP3    H136090  -2.420  -0.531   5.588 -0.6469  1.0227 -0.4618
 3965TIP3    H236091  -2.416  -0.533   5.740  2.0552 -2.5809 -0.4356
 3966TIP3   OH236092   1.109  -0.568   4.303 -0.0367 -0.0375 -0.3023
 3966TIP3    H136093   1.138  -0.481   4.275 -1.8714  0.4967 -0.6855
 3966TIP3    H236094   1.020  -0.575   4.268  0.4850 -2.5535 -1.3141
 3967TIP3   OH236095  -1.864  -1.027   4.137  0.0339  0.2196  0.5263
 3967TIP3    H136096  -1.951  -1.051   4.168 -0.2483  1.1037  0.4490
 3967TIP3    H236097  -1.812  -1.016   4.216 -0.2888  0.9964  0.6429
 3968TIP3   OH236098  -2.033  -3.112   2.549  0.0961 -0.7353  0.0542
 3968TIP3    H136099  -2.008  -3.160   2.470  0.9792  0.5966 -0.5152
 3968TIP3    H236100  -2.002  -3.023   2.534 -2.2769  0.2644  0.6999
 3969TIP3   OH236101   2.018   1.280   5.614 -0.0650 -0.0917  0.0726
 3969TIP3    H136102   1.952   1.211   5.615 -1.1168  0.8236 -1.8133
 3969TIP3    H236103   1.978   1.352   5.663 -0.1538  0.1773 -0.3885
 3970TIP3   OH236104  -2.474   1.564   5.609  0.3124 -0.3129  0.0755
 3970TIP3    H136105  -2.519   1.582   5.527 -0.4129 -0.2133  0.4910
 3970TIP3    H236106  -2.411   1.495   5.587  0.9942  0.5727 -0.8397
 3971TIP3   OH236107  -3.146  -2.378   4.751  0.3544 -0.2671  0.3067
 3971TIP3    H136108  -3.219  -2.432   4.719 -0.5930  0.2535  1.4830
 3971TIP3    H236109  -3.124  -2.323   4.676 -0.6117 -0.2899 -0.0225
 3972TIP3   OH236110  -0.693  -2.423   4.117  0.4713 -0.2078  0.3233
 3972TIP3    H136111  -0.729  -2.428   4.028 -2.9518 -0.3835  1.6001
 3972TIP3    H236112  -0.681  -2.514   4.143  0.8288 -0.1657  0.3190
 3973TIP3   OH236113  -2.147  -3.220   5.647  0.3568 -0.2852  0.0261
 3973TIP3    H136114  -2.114  -3.306   5.673 -0.5039 -1.1105 -1.4565
 3973TIP3    H236115  -2.227  -3.209   5.698  0.6074 -0.2351  0.4147
 3974TIP3   OH236116  -0.081  -1.409   5.075 -0.3720  0.6979 -0.1628
 3974TIP3    H136117  -0.056  -1.366   4.993  0.0281  1.9411  0.5778
 3974TIP3    H236118   0.003  -1.431   5.116 -0.5553  0.6347  0.1809
 3975TIP3   OH236119   0.600  -1.718   3.027  0.4028 -0.3573 -0.1325
 3975TIP3    H136120   0.617  -1.716   3.121  1.3673 -3.4156 -0.1383
 3975TIP3    H236121   0.684  -1.742   2.988 -0.4748 -1.2388 -1.5611
 3976TIP3   OH236122  -0.816  -0.237   1.819 -0.4624 -0.1458 -0.1959
 3976TIP3    H136123  -0.858  -0.192   1.745  2.4252 -1.4514 -2.8803
 3976TIP3    H236124  -0.748  -0.177   1.848  0.6859 -1.0104 -1.0081
 3977TIP3   OH236125  -1.132   0.095   3.673  0.0640 -0.6494  0.0003
 3977TIP3    H136126  -1.206   0.044   3.706 -0.0315 -0.5506 -0.0564
 3977TIP3    H236127  -1.147   0.100   3.578 -0.8009  0.8248  0.1773
 3978TIP3   OH236128   1.451  -2.413   3.907 -0.0221  0.2959 -0.0781
 3978TIP3    H136129   1.474  -2.325   3.935 -0.7581 -0.0432  1.6750
 3978TIP3    H236130   1.495  -2.423   3.822  0.3675  2.1955 -0.1355
 3979TIP3   OH236131  -2.359  -1.765   5.544  0.5773  0.7289 -0.1909
 3979TIP3    H136132  -2.388  -1.856   5.548 -1.1228  1.1567 -1.4650
 3979TIP3    H236133  -2.436  -1.717   5.514  2.4598  2.0153 -3.5438
 3980TIP3   OH236134  -3.253  -1.795   4.119 -0.1516  0.4847 -0.3923
 3980TIP3    H136135  -3.166  -1.823   4.089 -0.8567  0.0947 -2.1811
 3980TIP3    H236136  -3.313  -1.859   4.082 -1.2271  0.7927  0.7562
 3981TIP3   OH236137  -0.085  -3.179   3.930 -0.1983 -0.2171  0.3670
 3981TIP3    H136138  -0.053  -3.149   3.846 -0.8228 -0.4538  0.0374
 3981TIP3    H236139  -0.068  -3.106   3.990  2.1816 -0.8258  0.5309
 3982TIP3   OH236140   0.695   2.983   4.915 -0.1108 -0.0527  0.6497
 3982TIP3    H136141   0.617   3.035   4.898  0.8912  0.4245 -3.4184
 3982TIP3    H236142   0.767   3.031   4.873  2.2743 -1.0228  3.2555
 3983TIP3   OH236143   2.454   1.219   4.149 -0.0237 -0.1674 -0.2611
 3983TIP3    H136144   2.378   1.273   4.171 -0.8301 -1.2998 -0.1894
 3983TIP3    H236145   2.512   1.228   4.224 -0.5319 -0.0648  0.1263
 3984TIP3   OH236146  -1.053  -2.018   2.969 -0.3542 -0.3401  0.3696
 3984TIP3    H136147  -1.022  -2.033   2.880 -1.6353 -1.8766  0.1361
 3984TIP3    H236148  -1.117  -2.088   2.984 -1.3493  0.8513  1.9257
 3985TIP3   OH236149  -0.406   0.765   3.893 -0.1748 -0.0048 -0.3095
 3985TIP3    H136150  -0.370   0.746   3.980  0.1953  0.3428 -0.3820
 3985TIP3    H236151  -0.365   0.700   3.836 -0.6322 -0.4134 -0.1823
 3986TIP3   OH236152  -1.762   1.841   5.000 -0.2242  0.0560  0.7788
 3986TIP3    H136153  -1.753   1.788   5.079  1.7893 -0.1089  0.4887
 3986TIP3    H236154  -1.738   1.782   4.929  0.3942  0.8745  0.2896
 3987TIP3   OH236155  -2.863   0.370   3.676  0.9335  0.1520  0.3340
 3987TIP3    H136156  -2.917   0.292   3.688 -1.1810  1.3951 -0.6811
 3987TIP3    H236157  -2.788   0.340   3.624  0.7308 -1.4035  0.9042
 3988TIP3   OH236158   2.772  -2.880   3.691 -0.5176  0.5485 -0.6022
 3988TIP3    H136159   2.755  -2.914   3.779  2.8876 -0.1389 -0.0665
 3988TIP3    H236160   2.717  -2.934   3.633 -1.4011 -0.2636  0.9386
 3989TIP3   OH236161   2.920  -0.976   5.467 -0.2997 -0.2197  0.5017
 3989TIP3    H136162   2.879  -1.048   5.513 -1.3946  0.6801  0.9738
 3989TIP3    H236163   2.899  -0.992   5.375 -0.6677 -0.4101  0.6177
 3990TIP3   OH236164  -2.575   0.052   4.181 -0.5659  0.4235  0.0430
 3990TIP3    H136165  -2.606   0.106   4.253 -1.4281 -1.2558  1.0101
 3990TIP3    H236166  -2.634  -0.024   4.181  0.8708 -0.7606 -0.9262
 3991TIP3   OH236167  -2.211   2.677   5.540  0.5062  0.5677 -0.4161
 3991TIP3    H136168  -2.187   2.758   5.586  0.9397  0.0421  0.2863
 3991TIP3    H236169  -2.264   2.628   5.604 -2.5578  1.6865 -1.8849
 3992TIP3   OH236170   0.782  -0.004   5.896  0.5238 -0.1532 -0.1613
 3992TIP3    H136171   0.689  -0.024   5.904  0.5071  0.2098  0.6673
 3992TIP3    H236172   0.785   0.088   5.871  0.6568  0.0918  0.7017
 3993TIP3   OH236173   3.009  -0.084   3.541 -0.1289  0.5529  0.4396
 3993TIP3    H136174   3.080  -0.124   3.592  0.6451 -0.4796 -1.3964
 3993TIP3    H236175   3.051  -0.056   3.460 -1.2333  2.6486  0.5275
 3994TIP3   OH236176   1.521  -2.578   5.464 -0.4717 -0.1382  0.1244
 3994TIP3    H136177   1.502  -2.490   5.497  0.0530  0.3760 -0.8782
 3994TIP3    H236178   1.596  -2.607   5.515 -0.5315  0.0682  0.3342
 3995TIP3   OH236179   0.590  -3.198   3.966  0.1744  0.2302  0.2924
 3995TIP3    H136180   0.506  -3.206   4.010 -0.2220 -2.0286 -0.7392
 3995TIP3    H236181   0.647  -3.156   4.031 -0.4585 -2.5884  2.9138
 3996TIP3   OH236182  -0.960  -2.107   2.685  0.0409 -0.1082  0.0183
 3996TIP3    H136183  -1.001  -2.032   2.642  1.2350  0.0140 -0.9538
 3996TIP3    H236184  -1.019  -2.180   2.666 -1.1758  0.5802  1.0483
 3997TIP3   OH236185  -1.787  -0.557   4.670  0.6565  0.6997 -0.2109
 3997TIP3    H136186  -1.769  -0.518   4.584  1.1075 -2.2929 -1.6231
 3997TIP3    H236187  -1.877  -0.587   4.664  0.7695  0.2493  0.2583
 3998TIP3   OH236188  -2.536   0.055   3.404 -1.0762  0.4027 -0.4963
 3998TIP3    H136189  -2.613  -0.001   3.413 -2.1671  1.8012 -0.6856
 3998TIP3    H236190  -2.524   0.065   3.310  1.9839 -3.1721 -0.7084
 3999TIP3   OH236191   3.056   0.677   5.826  0.0897  0.0910 -0.0692
 3999TIP3    H136192   3.149   0.656   5.834 -0.2084 -1.5421 -0.5125
 3999TIP3    H236193   3.037   0.667   5.733 -0.8942 -1.3567  0.2556
 4000TIP3   OH236194  -1.615   2.024   5.205  0.5012 -0.4620  0.6312
 4000TIP3    H136195  -1.542   1.963   5.201  0.1739 -0.7632 -1.2838
 4000TIP3    H236196  -1.681   1.989   5.145 -0.0828  1.2635  0.1863
 4001TIP3   OH236197   0.622  -0.922   3.461  0.2271 -0.3994  0.3361
 4001TIP3    H136198   0.551  -0.974   3.500 -1.8479 -0.8291 -3.5540
 4001TIP3    H236199   0.581  -0.840   3.435  2.3733  1.3551  2.0411
 4002TIP3   OH236200  -1.104  -2.220   5.644 -0.0924  0.5156  0.7485
 4002TIP3    H136201  -1.026  -2.175   5.614  0.6663 -1.4619 -0.4559
 4002TIP3    H236202  -1.071  -2.296   5.692 -1.1978 -0.8485 -0.5384
 4003TIP3   OH236203   2.171   2.453   3.912  0.1875 -0.1066 -0.3292
 4003TIP3    H136204   2.119   2.426   3.836  1.0182  3.6585 -2.4879
 4003TIP3    H236205   2.125   2.529   3.947  2.6777  1.7084 -0.6896
 4004TIP3   OH236206   0.755  -1.467   2.464 -0.6248  0.2729 -0.2801
 4004TIP3    H136207   0.731  -1.434   2.378 -0.5034  1.5606  0.1573
 4004TIP3    H236208   0.813  -1.541   2.446  0.7270  1.5330 -1.3019
 4005TIP3   OH236209  -2.990  -2.494   5.133  0.1870 -0.3163  0.4458
 4005TIP3    H136210  -3.040  -2.498   5.215  0.0004  0.4944  0.3779
 4005TIP3    H236211  -2.933  -2.418   5.143  0.4968 -0.4829  0.0015
 4006TIP3   OH236212  -2.807  -2.944   2.182 -0.3058 -0.8777 -0.0577
 4006TIP3    H136213  -2.747  -2.897   2.124 -1.0917 -1.1010 -1.0867
 4006TIP3    H236214  -2.750  -2.998   2.237  0.4238 -1.1510 -1.0600
 4007TIP3   OH236215   0.992   3.018   2.612 -0.8234 -0.0377 -0.3289
 4007TIP3    H136216   1.040   3.098   2.633 -2.0120  0.0076  2.7008
 4007TIP3    H236217   1.061   2.954   2.590  0.3280  1.0884 -0.0986
 4008TIP3   OH236218  -1.386   0.579   3.213  0.4711  0.3112  0.4829
 4008TIP3    H136219  -1.436   0.606   3.290  1.4965  1.0007  0.9307
 4008TIP3    H236220  -1.386   0.483   3.218 -1.9481  0.2129 -0.3070
 4009TIP3   OH236221  -0.160  -0.530   3.743  0.9703 -1.1035 -0.3433
 4009TIP3    H136222  -0.218  -0.457   3.766 -0.0768 -2.1792  0.5062
 4009TIP3    H236223  -0.172  -0.541   3.649 -2.5984 -3.2084  0.1854
 4010TIP3   OH236224  -2.203  -2.160   3.445  0.3187 -0.1874  0.1238
 4010TIP3    H136225  -2.140  -2.227   3.471  0.2220 -0.5439 -0.5549
 4010TIP3    H236226  -2.279  -2.209   3.414 -0.1053  0.2403  0.4747
 4011TIP3   OH236227  -2.190   2.888   3.194 -0.8172 -0.4170  0.2373
 4011TIP3    H136228  -2.280   2.918   3.189 -0.2774  1.1926 -0.8267
 4011TIP3    H236229  -2.170   2.859   3.105  0.1961  0.8345  0.0262
 4012TIP3   OH236230  -1.832   0.649   3.351  0.0018  0.2685  0.2817
 4012TIP3    H136231  -1.920   0.665   3.386  0.2127  1.2629  0.3830
 4012TIP3    H236232  -1.792   0.736   3.345  0.3644  0.0209 -1.4263
 4013TIP3   OH236233   2.241   2.336   3.297  0.3008 -0.0019 -0.1878
 4013TIP3    H136234   2.230   2.383   3.379 -0.1475  0.6414 -0.6122
 4013TIP3    H236235   2.318   2.281   3.312  0.0053 -0.1822  0.7880
 4014TIP3   OH236236   3.151   1.798   4.299  0.5330  0.2450  0.3730
 4014TIP3    H136237   3.077   1.737   4.302 -0.2881  1.2560  1.7437
 4014TIP3    H236238   3.225   1.744   4.270 -0.4386 -1.0950  0.2865
 4015TIP3   OH236239  -0.446   0.708   3.181 -0.8526  0.1002 -0.4260
 4015TIP3    H136240  -0.520   0.766   3.199 -1.5612 -1.2298  1.1885
 4015TIP3    H236241  -0.473   0.658   3.104 -2.3238 -1.4160  1.0210
 4016TIP3   OH236242  -2.636   3.244   3.973  0.4309 -0.0154  0.1989
 4016TIP3    H136243  -2.670   3.283   4.053  0.9528  1.3672 -0.2214
 4016TIP3    H236244  -2.598   3.160   4.001  1.1907  0.7376  1.5156
 4017TIP3   OH236245   1.561   2.995   4.135  0.0339  0.4996  0.3296
 4017TIP3    H136246   1.612   2.913   4.142 -0.2546  0.1078 -1.6016
 4017TIP3    H236247   1.571   3.036   4.221  1.6666 -0.7014  0.7804
 4018TIP3   OH236248   3.141   0.989   3.108 -0.2564  0.2129 -0.2428
 4018TIP3    H136249   3.051   0.990   3.142  0.2050  0.1265  1.0177
 4018TIP3    H236250   3.168   0.897   3.116  0.5856  0.5614  1.1615
 4019TIP3   OH236251  -2.500  -2.257   5.560  0.2343  0.4520  0.0690
 4019TIP3    H136252  -2.576  -2.315   5.571  1.6454 -1.5195 -0.0405
 4019TIP3    H236253  -2.424  -2.314   5.574  1.7191  2.4395  0.6033
 4020TIP3   OH236254  -1.039   2.434   4.862 -0.2287  0.7598  0.7369
 4020TIP3    H136255  -0.980   2.509   4.859  0.2419  0.3756 -1.4927
 4020TIP3    H236256  -1.032   2.394   4.775 -2.6502 -0.1897  0.8989
 4021TIP3   OH236257  -2.977  -2.430   4.123 -0.1638  0.1870 -0.2680
 4021TIP3    H136258  -2.929  -2.387   4.193 -1.0743  1.0250 -0.1371
 4021TIP3    H236259  -3.067  -2.434   4.154 -0.2419 -1.1536 -0.5963
 4022TIP3   OH236260  -0.737   2.930   2.928 -0.2994  0.0011  0.1741
 4022TIP3    H136261  -0.743   2.834   2.925  0.9979 -0.0718 -0.5014
 4022TIP3    H236262  -0.828   2.959   2.929 -0.7143 -1.2288  0.1160
 4023TIP3   OH236263   3.148   1.366   3.914  0.1484  0.4616 -0.4084
 4023TIP3    H136264   3.119   1.357   3.823 -0.3271 -1.1536 -0.1304
 4023TIP3    H236265   3.223   1.308   3.921  0.2192  0.6224  0.2118
 4024TIP3   OH236266   3.213  -0.931   5.243 -0.2836 -0.0103 -0.2177
 4024TIP3    H136267   3.179  -0.987   5.172 -1.0933 -0.7465  0.7229
 4024TIP3    H236268   3.255  -0.993   5.304 -0.5057  0.4956  0.4596
 4025TIP3   OH236269  -3.257   2.067   3.588 -0.0507 -0.0027  0.0481
 4025TIP3    H136270  -3.253   2.151   3.635  0.8329 -0.8863  1.6768
 4025TIP3    H236271  -3.294   2.006   3.652  0.9254 -1.1996 -0.4756
 4026TIP3   OH236272   2.113  -2.468   3.701 -0.0584 -0.3222  0.3109
 4026TIP3    H136273   2.092  -2.542   3.645 -0.0392  1.0144 -1.5600
 4026TIP3    H236274   2.071  -2.393   3.658  0.9897  0.9491  1.4215
 4027TIP3   OH236275  -2.559  -0.397   3.751  0.1976  0.5517 -1.2753
 4027TIP3    H136276  -2.570  -0.490   3.775 -0.8090  1.2054  1.0655
 4027TIP3    H236277  -2.525  -0.400   3.662  0.3052 -2.0780 -1.2423
 4028TIP3   OH236278   0.536  -3.283   3.700 -0.0400 -0.5704  0.4377
 4028TIP3    H136279   0.568  -3.290   3.790  0.6585 -0.6714  0.1848
 4028TIP3    H236280   0.544  -3.190   3.680 -1.8315 -0.2302  1.0587
 4029TIP3   OH236281   0.201  -1.071   4.874  0.5065  0.1836  0.1326
 4029TIP3    H136282   0.296  -1.070   4.887  0.6673  1.3186 -0.9436
 4029TIP3    H236283   0.190  -1.091   4.781 -0.2673  1.0324  0.0264
 4030TIP3   OH236284   1.060  -1.186   3.797 -0.2732  0.1285  0.0858
 4030TIP3    H136285   1.127  -1.152   3.856 -0.1326  0.0899 -0.0493
 4030TIP3    H236286   1.037  -1.271   3.834  0.5446 -0.3511 -0.4687
 4031TIP3   OH236287   1.106   3.345   5.908 -0.3329 -0.2478  0.1752
 4031TIP3    H136288   1.082   3.421   5.961 -3.1010 -1.7051  1.1838
 4031TIP3    H236289   1.161   3.381   5.838 -1.0691  2.5628  0.9355
 4032TIP3   OH236290  -1.886   1.449   5.168 -0.2699 -0.4132 -0.1183
 4032TIP3    H136291  -1.821   1.518   5.172 -1.0195  0.2816  0.4803
 4032TIP3    H236292  -1.852   1.381   5.227  0.1805 -0.3001 -0.2450
 4033TIP3   OH236293  -1.416   1.860   5.246 -0.3368 -0.4418 -0.5114
 4033TIP3    H136294  -1.432   1.765   5.252  0.0701 -0.4929 -0.2586
 4033TIP3    H236295  -1.370   1.882   5.327 -0.2277 -0.0642 -0.6768
 4034TIP3   OH236296  -1.199  -1.428   5.727 -0.5964 -0.4419 -0.6445
 4034TIP3    H136297  -1.151  -1.497   5.681 -0.9097 -0.5289 -0.8432
 4034TIP3    H236298  -1.280  -1.470   5.755 -0.8903 -0.0982 -0.9644
 4035TIP3   OH236299   1.077  -1.822   4.770 -0.4587  0.2715 -0.1211
 4035TIP3    H136300   1.124  -1.742   4.748 -0.6184 -0.1062 -1.9555
 4035TIP3    H236301   0.988  -1.792   4.790 -0.6220  0.5378 -1.1801
 4036TIP3   OH236302   0.728   0.264   5.819 -0.6136 -0.1265  0.1534
 4036TIP3    H136303   0.653   0.293   5.768 -0.0903 -0.2028 -0.6716
 4036TIP3    H236304   0.784   0.341   5.825 -0.7805 -0.0495  0.8332
 4037TIP3   OH236305  -1.702  -1.873   2.845 -0.0553 -0.0749 -0.2308
 4037TIP3    H136306  -1.701  -1.797   2.787 -2.2868  0.9549  0.9670
 4037TIP3    H236307  -1.755  -1.938   2.799  0.3938 -0.2690 -0.4832
 4038TIP3   OH236308  -3.242   0.849   4.256 -0.4449 -0.6500 -0.0377
 4038TIP3    H136309  -3.203   0.934   4.278  1.0582 -1.3956  0.3067
 4038TIP3    H236310  -3.299   0.829   4.331 -1.2849  0.3006 -0.3944
 4039TIP3   OH236311  -0.445   2.931   5.125  0.2492  0.3048  0.1255
 4039TIP3    H136312  -0.354   2.951   5.149  0.3120 -0.9007  0.9514
 4039TIP3    H236313  -0.470   2.859   5.183 -1.3284  0.7939  0.0872
 4040TIP3   OH236314   0.716  -1.696   5.833  0.0304  0.2785  0.2341
 4040TIP3    H136315   0.745  -1.667   5.919  0.4766  0.7841 -0.0809
 4040TIP3    H236316   0.785  -1.755   5.802  1.1852  2.1065 -0.8556
 4041TIP3   OH236317   2.511  -0.164   2.929 -0.5392  0.2630 -0.0011
 4041TIP3    H136318   2.600  -0.194   2.910 -0.4452  1.1523 -1.0415
 4041TIP3    H236319   2.463  -0.176   2.847 -2.2504 -2.9889  1.2810
 4042TIP3   OH236320   1.042  -1.416   4.008  0.3008  0.4160 -0.2611
 4042TIP3    H136321   1.128  -1.386   4.036  1.1527  0.3362 -2.5986
 4042TIP3    H236322   1.044  -1.510   4.020  0.7296  0.3618 -0.7012
 4043TIP3   OH236323  -1.063   0.352   5.634  0.2027  0.5462  0.2560
 4043TIP3    H136324  -1.152   0.317   5.631  0.6395 -0.5240 -1.0457
 4043TIP3    H236325  -1.073   0.444   5.610 -0.4482  0.2048 -0.8274
 4044TIP3   OH236326  -0.797   3.290   3.710  0.2402 -0.3778  0.1554
 4044TIP3    H136327  -0.851   3.259   3.783  0.0971  1.9063  1.0902
 4044TIP3    H236328  -0.725   3.337   3.752 -0.0737  1.3603 -1.1454
 4045TIP3   OH236329  -1.478  -1.246   4.776  0.0852  0.2072 -0.0356
 4045TIP3    H136330  -1.407  -1.281   4.722  1.7280 -0.4244  2.3854
 4045TIP3    H236331  -1.537  -1.204   4.713  1.8510 -0.4817 -2.2969
 4046TIP3   OH236332   0.428   1.967   3.115 -0.1327 -0.3597 -0.9418
 4046TIP3    H136333   0.502   1.944   3.171  0.1943  1.6214 -0.4904
 4046TIP3    H236334   0.353   1.924   3.155  0.1623  0.6845  0.8423
 4047TIP3   OH236335  -2.936  -2.785   4.766 -0.1564  0.1693  0.1755
 4047TIP3    H136336  -2.980  -2.832   4.837 -3.4249  0.0569 -1.7321
 4047TIP3    H236337  -2.919  -2.698   4.802 -0.1980 -0.3787  1.5924
 4048TIP3   OH236338   3.217  -1.175   5.117 -0.2744 -0.1523 -0.1233
 4048TIP3    H136339   3.269  -1.243   5.158 -0.1054  0.8554  1.3996
 4048TIP3    H236340   3.151  -1.223   5.065 -0.5268 -1.4780  1.3481
 4049TIP3   OH236341   2.998  -1.963   5.755  0.5502 -0.2251 -0.7876
 4049TIP3    H136342   3.036  -1.897   5.698  0.3483  0.3975 -0.2166
 4049TIP3    H236343   3.072  -2.000   5.803  0.4833  0.8514  0.1840
 4050TIP3   OH236344  -0.879   3.283   2.710 -0.0834  0.3634 -0.6726
 4050TIP3    H136345  -0.960   3.293   2.759  0.2329  2.1665 -0.4352
 4050TIP3    H236346  -0.885   3.197   2.669 -0.4688 -1.1596  2.3192
 4051TIP3   OH236347  -1.945   2.834   3.786  0.1966  0.2077 -0.0404
 4051TIP3    H136348  -1.992   2.909   3.820 -1.6538 -1.0830  0.3977
 4051TIP3    H236349  -2.011   2.764   3.781  1.1046 -0.5860 -3.2226
 4052TIP3   OH236350  -0.036  -1.520   2.976 -0.2497 -0.1721 -0.2911
 4052TIP3    H136351   0.013  -1.511   3.058 -1.7856 -0.3071  0.6759
 4052TIP3    H236352  -0.013  -1.608   2.944 -0.3929 -0.5118  0.5141
 4053TIP3   OH236353   2.093   2.065   4.505 -0.3392  0.0837 -0.0718
 4053TIP3    H136354   2.009   2.048   4.461  0.4657 -0.9434 -1.2685
 4053TIP3    H236355   2.110   1.986   4.556 -0.8461  0.9291  1.4739
 4054TIP3   OH236356   1.601   1.874   4.281  0.0473  0.5589  0.4584
 4054TIP3    H136357   1.640   1.808   4.223  0.6800  1.7397 -0.4944
 4054TIP3    H236358   1.569   1.942   4.222 -0.1085  1.3724  1.4485
 4055TIP3   OH236359   2.462  -1.885   5.051  0.0644 -0.0935 -0.3868
 4055TIP3    H136360   2.502  -1.971   5.059 -1.0678 -0.5032  1.4333
 4055TIP3    H236361   2.404  -1.892   4.975 -2.0100 -1.8521  1.2272
 4056TIP3   OH236362   2.685   1.160   3.583  0.6285 -0.1508  0.0490
 4056TIP3    H136363   2.741   1.141   3.658  0.1243  0.9271  0.7258
 4056TIP3    H236364   2.648   1.246   3.602 -2.6764 -1.5153  0.4959
 4057TIP3   OH236365  -2.623   0.432   3.289  0.1782 -0.1027  0.0294
 4057TIP3    H136366  -2.530   0.410   3.289  0.2785  0.3039 -0.3121
 4057TIP3    H236367  -2.656   0.399   3.372  0.5855 -0.4244  0.0644
 4058TIP3   OH236368   1.600  -1.857   3.609 -0.5847  0.1996  0.1551
 4058TIP3    H136369   1.610  -1.864   3.514  0.5952  0.3306  0.2484
 4058TIP3    H236370   1.632  -1.941   3.642 -1.9244 -0.2324  0.3970
 4059TIP3   OH236371   0.026  -1.553   2.663  0.4747  0.3953  0.0459
 4059TIP3    H136372   0.014  -1.586   2.752  0.8624  0.4904  0.1327
 4059TIP3    H236373  -0.063  -1.550   2.628  0.2710  0.7842  0.5797
 4060TIP3   OH236374  -2.008   0.904   3.684 -0.0306 -0.1215 -0.3158
 4060TIP3    H136375  -2.085   0.948   3.720  0.1253  0.6228 -0.8696
 4060TIP3    H236376  -1.935   0.937   3.737 -0.1095 -1.0673  0.4198
 4061TIP3   OH236377   3.047  -2.389   4.189  0.2462 -0.3597 -0.3023
 4061TIP3    H136378   3.081  -2.452   4.252 -0.3369 -0.4264 -0.0477
 4061TIP3    H236379   3.006  -2.442   4.121 -1.2557 -0.2667  0.4805
 4062TIP3   OH236380   0.211  -1.777   4.872  0.3519  0.2187  0.3259
 4062TIP3    H136381   0.194  -1.872   4.876  0.4402  0.2194  0.7990
 4062TIP3    H236382   0.221  -1.751   4.964 -0.5436  0.8447  0.2638
 4063TIP3   OH236383   1.488  -1.362   4.924  0.5508 -0.2143 -0.0671
 4063TIP3    H136384   1.433  -1.297   4.880  0.8302 -0.4261 -0.7325
 4063TIP3    H236385   1.478  -1.342   5.017 -1.6537 -1.0262 -0.0737
 4064TIP3   OH236386   0.996  -3.235   2.485 -0.2298  0.0726 -0.4078
 4064TIP3    H136387   1.005  -3.146   2.451 -0.6464  0.5084  0.5748
 4064TIP3    H236388   1.080  -3.253   2.528  0.1686 -0.3453 -1.3388
 4065TIP3   OH236389   2.166   0.578   3.178 -0.5303 -0.1365 -0.7308
 4065TIP3    H136390   2.215   0.658   3.195 -1.8861  0.1905  2.1797
 4065TIP3    H236391   2.230   0.508   3.189  0.1614  0.4320 -1.0802
 4066TIP3   OH236392   1.863   0.163   2.999 -0.5194  0.0079 -0.2748
 4066TIP3    H136393   1.947   0.117   2.995 -1.4070 -1.8254  0.6744
 4066TIP3    H236394   1.885   0.256   2.993  1.6753 -0.3681  1.0337
 4067TIP3   OH236395  -2.041  -1.991   5.160 -0.3168  0.2847  0.1475
 4067TIP3    H136396  -2.039  -1.936   5.082 -0.2715 -0.1043 -0.1335
 4067TIP3    H236397  -2.091  -1.942   5.224 -2.8965 -0.6083 -1.0713
 4068TIP3   OH236398  -1.695  -1.979   3.284  0.0491  0.1634 -0.1774
 4068TIP3    H136399  -1.633  -1.920   3.325  1.2081  0.0371 -1.6693
 4068TIP3    H236400  -1.734  -1.928   3.213  1.5820 -0.9741 -1.9465
 4069TIP3   OH236401  -2.443  -2.940   3.378  0.6510  0.1454 -0.0074
 4069TIP3    H136402  -2.476  -2.930   3.289 -0.4847  0.6027  0.4507
 4069TIP3    H236403  -2.491  -3.015   3.413  0.9142  0.1198  0.3015
 4070TIP3   OH236404   0.245  -2.304   4.709 -0.1805 -0.1781  0.2900
 4070TIP3    H136405   0.243  -2.381   4.652 -0.9248  0.0152  0.0294
 4070TIP3    H236406   0.169  -2.253   4.681 -0.9682 -0.3972  1.9004
 4071TIP3   OH236407   2.234   0.678   2.459  0.0487 -0.4608 -0.3856
 4071TIP3    H136408   2.152   0.664   2.412  1.6142 -0.4013 -3.3583
 4071TIP3    H236409   2.289   0.604   2.434  1.9138  1.0565 -0.9876
 4072TIP3   OH236410  -2.799  -2.877   4.535 -0.0107  0.5880  0.1653
 4072TIP3    H136411  -2.817  -2.971   4.543 -1.2943  0.7439 -0.5570
 4072TIP3    H236412  -2.834  -2.839   4.615 -0.7662  0.5985 -0.1588
 4073TIP3   OH236413  -2.734  -2.287   5.781 -0.7975  0.4814  1.1139
 4073TIP3    H136414  -2.686  -2.206   5.800 -0.2360  0.6640 -0.7956
 4073TIP3    H236415  -2.713  -2.346   5.853  1.6419  0.8526  0.7738
 4074TIP3   OH236416  -3.080   3.129   2.215 -0.4277 -0.4054 -0.7774
 4074TIP3    H136417  -3.111   3.041   2.235  1.2249 -1.0482 -0.8370
 4074TIP3    H236418  -3.154   3.186   2.234 -1.1882 -1.6984  0.3102
 4075TIP3   OH236419  -2.419  -2.240   3.826  0.4962 -0.4102  0.2962
 4075TIP3    H136420  -2.339  -2.266   3.781  0.0476  2.3496 -2.4056
 4075TIP3    H236421  -2.482  -2.310   3.807  1.2875 -0.9208 -0.4947
 4076TIP3   OH236422  -1.690   0.052   3.941 -0.7584 -0.1907 -0.3586
 4076TIP3    H136423  -1.653   0.140   3.934  0.7847 -0.8726 -1.4586
 4076TIP3    H236424  -1.641   0.011   4.013 -1.4006 -0.1937  0.0826
 4077TIP3   OH236425   3.061  -2.078   3.919 -0.3770  0.1490  0.4145
 4077TIP3    H136426   2.978  -2.031   3.905 -0.5610 -0.1729  0.4216
 4077TIP3    H236427   3.048  -2.162   3.876  0.6055  0.7708 -1.1997
 4078TIP3   OH236428  -2.169   0.269   5.830  0.0785 -0.3325  0.0272
 4078TIP3    H136429  -2.134   0.182   5.812 -0.8987 -0.4002 -1.8660
 4078TIP3    H236430  -2.093   0.321   5.855  0.6965 -1.6763  1.1050
 4079TIP3   OH236431  -0.883  -0.151   5.232  0.3226  0.6394  0.4477
 4079TIP3    H136432  -0.795  -0.118   5.211  1.0681 -0.5375  1.5791
 4079TIP3    H236433  -0.916  -0.184   5.149  0.6763  1.6909 -0.1320
 4080TIP3   OH236434  -2.006  -2.643   3.438 -0.4735  0.4691 -0.3837
 4080TIP3    H136435  -1.945  -2.615   3.369 -1.0182  0.0308 -1.0570
 4080TIP3    H236436  -2.083  -2.674   3.391 -0.9337  0.3305  0.4381
 4081TIP3   OH236437   2.371  -1.108   4.721  0.3013 -0.8391  0.1382
 4081TIP3    H136438   2.396  -1.050   4.793 -0.7547 -0.8445  0.5292
 4081TIP3    H236439   2.429  -1.083   4.649 -1.2265  1.8876 -0.2582
 4082TIP3   OH236440  -1.354   0.467   4.016  0.1626 -0.2222 -0.5748
 4082TIP3    H136441  -1.306   0.460   3.933  0.2446  0.4549 -0.5912
 4082TIP3    H236442  -1.287   0.481   4.082  0.1526 -1.4232 -0.2851
 4083TIP3   OH236443  -1.303  -1.708   5.493 -0.2669 -0.2732  0.4469
 4083TIP3    H136444  -1.255  -1.649   5.434 -0.6468  0.0289  0.4298
 4083TIP3    H236445  -1.376  -1.740   5.440 -0.4559 -0.2132  0.6679
 4084TIP3   OH236446  -1.248  -1.348   1.568  0.1702  0.6597 -0.0071
 4084TIP3    H136447  -1.278  -1.374   1.481 -0.0342 -1.2640  0.6064
 4084TIP3    H236448  -1.212  -1.260   1.555 -0.8038  0.8394 -1.8162
 4085TIP3   OH236449   1.832   2.160   5.389  0.1784  0.3070 -0.3275
 4085TIP3    H136450   1.757   2.191   5.338 -0.3740 -0.6505 -0.1213
 4085TIP3    H236451   1.900   2.143   5.324  0.7164  2.4768 -0.3963
 4086TIP3   OH236452  -2.002   1.919   2.835  0.3227 -0.4519 -0.4469
 4086TIP3    H136453  -2.041   1.917   2.923  2.3897  0.0984  0.5233
 4086TIP3    H236454  -1.996   1.827   2.811 -1.5369 -0.5652 -0.6510
 4087TIP3   OH236455   2.389  -0.428   5.149 -0.0672  0.0170 -0.1832
 4087TIP3    H136456   2.346  -0.400   5.068  0.5871  0.5408 -0.3568
 4087TIP3    H236457   2.318  -0.441   5.211 -0.5124  0.4904 -0.5852
 4088TIP3   OH236458  -3.317   0.789   5.247 -0.0395 -0.0879 -0.1819
 4088TIP3    H136459  -3.298   0.735   5.324 -0.6450 -0.3003 -0.1714
 4088TIP3    H236460  -3.412   0.784   5.238 -0.0978  0.9157 -0.2371
 4089TIP3   OH236461   1.391   0.927   4.973 -0.3547 -0.2734 -0.2919
 4089TIP3    H136462   1.358   0.983   5.043  0.5420  1.2938 -1.0945
 4089TIP3    H236463   1.479   0.903   5.000  0.3742  1.1491 -1.2992
 4090TIP3   OH236464  -0.891   1.626   5.267  0.0110  0.4695 -0.0118
 4090TIP3    H136465  -0.973   1.625   5.217  0.8263 -0.5796 -1.4376
 4090TIP3    H236466  -0.851   1.541   5.247  1.5298  1.0400  0.5056
 4091TIP3   OH236467  -0.606  -0.395   4.103  0.5061 -0.0318 -0.2213
 4091TIP3    H136468  -0.690  -0.350   4.118 -0.4995 -1.4903 -1.1571
 4091TIP3    H236469  -0.542  -0.324   4.095 -0.6511  1.1347  0.3743
 4092TIP3   OH236470  -1.185   1.558   3.144  0.3313  0.1874 -0.6734
 4092TIP3    H136471  -1.191   1.535   3.051  0.7222  0.2616 -0.7200
 4092TIP3    H236472  -1.172   1.653   3.144  1.7564  0.0164 -0.6040
 4093TIP3   OH236473  -1.374  -1.534   3.227 -0.2432 -0.8318  0.1699
 4093TIP3    H136474  -1.442  -1.491   3.279 -1.6688 -0.9795 -1.4502
 4093TIP3    H236475  -1.403  -1.521   3.136  2.0998 -0.6094 -0.6063
 4094TIP3   OH236476  -0.874   1.778   3.143 -0.2733 -0.4141  0.0545
 4094TIP3    H136477  -0.823   1.858   3.154  0.8364 -1.2073  0.8793
 4094TIP3    H236478  -0.812   1.713   3.110 -0.6617 -1.4492  1.2345
 4095TIP3   OH236479   2.503   0.307   3.814 -0.3849  0.9130 -0.2286
 4095TIP3    H136480   2.412   0.296   3.842 -0.5206 -1.3382 -1.3880
 4095TIP3    H236481   2.510   0.400   3.792 -2.5206  1.0522 -0.5205
 4096TIP3   OH236482  -2.029   2.226   4.133  0.6049  0.6294 -0.4856
 4096TIP3    H136483  -2.078   2.300   4.170 -1.9047 -0.7670 -0.8429
 4096TIP3    H236484  -2.071   2.209   4.049  0.1959 -2.0318  0.1797
 4097TIP3   OH236485   1.939   2.347   3.803  0.2935 -0.5890 -0.3998
 4097TIP3    H136486   1.880   2.386   3.868 -0.6397  1.3082 -2.2548
 4097TIP3    H236487   1.880   2.301   3.743  0.7389  0.4772 -1.7095
 4098TIP3   OH236488  -1.629   2.677   5.617  0.1133  0.3368 -0.2461
 4098TIP3    H136489  -1.711   2.701   5.575 -0.8044 -0.6430  0.9343
 4098TIP3    H236490  -1.629   2.723   5.700  0.4775 -0.1237  0.0176
 4099TIP3   OH236491  -3.022  -0.790   3.744  0.4383 -0.4636 -0.4762
 4099TIP3    H136492  -3.015  -0.804   3.839  0.2198  0.2621 -0.3471
 4099TIP3    H236493  -3.087  -0.720   3.735  2.0484  1.0177 -1.0315
 4100TIP3   OH236494   1.495  -0.003   5.112  0.2901  0.1350 -0.5720
 4100TIP3    H136495   1.412   0.030   5.078 -0.9540 -2.5353 -0.4160
 4100TIP3    H236496   1.521   0.061   5.178 -2.3738  0.4177  0.3398
 4101TIP3   OH236497   0.876  -1.013   5.035  0.2540  0.1236 -0.2822
 4101TIP3    H136498   0.968  -1.005   5.060 -0.0858 -1.3306  1.6696
 4101TIP3    H236499   0.865  -0.950   4.964  3.0634 -0.5824 -1.4955
 4102TIP3   OH236500   0.181   2.140   2.750  0.4177  0.0925  0.0546
 4102TIP3    H136501   0.147   2.182   2.671  0.4150 -1.0663 -0.5913
 4102TIP3    H236502   0.234   2.067   2.717  1.0451  0.0536  1.1097
 4103TIP3   OH236503   1.693  -0.053   5.867  0.3092  0.0746 -0.0246
 4103TIP3    H136504   1.788  -0.052   5.859  0.1879 -1.0998 -2.1437
 4103TIP3    H236505   1.664   0.026   5.822  0.2437  0.3384  0.4652
 4104TIP3   OH236506   0.870  -0.377   4.517  0.0715  0.2852 -0.3689
 4104TIP3    H136507   0.811  -0.310   4.485  0.7728  1.3186  0.4175
 4104TIP3    H236508   0.957  -0.348   4.489  0.4028 -0.2126  0.1090
 4105TIP3   OH236509   0.193   0.517   3.872 -0.1789  1.0280 -0.5991
 4105TIP3    H136510   0.189   0.524   3.777  0.7712 -0.6648 -0.8039
 4105TIP3    H236511   0.215   0.605   3.902  2.1210  1.0565 -2.1427
 4106TIP3   OH236512  -2.705   2.570   3.613 -0.3890 -0.2164  0.2146
 4106TIP3    H136513  -2.748   2.607   3.690 -1.1265  0.5925 -0.5622
 4106TIP3    H236514  -2.752   2.608   3.539  1.2400  0.1750 -0.6655
 4107TIP3   OH236515  -0.685  -3.292   5.669 -0.2357 -0.0299  0.2797
 4107TIP3    H136516  -0.638  -3.337   5.739 -2.5490  0.7764  2.5378
 4107TIP3    H236517  -0.734  -3.362   5.625  1.1296 -0.5287 -0.4931
 4108TIP3   OH236518  -1.823  -1.670   4.364  0.0073 -0.2678  0.1516
 4108TIP3    H136519  -1.887  -1.694   4.431 -1.4773  0.6047 -0.9008
 4108TIP3    H236520  -1.749  -1.633   4.413 -0.0299 -1.7985  1.4247
 4109TIP3   OH236521  -2.305  -3.139   4.219 -0.1979  0.4816  0.3852
 4109TIP3    H136522  -2.270  -3.225   4.193  1.3846  0.7573  1.4775
 4109TIP3    H236523  -2.301  -3.140   4.314 -2.9780  0.6729  0.5906
 4110TIP3   OH236524   2.469  -2.810   4.202  0.0300 -0.8235  0.2069
 4110TIP3    H136525   2.490  -2.762   4.282  2.3758 -0.2155 -0.7052
 4110TIP3    H236526   2.424  -2.889   4.233  1.2388 -0.8024  2.1755
 4111TIP3   OH236527   0.310   2.732   5.669  0.2640  0.2280 -0.5179
 4111TIP3    H136528   0.224   2.741   5.628 -0.0341  1.0219  0.2423
 4111TIP3    H236529   0.326   2.817   5.711  1.1984 -0.0717 -0.2281
 4112TIP3   OH236530   0.009  -0.595   4.287  0.0137  0.4204  0.7990
 4112TIP3    H136531   0.086  -0.647   4.311  1.7929  2.3107 -0.4838
 4112TIP3    H236532  -0.003  -0.535   4.361 -0.7083 -0.3489  1.3199
 4113TIP3   OH236533  -2.870  -1.801   3.337 -0.0518 -0.2754 -0.3070
 4113TIP3    H136534  -2.875  -1.760   3.423  2.9859 -0.4203  0.0401
 4113TIP3    H236535  -2.844  -1.731   3.278  0.7983 -0.7549 -0.5245
 4114TIP3   OH236536  -2.724   1.089   5.694 -0.3287  0.5913  0.1376
 4114TIP3    H136537  -2.700   1.111   5.604 -1.2966  0.4894 -0.1601
 4114TIP3    H236538  -2.711   1.171   5.743  2.8034 -0.0070  0.5234
 4115TIP3   OH236539   2.045   0.875   5.028  0.0989 -0.1179  0.0343
 4115TIP3    H136540   1.998   0.792   5.040  1.3183 -0.6283  1.8019
 4115TIP3    H236541   1.976   0.941   5.021 -0.9719 -0.8643  2.3062
 4116TIP3   OH236542   2.884  -2.601   3.888 -0.3114  0.1478  0.2417
 4116TIP3    H136543   2.815  -2.614   3.954 -1.1843 -1.9112 -0.9847
 4116TIP3    H236544   2.844  -2.628   3.806  1.5263  0.3217 -0.7601
 4117TIP3   OH236545   3.227  -2.061   4.793  0.6383 -0.2379 -0.0727
 4117TIP3    H136546   3.179  -2.022   4.720 -0.7422 -1.6118  0.0580
 4117TIP3    H236547   3.302  -2.003   4.806 -0.7142  1.7263 -0.5945
 4118TIP3   OH236548   2.534  -0.183   5.144 -0.5421 -0.2291 -0.5671
 4118TIP3    H136549   2.461  -0.243   5.161 -1.2866  0.7149 -0.3625
 4118TIP3    H236550   2.600  -0.206   5.210 -1.2272 -0.1662  0.1464
 4119TIP3   OH236551   1.978   2.416   5.413  0.4060  0.1916  0.5563
 4119TIP3    H136552   1.948   2.327   5.394 -1.4088  0.9086 -0.1402
 4119TIP3    H236553   2.053   2.404   5.471  1.3289 -1.8395 -0.9434
 4120TIP3   OH236554   2.331   0.137   5.348  0.0183  0.2908  0.5101
 4120TIP3    H136555   2.370   0.162   5.432 -1.3934 -1.0167  1.6169
 4120TIP3    H236556   2.264   0.203   5.332 -1.4146 -0.7869  1.7321
 4121TIP3   OH236557  -0.135  -2.253   2.445  0.1043 -0.6562 -0.6322
 4121TIP3    H136558  -0.229  -2.270   2.448  0.3805 -2.3806 -0.6491
 4121TIP3    H236559  -0.113  -2.259   2.352 -0.0032  1.3934 -0.8372
 4122TIP3   OH236560  -3.186  -2.502   5.330 -0.2287 -0.1607 -0.1815
 4122TIP3    H136561  -3.194  -2.593   5.302  1.0812  0.0342 -1.2682
 4122TIP3    H236562  -3.274  -2.478   5.357 -0.5885 -1.7601  0.1835
 4123TIP3   OH236563   1.679  -1.723   5.954  0.2169 -0.0653  0.3345
 4123TIP3    H136564   1.700  -1.762   6.038  0.9747 -3.4084 -1.2277
 4123TIP3    H236565   1.601  -1.769   5.925 -1.0301  2.2059 -0.1369
 4124TIP3   OH236566   1.888   1.578   5.323 -0.3089 -0.0581  0.1399
 4124TIP3    H136567   1.817   1.640   5.307  0.2476  0.3822 -0.7278
 4124TIP3    H236568   1.930   1.609   5.403 -1.2452 -0.4805  0.8149
 4125TIP3   OH236569  -3.150  -0.449   2.336 -0.2510 -0.9222  0.0947
 4125TIP3    H136570  -3.100  -0.451   2.254  0.5731 -2.2892  0.5943
 4125TIP3    H236571  -3.234  -0.489   2.314 -0.3483 -0.5250 -0.2700
 4126TIP3   OH236572   1.661   2.960   4.611 -0.1084 -0.1816  0.3765
 4126TIP3    H136573   1.753   2.973   4.587  0.1825 -0.3985  1.3522
 4126TIP3    H236574   1.659   2.876   4.657 -0.5743  0.4145  1.4899
 4127TIP3   OH236575   2.517  -0.496   4.608  0.1921  0.0327  0.2257
 4127TIP3    H136576   2.549  -0.546   4.533  1.9089 -0.3995  1.1641
 4127TIP3    H236577   2.573  -0.418   4.610 -0.5008  0.5286  0.4864
 4128TIP3   OH236578   3.044   2.496   3.024 -0.2810 -0.2177 -0.2936
 4128TIP3    H136579   3.037   2.401   3.033 -0.0162 -0.1239  1.0851
 4128TIP3    H236580   3.138   2.512   3.018 -0.0970  0.1185  2.1946
 4129TIP3   OH236581  -1.124  -0.948   4.295 -0.5890 -0.3134 -0.0811
 4129TIP3    H136582  -1.177  -0.905   4.228  0.9950  1.6568 -0.1636
 4129TIP3    H236583  -1.144  -0.901   4.376  0.2480 -0.2148  0.0772
 4130TIP3   OH236584   3.253  -3.046   5.635  0.3497  0.6270  0.4808
 4130TIP3    H136585   3.215  -3.131   5.656  0.9843  0.2206  0.0469
 4130TIP3    H236586   3.331  -3.068   5.583  1.1833  1.4176  1.3583
 4131TIP3   OH236587   2.006   2.344   2.672  0.4265  0.1260 -0.2908
 4131TIP3    H136588   2.055   2.411   2.624  0.1247  0.1449 -0.5746
 4131TIP3    H236589   1.925   2.388   2.698  1.4710  0.7825  2.0861
 4132TIP3   OH236590  -0.043  -1.491   1.846  0.3200  0.5654  0.0764
 4132TIP3    H136591  -0.046  -1.585   1.832  2.5651  0.5608 -0.7939
 4132TIP3    H236592  -0.001  -1.480   1.931 -0.2800  0.7871  0.3498
 4133TIP3   OH236593  -2.541  -2.491   1.926 -0.0683  0.1137 -0.1636
 4133TIP3    H136594  -2.509  -2.488   1.835 -0.5352 -0.3544 -0.3459
 4133TIP3    H236595  -2.633  -2.516   1.918 -0.9071  2.7533  0.2713
 4134TIP3   OH236596   1.129  -2.216   4.345  0.5533 -0.1077 -0.5476
 4134TIP3    H136597   1.218  -2.200   4.314  0.7561 -0.0298  0.0627
 4134TIP3    H236598   1.073  -2.183   4.275  0.9752 -2.5913 -2.2210
 4135TIP3   OH236599   0.179  -2.087   5.387  0.2335 -0.0585 -0.8406
 4135TIP3    H136600   0.246  -2.154   5.404 -1.4631 -1.5542  0.2555
 4135TIP3    H236601   0.141  -2.068   5.473 -1.0972  0.3920 -1.4972
 4136TIP3   OH236602   1.945  -1.845   4.014 -0.2697 -0.2023 -0.3004
 4136TIP3    H136603   1.900  -1.850   4.098  1.2634 -0.9005  0.4964
 4136TIP3    H236604   2.018  -1.786   4.028  1.4656 -2.2140 -0.4069
 4137TIP3   OH236605   0.464  -3.014   3.640  0.0712  0.1150  0.0149
 4137TIP3    H136606   0.454  -3.022   3.734  0.1768  1.4360  0.1623
 4137TIP3    H236607   0.379  -2.984   3.609 -0.2436 -1.2155 -0.4433
 4138TIP3   OH236608  -1.817  -0.395   2.893  0.6067  0.3126  0.2250
 4138TIP3    H136609  -1.818  -0.490   2.905 -0.0506  0.3824  0.7802
 4138TIP3    H236610  -1.834  -0.359   2.980  1.3182  0.9584  0.1135
 4139TIP3   OH236611   1.969   0.071   4.961 -0.6376  0.3008  0.4382
 4139TIP3    H136612   1.892   0.105   4.918 -0.1553 -0.1048 -0.7796
 4139TIP3    H236613   1.960  -0.024   4.956  0.7898  0.2021 -1.3850
 4140TIP3   OH236614   0.618  -2.941   3.364 -0.3668 -0.4468  0.2695
 4140TIP3    H136615   0.654  -2.932   3.275  0.8039 -1.7559  0.5672
 4140TIP3    H236616   0.524  -2.946   3.351 -0.2200 -0.6583 -0.9136
 4141TIP3   OH236617   2.665   2.483   4.339 -0.1055  0.1946  0.2149
 4141TIP3    H136618   2.623   2.568   4.329  0.5920  0.5686  0.3656
 4141TIP3    H236619   2.746   2.502   4.386 -0.6962 -0.7725  1.6665
 4142TIP3   OH236620  -2.757   3.016  -1.986 -0.3110 -0.5157 -0.6554
 4142TIP3    H136621  -2.695   3.023  -2.059  1.9156 -1.0576  1.0610
 4142TIP3    H236622  -2.842   3.034  -2.025  0.8618 -0.0668 -3.2281
 4143TIP3   OH236623  -1.574   3.201   3.428  0.7467  0.3891  0.2059
 4143TIP3    H136624  -1.510   3.249   3.480  0.0174 -0.1508  1.6708
 4143TIP3    H236625  -1.659   3.234   3.458  0.2941 -0.3843 -0.1969
 4144TIP3   OH236626   2.416  -0.936   3.804 -0.2458 -0.4253  0.1208
 4144TIP3    H136627   2.418  -0.886   3.886  0.3283 -0.4438  0.1192
 4144TIP3    H236628   2.445  -0.874   3.737 -0.3865 -0.5091 -0.0198
 4145TIP3   OH236629   1.324  -1.095   4.637 -0.6291  0.5126 -0.3219
 4145TIP3    H136630   1.359  -1.007   4.620  0.0009  0.1599 -0.9177
 4145TIP3    H236631   1.348  -1.145   4.560 -2.5436  0.2557 -0.7856
 4146TIP3   OH236632  -2.083   1.612   3.746 -0.3909  0.6504 -0.6490
 4146TIP3    H136633  -2.133   1.560   3.809  1.2104  0.3886  0.4572
 4146TIP3    H236634  -2.122   1.699   3.751 -1.2619  0.2668 -0.4268
 4147TIP3   OH236635   2.070   2.474   3.515 -0.4220 -0.0119 -0.5283
 4147TIP3    H136636   2.078   2.384   3.547  0.2608 -0.0025 -0.6698
 4147TIP3    H236637   2.062   2.465   3.420 -1.3424  0.0246 -0.4601
 4148TIP3   OH236638  -1.941  -1.046   3.526  0.0768  0.1810 -0.3191
 4148TIP3    H136639  -1.932  -0.969   3.582  0.2887  0.5048 -0.7945
 4148TIP3    H236640  -2.025  -1.085   3.551  0.2524  0.2256  0.3415
 4149TIP3   OH236641   0.017  -1.394   5.753  0.3504 -0.4518  0.6054
 4149TIP3    H136642   0.079  -1.456   5.793 -0.6522 -0.1158  2.8464
 4149TIP3    H236643  -0.067  -1.441   5.754 -0.2822  0.6349  1.7086
 4150TIP3   OH236644  -0.607   1.343   4.382  0.8022 -0.5246 -0.5103
 4150TIP3    H136645  -0.683   1.319   4.434  0.0224 -0.3310 -1.5354
 4150TIP3    H236646  -0.624   1.305   4.295  1.5007  0.1841 -0.9732
 4151TIP3   OH236647  -2.337   1.598   3.260  0.3720 -0.2526  0.0313
 4151TIP3    H136648  -2.261   1.590   3.202  0.2842 -0.7070 -0.0257
 4151TIP3    H236649  -2.350   1.510   3.293  0.3961 -0.0018  0.7192
 4152TIP3   OH236650   1.674  -0.154   3.221 -0.3598 -0.2340 -0.3844
 4152TIP3    H136651   1.655  -0.123   3.132  0.1363 -0.7987 -0.6918
 4152TIP3    H236652   1.769  -0.166   3.223 -0.5886 -2.5087 -0.5511
 4153TIP3   OH236653  -0.846  -1.139   4.727  0.2413  0.5208  0.0415
 4153TIP3    H136654  -0.831  -1.233   4.719 -0.7923  0.4019 -0.7927
 4153TIP3    H236655  -0.758  -1.100   4.723  0.6530 -0.3866  0.0214
 4154TIP3   OH236656   2.300  -0.861   2.721  0.4563 -0.2369 -0.2911
 4154TIP3    H136657   2.251  -0.780   2.735  2.0375  0.4678  1.6661
 4154TIP3    H236658   2.352  -0.843   2.642 -0.9256 -0.2611 -1.2336
 4155TIP3   OH236659   1.840   1.932   4.426 -0.2207 -0.0165  0.1367
 4155TIP3    H136660   1.765   1.903   4.375 -1.4569  1.3110  1.1264
 4155TIP3    H236661   1.869   1.854   4.474 -0.5667 -0.6810 -0.7175
 4156TIP3   OH236662   3.236   1.197   2.959  0.3019 -0.1989  0.5788
 4156TIP3    H136663   3.177   1.264   2.994  0.0074 -0.6438  0.9426
 4156TIP3    H236664   3.213   1.118   3.007 -0.0682 -0.8179 -0.5724
 4157TIP3   OH236665  -1.458  -0.457   4.740  0.2830 -0.3553 -0.0779
 4157TIP3    H136666  -1.479  -0.522   4.673 -0.5380 -0.3880  0.2065
 4157TIP3    H236667  -1.398  -0.397   4.696  0.4488 -0.8698 -0.5750
 4158TIP3   OH236668  -1.754   1.510   2.174  0.1670  0.6570  0.2625
 4158TIP3    H136669  -1.717   1.433   2.131 -0.0496 -0.3825  1.8417
 4158TIP3    H236670  -1.698   1.582   2.147 -0.0002  0.0906 -1.7749
 4159TIP3   OH236671   1.489   1.590   3.530  0.2323  0.1652 -0.1153
 4159TIP3    H136672   1.512   1.585   3.623  1.3753 -0.2553 -0.4045
 4159TIP3    H236673   1.474   1.499   3.503 -0.3290  0.3055 -0.2903
 4160TIP3   OH236674  -1.159  -0.622   2.008 -0.2366  0.4239  0.4615
 4160TIP3    H136675  -1.142  -0.696   1.950  0.1312  1.0109 -0.1913
 4160TIP3    H236676  -1.079  -0.613   2.060  0.1618  1.0607 -0.2470
 4161TIP3   OH236677  -2.339   2.910   4.070  0.2446 -0.6851  0.5079
 4161TIP3    H136678  -2.287   2.968   4.015 -0.0883 -0.7978  0.0753
 4161TIP3    H236679  -2.275   2.873   4.132  0.4374  0.1980  0.8434
 4162TIP3   OH236680  -1.294  -2.161   2.733  0.3199  0.1942  0.4878
 4162TIP3    H136681  -1.350  -2.159   2.655  0.9759  2.3497 -0.0058
 4162TIP3    H236682  -1.278  -2.069   2.753  3.8708 -0.2627  0.4404
 4163TIP3   OH236683  -1.719   2.402   2.361 -0.0464  0.0022  0.0746
 4163TIP3    H136684  -1.798   2.415   2.309 -1.4600  0.0661  2.1156
 4163TIP3    H236685  -1.672   2.485   2.353 -0.3174  0.0731 -0.9277
 4164TIP3   OH236686   3.200  -1.426   3.371  0.1527 -0.1105  0.1074
 4164TIP3    H136687   3.228  -1.499   3.315 -3.0580  0.4190 -2.4632
 4164TIP3    H236688   3.109  -1.447   3.393 -0.5019  2.5687  0.2173
 4165TIP3   OH236689  -1.579   1.879   5.810 -0.3332  0.2920 -0.0389
 4165TIP3    H136690  -1.598   1.898   5.902 -1.8064  1.4891 -0.5466
 4165TIP3    H236691  -1.574   1.965   5.768  0.2992 -0.2366 -1.0979
 4166TIP3   OH236692   3.200   2.846   5.363  0.0101 -0.1654 -0.2944
 4166TIP3    H136693   3.132   2.900   5.323 -0.7419 -1.8366 -1.3719
 4166TIP3    H236694   3.152   2.781   5.414  0.9344  1.2312  2.5507
 4167TIP3   OH236695   2.924  -3.032   2.071 -0.1504  0.1443 -0.4198
 4167TIP3    H136696   2.887  -3.116   2.044  1.5896 -0.5825 -0.6973
 4167TIP3    H236697   2.910  -2.974   1.996 -0.9909 -0.0081 -0.3866
 4168TIP3   OH236698   0.169   2.412   4.640 -0.0337 -0.1944 -0.5448
 4168TIP3    H136699   0.084   2.436   4.675  0.4657  1.5257 -0.4271
 4168TIP3    H236700   0.232   2.463   4.691  1.0161 -0.8294 -1.1496
 4169TIP3   OH236701   2.145  -2.282   3.113  0.8833  0.1656 -0.2793
 4169TIP3    H136702   2.172  -2.190   3.104 -0.5700  0.4465 -2.2681
 4169TIP3    H236703   2.052  -2.282   3.092  0.9389 -1.8140 -0.6841
 4170TIP3   OH236704   1.147  -2.010   3.778  0.3409 -0.3649  0.2714
 4170TIP3    H136705   1.053  -1.992   3.778  0.7105  1.9277  0.4350
 4170TIP3    H236706   1.156  -2.093   3.732 -1.7395 -0.5831  0.1553
 4171TIP3   OH236707   3.002  -1.020   4.668  0.1249  0.0524  0.2041
 4171TIP3    H136708   2.918  -1.060   4.691 -0.0758  1.1942  1.6610
 4171TIP3    H236709   2.982  -0.926   4.660  0.8768  0.0985 -1.5103
 4172TIP3   OH236710  -0.708   1.714   4.737  0.2777 -0.3281 -0.0507
 4172TIP3    H136711  -0.773   1.753   4.679 -0.8097  0.0768  1.3653
 4172TIP3    H236712  -0.624   1.734   4.697 -0.3087  2.0388 -0.2546
 4173TIP3   OH236713   1.838   2.062   3.907 -0.0861  0.1056  0.3358
 4173TIP3    H136714   1.913   2.111   3.941  0.0954 -0.2206  0.4024
 4173TIP3    H236715   1.818   2.105   3.824 -0.5809  0.9584  0.8707
 4174TIP3   OH236716  -1.319   1.263   4.740  0.1374  0.1980  0.5335
 4174TIP3    H136717  -1.320   1.337   4.680  1.1815  0.1151  0.3862
 4174TIP3    H236718  -1.243   1.278   4.796 -1.6019  0.9942  2.8122
 4175TIP3   OH236719  -2.078   0.744   2.704  0.5872 -0.0997  0.5339
 4175TIP3    H136720  -2.135   0.691   2.649  0.4172  0.5838  0.0399
 4175TIP3    H236721  -2.007   0.773   2.646  1.8261 -1.4671  1.2819
 4176TIP3   OH236722  -1.314  -2.825   5.634  0.1280 -0.3336 -0.0052
 4176TIP3    H136723  -1.404  -2.858   5.632  0.3374 -0.9271 -2.0025
 4176TIP3    H236724  -1.261  -2.898   5.602  1.1722  0.4018 -0.0091
 4177TIP3   OH236725   1.330  -0.883   4.175  0.3954  0.7689  0.5223
 4177TIP3    H136726   1.263  -0.942   4.210  0.1469  0.5021 -0.3798
 4177TIP3    H236727   1.392  -0.872   4.247 -0.7617  1.2556  1.4866
 4178TIP3   OH236728   2.787   0.984   4.052 -0.3973 -0.3495 -0.1828
 4178TIP3    H136729   2.872   0.981   4.097  0.1992  0.7949 -1.1876
 4178TIP3    H236730   2.723   0.984   4.122  0.3500 -2.5186  0.6002
 4179TIP3   OH236731  -0.978   1.016   3.101 -0.1486  0.5398 -0.1223
 4179TIP3    H136732  -0.896   1.058   3.073 -0.6671  0.8434 -1.2150
 4179TIP3    H236733  -0.992   1.049   3.190  1.4519 -0.3270  0.5058
 4180TIP3   OH236734  -2.606  -0.174   5.325  0.1807  0.1452  0.0071
 4180TIP3    H136735  -2.667  -0.113   5.366 -1.1758 -1.1995  0.0672
 4180TIP3    H236736  -2.528  -0.121   5.307 -1.1783  2.0609 -0.5984
 4181TIP3   OH236737   2.843   0.522   3.160  0.0064  0.3623 -0.3567
 4181TIP3    H136738   2.884   0.436   3.169  0.4020  0.3377 -2.1108
 4181TIP3    H236739   2.838   0.537   3.066  0.7426  2.6485 -0.0849
 4182TIP3   OH236740   0.044  -2.254   2.666 -0.3260  0.1592  0.3643
 4182TIP3    H136741  -0.025  -2.244   2.731 -1.0750  1.3297 -0.5661
 4182TIP3    H236742   0.003  -2.226   2.583  0.8740 -0.3860 -0.4406
 4183TIP3   OH236743   0.341   0.856   4.661  0.3677  0.1036 -0.1198
 4183TIP3    H136744   0.286   0.786   4.626  1.2844 -0.0104 -1.3954
 4183TIP3    H236745   0.336   0.845   4.756 -1.8447  0.1521 -0.1766
 4184TIP3   OH236746   1.406   1.204   4.748 -0.3948  0.3866  0.1972
 4184TIP3    H136747   1.328   1.234   4.701  0.1263  0.1784 -0.8150
 4184TIP3    H236748   1.386   1.222   4.840 -0.3979  3.2890 -0.2470
 4185TIP3   OH236749  -1.381  -1.361   5.323  0.9101  0.2490 -0.4905
 4185TIP3    H136750  -1.347  -1.451   5.323  1.4253  0.4312 -1.3770
 4185TIP3    H236751  -1.329  -1.316   5.257  3.1672  2.1890  2.3281
 4186TIP3   OH236752  -1.764  -0.311   3.769  0.1398 -0.3725  0.0674
 4186TIP3    H136753  -1.679  -0.278   3.738  0.5261  0.7811  2.1509
 4186TIP3    H236754  -1.793  -0.246   3.834 -1.5271 -1.6145  0.6422
 4187TIP3   OH236755  -0.649  -1.662   5.410 -0.5853  0.3009  0.1282
 4187TIP3    H136756  -0.688  -1.576   5.424 -1.8620 -0.2366 -0.0154
 4187TIP3    H236757  -0.723  -1.718   5.387 -0.4225 -1.7253  3.9014
 4188TIP3   OH236758   1.192   3.043   3.527 -0.3955 -0.3308  0.6099
 4188TIP3    H136759   1.283   3.020   3.541  0.1948  1.1127 -0.5175
 4188TIP3    H236760   1.142   2.985   3.584  1.0314 -3.1349 -0.7922
 4189TIP3   OH236761  -1.405   2.098   2.892  0.0542  0.2022  0.4752
 4189TIP3    H136762  -1.490   2.133   2.918  0.0909  0.4763  0.2245
 4189TIP3    H236763  -1.390   2.024   2.952 -0.7709 -0.4169 -0.0573
 4190TIP3   OH236764  -1.074   2.257   5.526 -0.4089  0.8753  0.3905
 4190TIP3    H136765  -1.121   2.218   5.452  1.7730 -2.2901  0.4898
 4190TIP3    H236766  -1.087   2.197   5.598  1.0868  1.6137  1.3356
 4191TIP3   OH236767   1.017  -2.821   5.476 -0.8843  0.1785  0.9332
 4191TIP3    H136768   1.101  -2.795   5.513 -0.4557 -1.6826  1.3469
 4191TIP3    H236769   1.032  -2.825   5.382 -0.7379  0.6487  0.9357
 4192TIP3   OH236770   2.918   1.534   2.856 -0.2185 -0.4131 -0.3398
 4192TIP3    H136771   2.988   1.563   2.798 -0.9892  0.7608 -0.7266
 4192TIP3    H236772   2.920   1.596   2.930 -1.2186  0.0244 -0.6573
 4193TIP3   OH236773   2.944  -2.150   3.250 -0.3129 -0.3526 -0.1993
 4193TIP3    H136774   3.018  -2.186   3.201 -0.6785  1.2123 -2.0375
 4193TIP3    H236775   2.980  -2.126   3.335  0.5781 -2.2997  0.0177
 4194TIP3   OH236776   2.138  -2.661   5.098  0.4873  0.2966 -0.1507
 4194TIP3    H136777   2.176  -2.747   5.115  0.6470 -0.4729 -3.5740
 4194TIP3    H236778   2.213  -2.601   5.097  0.3120  0.7004  2.8266
 4195TIP3   OH236779  -0.083   0.580   3.336 -0.6935  0.1644  0.0837
 4195TIP3    H136780  -0.047   0.494   3.357 -1.6565  0.0809  1.4663
 4195TIP3    H236781  -0.110   0.572   3.244 -1.4361 -1.2485  0.3950
 4196TIP3   OH236782  -1.010  -2.818   5.155  0.2421 -0.5868  0.0967
 4196TIP3    H136783  -1.043  -2.776   5.234  1.4448  1.0104 -0.1921
 4196TIP3    H236784  -0.915  -2.808   5.161  0.4079 -1.2032 -1.1291
 4197TIP3   OH236785  -2.586  -1.893   2.465  0.2495  0.7175 -0.2147
 4197TIP3    H136786  -2.610  -1.911   2.374  1.7417 -0.2777 -0.4484
 4197TIP3    H236787  -2.555  -1.803   2.465 -0.3609  0.9358 -0.5425
 4198TIP3   OH236788   0.247  -0.723   4.369  0.0702  0.3387  0.7508
 4198TIP3    H136789   0.318  -0.660   4.385 -0.7672  1.1334  1.4197
 4198TIP3    H236790   0.245  -0.777   4.448 -0.1814  0.4159  0.7958
 4199TIP3   OH236791  -1.080   2.752   5.789 -0.3380  0.3906  0.0394
 4199TIP3    H136792  -1.037   2.666   5.790 -1.2588 -0.0841  0.4656
 4199TIP3    H236793  -1.114   2.761   5.700 -1.0352 -0.1223  0.2342
 4200TIP3   OH236794   0.443  -2.735   3.863 -0.1619  0.5393 -0.3382
 4200TIP3    H136795   0.398  -2.808   3.905 -2.1388  0.6163 -2.1613
 4200TIP3    H236796   0.395  -2.658   3.891  0.0233  0.8322 -0.8288
 4201TIP3   OH236797  -1.464   1.930   3.099 -0.4107 -0.0383  0.0361
 4201TIP3    H136798  -1.557   1.907   3.092 -0.9680  1.6817  1.1314
 4201TIP3    H236799  -1.418   1.852   3.068 -2.2118 -0.1063 -2.8694
 4202TIP3   OH236800   3.165   2.882   4.873  0.0627 -0.0275  0.4889
 4202TIP3    H136801   3.119   2.877   4.789 -0.1501 -2.4300  0.6888
 4202TIP3    H236802   3.101   2.921   4.932 -1.7456 -3.0569  0.6944
 4203TIP3   OH236803   2.101  -0.210   2.702 -0.5979  0.1807  0.0574
 4203TIP3    H136804   2.039  -0.278   2.677  0.6467 -0.5810 -1.0925
 4203TIP3    H236805   2.121  -0.165   2.620 -0.6489  1.3137  0.6451
 4204TIP3   OH236806  -0.479   2.796   3.103 -0.2466  0.0213  0.1931
 4204TIP3    H136807  -0.525   2.712   3.100  0.0189 -0.1087 -1.9739
 4204TIP3    H236808  -0.387   2.773   3.088 -0.1846  0.6810 -0.5009
 4205TIP3   OH236809  -0.748  -3.124   5.434  0.2372  0.0135 -0.0242
 4205TIP3    H136810  -0.710  -3.038   5.421 -0.8824  0.7177  1.1353
 4205TIP3    H236811  -0.735  -3.143   5.527 -1.9110  0.1759  0.3685
 4206TIP3   OH236812   3.095  -1.122   4.058 -0.0985  0.4990 -0.2296
 4206TIP3    H136813   3.150  -1.079   4.124  2.9666  0.0241 -2.2198
 4206TIP3    H236814   3.094  -1.060   3.985  0.4678 -0.7906 -1.3878
 4207TIP3   OH236815   1.898   2.543   4.211  0.0771  0.3942 -0.4360
 4207TIP3    H136816   1.918   2.471   4.151 -0.4282 -0.2247  0.1117
 4207TIP3    H236817   1.802   2.544   4.215  0.0705  1.3394 -0.7104
 4208TIP3   OH236818   1.523  -0.239   2.252  0.4678  0.1933  0.3284
 4208TIP3    H136819   1.578  -0.238   2.174  0.1194  1.9096  0.0671
 4208TIP3    H236820   1.434  -0.223   2.220  0.3041  0.7965  1.0509
 4209TIP3   OH236821  -1.625   2.257   4.405  0.2397 -0.9822  0.1418
 4209TIP3    H136822  -1.683   2.193   4.362 -1.0879  1.0575 -1.2962
 4209TIP3    H236823  -1.564   2.283   4.337 -0.1462  0.3008  0.2703
 4210TIP3   OH236824  -1.700   2.955   4.850  0.1268  0.0367  0.2016
 4210TIP3    H136825  -1.774   3.007   4.818  0.8389  0.9386 -0.0504
 4210TIP3    H236826  -1.642   3.019   4.891  0.1385 -0.8401  1.6284
 4211TIP3   OH236827  -0.750  -1.408   4.178  0.9189  0.4361 -0.1292
 4211TIP3    H136828  -0.699  -1.364   4.109  2.3970 -1.0226 -0.0268
 4211TIP3    H236829  -0.804  -1.339   4.216 -0.2153  1.2518 -2.9524
 4212TIP3   OH236830   0.286  -1.555   2.800  0.1798  0.5117  0.0544
 4212TIP3    H136831   0.215  -1.501   2.768 -0.6641 -0.9428 -0.6355
 4212TIP3    H236832   0.313  -1.514   2.882 -0.4391  1.9236 -0.4217
 4213TIP3   OH236833  -1.556  -1.745   5.336 -0.4687 -0.3890 -0.5731
 4213TIP3    H136834  -1.610  -1.790   5.399 -0.4408  1.2399  0.6861
 4213TIP3    H236835  -1.597  -1.659   5.326  2.1295  1.1282  0.8690
 4214TIP3   OH236836  -2.973   0.773   4.895 -0.1776 -0.2531 -0.4478
 4214TIP3    H136837  -3.057   0.749   4.933 -0.6515  2.3968  0.3970
 4214TIP3    H236838  -2.918   0.794   4.970  0.1552  1.1937 -1.0618
 4215TIP3   OH236839  -2.465  -0.499   3.534 -0.1004 -0.1044  0.0561
 4215TIP3    H136840  -2.445  -0.577   3.585  1.1284 -0.6500 -1.1993
 4215TIP3    H236841  -2.380  -0.471   3.500 -0.6283  1.3596 -0.1168
 4216TIP3   OH236842  -1.983   0.535   2.524  0.5737  0.2824 -0.6393
 4216TIP3    H136843  -1.978   0.469   2.455 -0.7923 -0.6951  0.1588
 4216TIP3    H236844  -2.023   0.490   2.599 -0.0212  1.8941  0.0720
 4217TIP3   OH236845   2.842   2.644   5.346  0.3071 -0.2855  0.7253
 4217TIP3    H136846   2.815   2.556   5.323  0.5129 -0.4509  1.1084
 4217TIP3    H236847   2.772   2.701   5.313  1.7218 -0.2256 -2.6592
 4218TIP3   OH236848  -3.329   0.960   2.219  0.4367  1.1254  0.2948
 4218TIP3    H136849  -3.245   1.006   2.227  1.0036  0.3361 -0.9049
 4218TIP3    H236850  -3.326   0.920   2.132  0.9016 -2.9940  1.9990
 4219TIP3   OH236851  -3.143  -0.322   5.458  0.3684  0.8951  0.2074
 4219TIP3    H136852  -3.144  -0.397   5.516 -0.8620  0.7956  0.0776
 4219TIP3    H236853  -3.090  -0.256   5.504  1.7975 -0.1566  0.1427
 4220TIP3   OH236854   0.233   2.510   3.768 -0.4165 -0.2003 -0.1210
 4220TIP3    H136855   0.319   2.505   3.725 -0.5633  1.9960 -0.8226
 4220TIP3    H236856   0.188   2.431   3.741  1.1707 -1.1205 -0.2082
 4221TIP3   OH236857   3.363  -1.930   3.084 -0.4496 -0.1735 -0.6773
 4221TIP3    H136858   3.400  -2.009   3.045  0.0940  0.0084 -0.5490
 4221TIP3    H236859   3.359  -1.866   3.013 -2.7787 -0.9013 -1.2858
 4222TIP3   OH236860   2.995  -0.257   1.815 -0.0127  0.1930 -0.6407
 4222TIP3    H136861   2.939  -0.316   1.867  1.4260 -1.3943 -0.8167
 4222TIP3    H236862   2.986  -0.172   1.858 -0.1237 -0.7221  1.2471
 4223TIP3   OH236863  -3.060  -1.451   5.495  0.1040  0.1143  0.3007
 4223TIP3    H136864  -3.155  -1.461   5.494 -0.1314  2.1205 -0.4463
 4223TIP3    H236865  -3.038  -1.436   5.587 -0.5453  1.5169  0.2437
 4224TIP3   OH236866  -0.710  -2.078   3.416 -0.7916  0.4320 -0.0501
 4224TIP3    H136867  -0.779  -2.132   3.454 -0.6522 -0.7244 -1.3542
 4224TIP3    H236868  -0.739  -2.063   3.326 -0.1399  1.3568 -0.1154
 4225TIP3   OH236869  -1.534   2.604   3.029  0.7196  0.2686  0.0223
 4225TIP3    H136870  -1.590   2.652   3.090  1.8013  0.4350  0.9167
 4225TIP3    H236871  -1.490   2.538   3.084 -1.2215 -2.2864 -1.2534
 4226TIP3   OH236872  -1.243  -2.190   3.021 -0.4981  0.2693 -0.1102
 4226TIP3    H136873  -1.249  -2.281   3.049 -2.7898  0.2669 -0.4118
 4226TIP3    H236874  -1.275  -2.190   2.931  0.5359  1.2230 -0.5008
 4227TIP3   OH236875  -1.595   1.334   4.002 -0.4239 -0.2218  0.2314
 4227TIP3    H136876  -1.598   1.345   4.097  1.6044  0.4030  0.2778
 4227TIP3    H236877  -1.508   1.297   3.985 -0.4553  0.3946 -1.4361
 4228TIP3   OH236878   0.267  -2.133   5.135 -0.4763 -0.4363  0.1523
 4228TIP3    H136879   0.217  -2.155   5.214  0.7566  0.9975  1.3916
 4228TIP3    H236880   0.359  -2.142   5.161  0.0411  2.6624 -0.2171
 4229TIP3   OH236881   3.313   0.721   4.461  0.1272  0.4338  0.2519
 4229TIP3    H136882   3.245   0.656   4.479  1.8688 -0.9431  2.4562
 4229TIP3    H236883   3.383   0.670   4.420  1.4508  0.9257  1.8267
 4230TIP3   OH236884  -2.159   1.550   5.394  0.2488  0.0247 -0.1578
 4230TIP3    H136885  -2.112   1.495   5.458 -1.2616 -0.0301  0.9747
 4230TIP3    H236886  -2.101   1.624   5.379  1.2204 -0.6206  0.2436
 4231TIP3   OH236887   1.277   0.696   2.784 -0.4658  1.0671  0.3477
 4231TIP3    H136888   1.319   0.725   2.703  0.2717 -1.6875 -0.3493
 4231TIP3    H236889   1.196   0.654   2.756  1.1011 -2.4769  0.5799
 4232TIP3   OH236890  -3.295  -1.467   5.768  0.2935 -0.1273  0.1999
 4232TIP3    H136891  -3.231  -1.426   5.825  0.3130  0.2184 -0.0683
 4232TIP3    H236892  -3.355  -1.396   5.744 -0.2107 -0.4518  0.4794
 4233TIP3   OH236893  -0.812  -0.396   5.311  0.0328  0.2167  0.2158
 4233TIP3    H136894  -0.845  -0.309   5.294 -0.8568  0.2197  1.8213
 4233TIP3    H236895  -0.844  -0.419   5.398 -0.1758 -1.9108 -0.3471
 4234TIP3   OH236896   3.158  -0.417   3.009 -0.2451 -0.1600 -0.0506
 4234TIP3    H136897   3.110  -0.367   2.943  1.5158  0.2495 -1.1004
 4234TIP3    H236898   3.152  -0.508   2.979 -0.2597 -0.0977 -0.2356
 4235TIP3   OH236899  -3.046   0.309   5.634  0.1507 -0.3383 -0.5205
 4235TIP3    H136900  -3.042   0.252   5.558 -0.4108 -0.4257 -0.4942
 4235TIP3    H236901  -2.965   0.291   5.682 -0.3320 -1.6298 -0.1509
 4236TIP3   OH236902  -1.153   2.854   5.512  1.4132 -0.3473 -0.8025
 4236TIP3    H136903  -1.236   2.900   5.519  0.8533 -1.3191 -0.8871
 4236TIP3    H236904  -1.104   2.902   5.445 -0.2827 -1.4669 -2.9942
 4237TIP3   OH236905   0.012  -2.902   3.268  0.1190 -0.2213 -0.1683
 4237TIP3    H136906   0.077  -2.901   3.199 -0.8079  1.1766 -1.0660
 4237TIP3    H236907  -0.059  -2.957   3.234 -0.1310  0.0796 -0.1403
 4238TIP3   OH236908  -2.314   2.485   5.819  0.3077  0.6137  0.3367
 4238TIP3    H136909  -2.269   2.557   5.862  1.9649  0.0809 -0.4200
 4238TIP3    H236910  -2.387   2.527   5.772  1.5574  1.9080 -0.5471
 4239TIP3   OH236911  -2.687  -0.075   3.005 -0.2297  0.3984 -0.0288
 4239TIP3    H136912  -2.644  -0.100   2.924  0.9190  0.8625  0.4221
 4239TIP3    H236913  -2.617  -0.069   3.069 -1.0307  0.6817  0.8483
 4240TIP3   OH236914   1.169  -0.925   3.210  0.6172  0.2245 -0.4963
 4240TIP3    H136915   1.180  -0.898   3.301  0.1259 -2.2637  0.3717
 4240TIP3    H236916   1.084  -0.890   3.185  0.3250  0.1179  0.3160
 4241TIP3   OH236917   0.752   2.401   3.856 -0.3585 -1.1220 -0.1772
 4241TIP3    H136918   0.755   2.329   3.919  1.5729 -0.8847  0.0659
 4241TIP3    H236919   0.668   2.391   3.811 -0.7496 -2.6621  0.8394
 4242TIP3   OH236920   0.734  -2.249   2.611  0.8598  0.0030  0.4949
 4242TIP3    H136921   0.683  -2.188   2.665  0.1176  0.1048 -0.2961
 4242TIP3    H236922   0.674  -2.321   2.593  0.5357  0.6967 -1.4839
 4243TIP3   OH236923  -2.510   0.676   2.421 -0.0221  0.7760 -0.1439
 4243TIP3    H136924  -2.580   0.628   2.378  0.0557  0.5327 -0.0002
 4243TIP3    H236925  -2.547   0.764   2.435 -0.9931  0.1642  1.5658
 4244TIP3   OH236926   1.948   2.733   3.879 -0.1023  0.3325  0.2890
 4244TIP3    H136927   1.990   2.809   3.838 -1.1901  1.3044  0.9202
 4244TIP3    H236928   1.858   2.761   3.894 -0.6276 -1.2261  0.2096
 4245TIP3   OH236929   1.071  -1.325   4.378 -0.2795 -0.6456 -0.0178
 4245TIP3    H136930   1.107  -1.344   4.465  0.1987 -1.7463 -0.4358
 4245TIP3    H236931   1.061  -1.411   4.337  0.8162 -0.0838 -1.5738
 4246TIP3   OH236932   0.863   0.595   5.279 -0.0758  0.0508 -0.3648
 4246TIP3    H136933   0.828   0.513   5.314 -2.7603  0.5637 -1.5503
 4246TIP3    H236934   0.823   0.663   5.333  3.2961  0.6751  1.5915
 4247TIP3   OH236935   2.257  -0.447   4.121 -0.0045  0.2779 -0.0911
 4247TIP3    H136936   2.222  -0.362   4.146  0.8337  0.2997  1.1058
 4247TIP3    H236937   2.246  -0.502   4.199  0.9682 -0.2142 -0.2724
 4248TIP3   OH236938  -0.014   0.955   3.702  0.7355 -0.0126  0.4209
 4248TIP3    H136939   0.006   1.007   3.625 -0.0968 -0.6446 -0.2497
 4248TIP3    H236940  -0.011   0.864   3.671  0.3256 -0.2719  1.1096
 4249TIP3   OH236941   2.421  -0.362   3.107 -0.0802 -0.1185  0.1614
 4249TIP3    H136942   2.334  -0.379   3.071  0.5308 -2.5181 -0.3687
 4249TIP3    H236943   2.459  -0.297   3.049 -1.0826  0.1103 -0.2708
 4250TIP3   OH236944  -0.316  -0.329   2.634  0.2598  0.0092  0.2084
 4250TIP3    H136945  -0.299  -0.330   2.540 -1.7963  0.1490 -0.2248
 4250TIP3    H236946  -0.324  -0.236   2.656  0.5315 -0.0312  0.4790
 4251TIP3   OH236947   0.161   1.813   5.715 -0.5669  0.5095 -0.2195
 4251TIP3    H136948   0.233   1.781   5.768  0.0723  0.3646 -1.1479
 4251TIP3    H236949   0.167   1.908   5.719 -0.8613  0.5091  0.3982
 4252TIP3   OH236950   1.853   1.840   4.959 -0.2094  0.8066 -0.0668
 4252TIP3    H136951   1.945   1.865   4.958  0.4663 -1.3805 -2.0204
 4252TIP3    H236952   1.829   1.829   4.867 -1.5132 -1.5437  0.4531
 4253TIP3   OH236953  -3.013   3.309   4.188 -0.1000 -0.0306  0.2649
 4253TIP3    H136954  -3.009   3.401   4.214 -1.7000 -0.1649  1.0869
 4253TIP3    H236955  -3.100   3.280   4.215 -0.9346 -0.9201 -2.9225
 4254TIP3   OH236956  -2.609  -1.648   5.525 -0.1712 -0.5103  0.2231
 4254TIP3    H136957  -2.680  -1.703   5.557 -0.6589 -0.7796 -1.2462
 4254TIP3    H236958  -2.617  -1.651   5.430  0.1955  1.5691  0.0783
 4255TIP3   OH236959   0.595   1.960   4.491  0.2615  0.3511  0.1659
 4255TIP3    H136960   0.622   1.913   4.412 -0.6906 -0.4484  0.2882
 4255TIP3    H236961   0.648   2.039   4.492  1.3156 -0.3229 -0.5031
 4256TIP3   OH236962  -3.078  -2.011   3.796 -0.1422  0.0644 -0.1814
 4256TIP3    H136963  -3.087  -1.930   3.747  1.5912  0.5739  0.2899
 4256TIP3    H236964  -3.151  -2.065   3.766  0.4283  0.6038 -2.7876
 4257TIP3   OH236965   1.532  -1.565   4.192 -0.5799  0.1045  0.3043
 4257TIP3    H136966   1.442  -1.597   4.186 -0.4405 -0.3791  0.7143
 4257TIP3    H236967   1.584  -1.643   4.213 -0.0914  0.4142  0.2706
 4258TIP3   OH236968  -1.261   2.627   3.242  0.4729 -0.0394  0.4090
 4258TIP3    H136969  -1.265   2.534   3.261  0.0511 -0.4443 -1.4606
 4258TIP3    H236970  -1.325   2.667   3.300 -0.4960 -1.1283  0.1217
 4259TIP3   OH236971   1.999  -3.147   4.984 -0.1846  0.4920  0.2301
 4259TIP3    H136972   1.952  -3.228   5.004  0.4037  0.0058 -0.3451
 4259TIP3    H236973   1.931  -3.087   4.954 -0.2785 -0.7869 -2.4239
 4260TIP3   OH236974   0.770   2.692   5.649  0.5075 -0.5543  0.4813
 4260TIP3    H136975   0.733   2.732   5.727  0.4271 -1.1941  0.7766
 4260TIP3    H236976   0.785   2.765   5.589  1.5357  0.0870  1.4764
 4261TIP3   OH236977  -2.305  -2.505   5.713  0.3848  0.2964  0.2380
 4261TIP3    H136978  -2.302  -2.480   5.621  1.1378 -0.2670  0.1011
 4261TIP3    H236979  -2.214  -2.505   5.741  0.4231 -2.0023  0.2978
 4262TIP3   OH236980   0.671   3.088   3.998  0.0354  0.3462  0.4863
 4262TIP3    H136981   0.719   3.170   3.982  0.1225  0.1493 -0.3271
 4262TIP3    H236982   0.725   3.040   4.060  0.4653  0.5024  0.2426
 4263TIP3   OH236983   0.631   0.881   5.186 -0.8113 -0.0893  0.3749
 4263TIP3    H136984   0.544   0.918   5.167 -0.1569  0.4220 -1.9495
 4263TIP3    H236985   0.640   0.809   5.125  0.5792  0.1662  0.2554
 4264TIP3   OH236986   1.258   1.789   4.113 -0.0271 -0.3111 -0.1048
 4264TIP3    H136987   1.294   1.877   4.100  0.1429 -0.5983 -1.7896
 4264TIP3    H236988   1.250   1.780   4.208  2.2867  0.5868  0.2293
 4265TIP3   OH236989  -2.733   1.712   2.575  0.3800 -0.1351 -0.5146
 4265TIP3    H136990  -2.826   1.694   2.589  0.6139 -0.7944  0.2605
 4265TIP3    H236991  -2.727   1.807   2.572 -0.2276 -0.0745  0.0619
 4266TIP3   OH236992  -1.075   1.111   3.333  0.3519 -0.5287  0.0967
 4266TIP3    H136993  -1.167   1.132   3.318  0.1510 -1.3270  0.1733
 4266TIP3    H236994  -1.063   1.124   3.427  0.6223  0.6941 -0.0878
 4267TIP3   OH236995  -2.128   0.647   3.454 -0.1616 -0.0006  0.2776
 4267TIP3    H136996  -2.191   0.668   3.386  0.7274  0.0454 -0.5504
 4267TIP3    H236997  -2.180   0.642   3.534 -1.4962 -1.5672 -0.6120
 4268TIP3   OH236998   0.928   1.864   4.815 -0.3019 -0.1647  0.2110
 4268TIP3    H136999   0.860   1.931   4.804 -0.0432  0.1765  0.6717
 4268TIP3    H237000   0.904   1.819   4.895 -0.7116 -0.9167 -0.3180
 4269TIP3   OH237001  -0.141   0.638   3.065  0.3614 -0.4212 -0.1074
 4269TIP3    H137002  -0.188   0.690   3.130  1.9573  2.5648 -1.1603
 4269TIP3    H237003  -0.201   0.632   2.991 -0.4129 -1.5056  0.5682
 4270TIP3   OH237004   1.126   0.140   3.112 -0.7129 -0.0689  0.1678
 4270TIP3    H137005   1.048   0.138   3.056 -0.4288  0.8783 -0.2820
 4270TIP3    H237006   1.107   0.077   3.182 -1.6926 -0.1791 -0.1816
 4271TIP3   OH237007   2.368  -0.644   4.891 -0.1024 -0.1702  0.4285
 4271TIP3    H137008   2.323  -0.729   4.894 -0.5220  0.0502  0.5245
 4271TIP3    H237009   2.297  -0.580   4.897  0.3655  0.2069  3.2579
 4272TIP3   OH237010  -0.822   0.675   5.567  0.0407  0.0172  0.3807
 4272TIP3    H137011  -0.913   0.686   5.593 -0.3483  0.4313 -1.0439
 4272TIP3    H237012  -0.805   0.581   5.577  0.0610  0.2017  2.4129
 4273TIP3   OH237013   0.531   2.982   5.427 -0.6794 -0.0302 -0.2973
 4273TIP3    H137014   0.605   3.041   5.443 -0.2403 -0.6012 -0.1757
 4273TIP3    H237015   0.474   3.031   5.368 -0.1675  0.3948 -0.4541
 4274TIP3   OH237016   3.238   3.266   4.397  1.1062  0.0505  0.2371
 4274TIP3    H137017   3.276   3.186   4.362 -0.4916 -0.5866 -0.0923
 4274TIP3    H237018   3.275   3.274   4.485  2.7078 -0.0301 -0.4044
 4275TIP3   OH237019  -2.440   0.540   4.230 -0.1236  0.6079 -0.2584
 4275TIP3    H137020  -2.411   0.623   4.192 -0.6139  1.1281  0.4752
 4275TIP3    H237021  -2.397   0.473   4.177  2.4259  1.3253  0.7625
 4276TIP3   OH237022   1.052   0.532   2.667 -0.0162 -0.9502  0.2414
 4276TIP3    H137023   1.007   0.514   2.750 -0.7622  1.0963  0.3447
 4276TIP3    H237024   0.990   0.585   2.617  0.4556 -2.0895 -1.6305
 4277TIP3   OH237025   0.368   0.781   4.937 -0.7623  0.3425  0.2189
 4277TIP3    H137026   0.378   0.864   4.984  0.1671  0.3472  0.0205
 4277TIP3    H237027   0.336   0.720   5.004  2.1343 -0.0883  1.3471
 4278TIP3   OH237028   0.748  -0.635   5.757  0.0811  0.0434  0.0948
 4278TIP3    H137029   0.788  -0.719   5.781  2.3038  0.8419 -0.6092
 4278TIP3    H237030   0.797  -0.570   5.807 -1.4805  0.9813  0.4790
 4279TIP3   OH237031   0.394   1.584   4.081  0.0754  0.2095  0.3039
 4279TIP3    H137032   0.443   1.605   4.160 -0.0297  0.0793  0.4056
 4279TIP3    H237033   0.304   1.611   4.101  0.0700  0.2777  0.1876
 4280TIP3   OH237034   2.602  -1.211   4.986  0.5735  0.0641 -0.0275
 4280TIP3    H137035   2.512  -1.245   4.978  0.7740 -0.1903 -1.6460
 4280TIP3    H237036   2.648  -1.277   5.037  0.0475 -0.2557  0.0468
 4281TIP3   OH237037  -0.169   2.399   2.968  0.2982 -0.5848 -0.4422
 4281TIP3    H137038  -0.142   2.414   3.059 -2.4071 -0.3562  0.4021
 4281TIP3    H237039  -0.139   2.311   2.948  1.1523 -0.5413  0.5836
 4282TIP3   OH237040  -2.368  -1.030   2.590 -0.2580  0.4703 -0.2060
 4282TIP3    H137041  -2.446  -1.019   2.645  0.8339 -0.1818  1.5571
 4282TIP3    H237042  -2.353  -0.943   2.552 -0.7545  1.0746  0.9347
 4283TIP3   OH237043   2.019  -0.911   3.647 -0.3747  0.6667 -0.3950
 4283TIP3    H137044   1.979  -0.929   3.562  1.0718  0.8668 -1.1451
 4283TIP3    H237045   2.107  -0.947   3.640 -0.0900  1.0746  0.8779
 4284TIP3   OH237046   2.904  -1.227   2.249 -0.4241 -0.3784 -0.5260
 4284TIP3    H137047   2.841  -1.245   2.318 -0.2947  0.9909 -0.0331
 4284TIP3    H237048   2.852  -1.221   2.169 -0.7333 -0.6293 -0.3454
 4285TIP3   OH237049  -2.763  -1.568   4.278  0.0438  0.1407 -0.1160
 4285TIP3    H137050  -2.763  -1.472   4.288  2.1769  0.1336  0.5387
 4285TIP3    H237051  -2.852  -1.594   4.299 -0.5995  1.9847 -0.3270
 4286TIP3   OH237052  -1.272  -1.702   4.645 -0.0360  0.3006 -0.6620
 4286TIP3    H137053  -1.212  -1.669   4.578 -0.0885 -0.4390 -1.0862
 4286TIP3    H237054  -1.304  -1.785   4.609  1.6587 -1.2850  1.2086
 4287TIP3   OH237055  -1.627  -2.538   5.026 -0.2057 -0.3064 -0.4361
 4287TIP3    H137056  -1.701  -2.484   5.052  0.1187  0.3721 -0.8767
 4287TIP3    H237057  -1.665  -2.623   5.005 -0.9544  0.2007 -1.2302
 4288TIP3   OH237058   1.626   2.712   4.765 -0.5682  0.2101 -0.5636
 4288TIP3    H137059   1.653   2.766   4.840  1.3764  0.4305 -1.3520
 4288TIP3    H237060   1.531   2.725   4.759 -0.9418 -0.5079  2.3612
 4289TIP3   OH237061   0.459  -0.587   4.880  0.1067  0.4856 -0.2198
 4289TIP3    H137062   0.500  -0.609   4.796 -1.9959  0.1726 -1.2515
 4289TIP3    H237063   0.422  -0.500   4.866  0.6283  0.8767  0.7628
 4290TIP3   OH237064  -1.750  -3.126   3.706  0.2519 -0.6792  0.0565
 4290TIP3    H137065  -1.817  -3.177   3.753 -0.0763 -0.7578 -0.4875
 4290TIP3    H237066  -1.799  -3.075   3.642  0.8208 -1.9698 -1.4856
 4291TIP3   OH237067  -1.655  -0.141   2.620 -0.1224 -0.4148  0.3172
 4291TIP3    H137068  -1.628  -0.056   2.587 -1.1275  0.0711  0.6881
 4291TIP3    H237069  -1.635  -0.202   2.549  0.0097  0.2267 -0.2062
 4292TIP3   OH237070   1.969   3.002   3.832  0.0660 -0.0925  0.6823
 4292TIP3    H137071   2.023   3.006   3.911  1.8969  0.2637 -0.5198
 4292TIP3    H237072   1.938   3.091   3.820 -1.1426 -0.3675  1.5694
 4293TIP3   OH237073  -0.689   0.549   5.045  0.0516 -0.4107  0.7679
 4293TIP3    H137074  -0.726   0.622   4.997  1.6828  0.1665  0.3289
 4293TIP3    H237075  -0.743   0.474   5.020 -0.0855  0.1657 -0.7806
 4294TIP3   OH237076  -1.002   0.810   5.166 -0.3673  0.3524 -0.5699
 4294TIP3    H137077  -1.025   0.739   5.225 -1.5577  1.1156 -0.0859
 4294TIP3    H237078  -1.070   0.807   5.098  0.1178  0.4462 -1.0678
 4295TIP3   OH237079  -0.424   0.943   5.353 -0.6788  0.0690 -0.3093
 4295TIP3    H137080  -0.455   0.955   5.443  0.3609 -1.8069  0.3496
 4295TIP3    H237081  -0.479   0.872   5.319 -0.9490  0.6531 -1.1320
 4296TIP3   OH237082  -0.122   2.217   3.228  0.1466 -0.0449  0.0664
 4296TIP3    H137083  -0.095   2.141   3.278  1.5272  0.9910  0.9638
 4296TIP3    H237084  -0.090   2.200   3.139  1.8489  0.1355  0.6024
 4297TIP3   OH237085  -0.259   2.980   2.077  0.1417 -0.3429  0.7168
 4297TIP3    H137086  -0.328   2.978   2.012 -0.0672  1.1119  0.8741
 4297TIP3    H237087  -0.214   2.896   2.066  0.7668  0.2516 -1.9839
 4298TIP3   OH237088  -1.213  -1.054   3.948  0.8562  0.3752 -0.2204
 4298TIP3    H137089  -1.183  -1.083   3.862  0.6442  0.8717 -0.4662
 4298TIP3    H237090  -1.306  -1.075   3.950  0.9149  0.1385 -0.0185
 4299TIP3   OH237091  -0.560  -1.614   4.386  0.3771  0.4609  0.0401
 4299TIP3    H137092  -0.535  -1.706   4.378  0.3940  0.5020 -0.4701
 4299TIP3    H237093  -0.596  -1.593   4.300 -0.6520  0.6308  0.5039
 4300TIP3   OH237094  -2.016  -0.400   3.678 -0.0060  0.2793  0.2167
 4300TIP3    H137095  -2.092  -0.363   3.724  0.1557 -0.2887  0.9580
 4300TIP3    H237096  -1.944  -0.341   3.700  0.9374 -1.9338  3.8361
 4301TIP3   OH237097  -2.318  -2.831   3.621 -0.3301 -0.1924 -0.1332
 4301TIP3    H137098  -2.299  -2.923   3.642 -0.3505 -0.4464 -1.1896
 4301TIP3    H237099  -2.358  -2.834   3.534 -0.4626  0.8089 -0.1137
 4302TIP3   OH237100   0.878   0.389   3.672 -0.3950 -0.5679 -0.3109
 4302TIP3    H137101   0.931   0.457   3.713  0.8000 -0.1804 -2.4170
 4302TIP3    H237102   0.896   0.311   3.724 -0.4495  0.2848  1.0686
 4303TIP3   OH237103  -0.817  -1.238   3.420 -0.0508  0.1986 -0.5361
 4303TIP3    H137104  -0.737  -1.229   3.471 -0.4497  0.2473  0.0980
 4303TIP3    H237105  -0.823  -1.157   3.369  1.6604 -0.8906 -2.6110
 4304TIP3   OH237106   2.124  -0.833   5.101  0.4145 -0.5580  0.4859
 4304TIP3    H137107   2.178  -0.913   5.102 -0.5463 -1.2956 -1.3516
 4304TIP3    H237108   2.060  -0.849   5.031 -0.3630  1.4773  0.6825
 4305TIP3   OH237109  -3.186  -1.296   5.137 -0.3690  0.3747  0.3821
 4305TIP3    H137110  -3.092  -1.299   5.155 -0.2398 -0.9359 -0.4599
 4305TIP3    H237111  -3.193  -1.285   5.043 -1.0768  1.4787  0.5401
 4306TIP3   OH237112  -3.328   2.235   4.406  0.5173  0.4138 -0.0621
 4306TIP3    H137113  -3.337   2.211   4.314 -0.8409 -1.3670  0.4784
 4306TIP3    H237114  -3.390   2.307   4.418  0.6199  0.5815 -0.5028
 4307TIP3   OH237115  -2.090  -1.796   5.965  0.2451 -0.0843  0.1076
 4307TIP3    H137116  -2.117  -1.745   6.041 -0.1882  0.1831 -0.2181
 4307TIP3    H237117  -2.014  -1.750   5.930 -0.4174  0.6119 -0.4517
 4308TIP3   OH237118  -3.150  -1.458   4.715 -0.4275  0.1322  1.0245
 4308TIP3    H137119  -3.166  -1.489   4.804  2.0882 -2.2647  0.7693
 4308TIP3    H237120  -3.203  -1.516   4.660 -0.6185  0.4701  0.8495
 4309TIP3   OH237121  -1.077  -1.607   4.471  0.0584 -0.5870  0.0191
 4309TIP3    H137122  -1.012  -1.625   4.403  1.1688 -0.2120  0.9606
 4309TIP3    H237123  -1.059  -1.517   4.499 -1.4315 -0.1585 -0.3021
 4310TIP3   OH237124   2.717   2.786   4.672 -0.1478 -0.0122  0.5960
 4310TIP3    H137125   2.777   2.752   4.738  1.4030  1.4760  0.0235
 4310TIP3    H237126   2.759   2.767   4.588 -1.0456  0.0388  0.1189
 4311TIP3   OH237127  -2.802   2.071   3.219 -0.8177 -0.2088 -0.9119
 4311TIP3    H137128  -2.846   1.998   3.174 -0.4914 -0.0824 -1.4427
 4311TIP3    H237129  -2.860   2.146   3.205 -0.4657 -0.0551 -1.5624
 4312TIP3   OH237130  -1.777   1.829   2.286 -0.6768 -0.6426  0.1132
 4312TIP3    H137131  -1.849   1.768   2.271 -1.8865  0.2108  2.0140
 4312TIP3    H237132  -1.817   1.916   2.274  0.4690 -0.1692 -0.4340
 4313TIP3   OH237133   1.783  -2.973   5.634 -0.5907  0.5704  0.0686
 4313TIP3    H137134   1.786  -2.945   5.543 -1.3008  0.4414  0.0023
 4313TIP3    H237135   1.850  -3.042   5.639 -0.5510  0.5739 -0.3487
 4314TIP3   OH237136   0.292  -2.097   3.801 -0.2394  1.0148  0.6643
 4314TIP3    H137137   0.225  -2.064   3.742  0.2547  0.6894 -0.1025
 4314TIP3    H237138   0.349  -2.022   3.817  0.1756  0.8674 -0.0708
 4315TIP3   OH237139   1.288   0.677   3.872  0.5201  0.1039  0.0665
 4315TIP3    H137140   1.244   0.677   3.957  0.0910 -1.2041 -0.1277
 4315TIP3    H237141   1.368   0.627   3.887 -0.0736 -1.0622 -0.5253
 4316TIP3   OH237142   0.710   0.375   4.586 -0.1073  0.9055 -0.1102
 4316TIP3    H137143   0.655   0.449   4.611  0.8689  1.2983  0.9564
 4316TIP3    H237144   0.773   0.365   4.658  0.5132 -0.2330 -0.7641
 4317TIP3   OH237145   1.100  -2.824   4.307  0.5510  0.0493  0.0366
 4317TIP3    H137146   1.060  -2.895   4.357 -1.2965  1.1894  0.2566
 4317TIP3    H237147   1.089  -2.849   4.215  0.5729 -0.2951  0.1289
 4318TIP3   OH237148  -1.412   1.680   3.606 -0.1587  0.0605 -0.4414
 4318TIP3    H137149  -1.466   1.602   3.620 -1.1178  0.9126  0.8740
 4318TIP3    H237150  -1.418   1.696   3.512 -0.6550 -0.9530 -0.5982
 4319TIP3   OH237151  -2.409   1.847   5.565  0.0450  0.5234  1.0140
 4319TIP3    H137152  -2.382   1.756   5.563 -0.9723  0.2146 -0.2137
 4319TIP3    H237153  -2.501   1.844   5.593 -0.4410  1.0127 -0.4178
 4320TIP3   OH237154   1.203   1.553   5.851 -0.2648 -0.3902 -0.0967
 4320TIP3    H137155   1.242   1.584   5.933  0.3128 -1.6220  0.1248
 4320TIP3    H237156   1.163   1.631   5.812  1.0751  0.6131  0.4397
 4321TIP3   OH237157  -3.014  -1.270   3.664  0.4002 -0.3868 -0.6521
 4321TIP3    H137158  -3.049  -1.293   3.578 -2.1250 -0.5856  0.3590
 4321TIP3    H237159  -3.007  -1.175   3.663 -0.3178 -0.3357 -0.8218
 4322TIP3   OH237160   0.137   0.560   2.195 -0.3141  0.1244  0.5854
 4322TIP3    H137161   0.091   0.607   2.125 -0.0657 -1.1022 -0.4300
 4322TIP3    H237162   0.190   0.494   2.149  0.2192 -0.3999  1.9082
 4323TIP3   OH237163   2.843   2.654   4.062 -1.1621 -0.3228  0.1175
 4323TIP3    H137164   2.881   2.740   4.044  1.7604 -1.7989 -1.5241
 4323TIP3    H237165   2.866   2.636   4.153  1.6851 -0.8530 -0.6134
 4324TIP3   OH237166  -2.848   1.382   3.458  0.4595  0.8143 -0.2445
 4324TIP3    H137167  -2.939   1.396   3.483  0.3931  0.5165 -0.3177
 4324TIP3    H237168  -2.837   1.434   3.379  0.8810  2.3840  0.7994
 4325TIP3   OH237169  -1.293  -2.612   4.747 -0.2604  0.2397 -0.3584
 4325TIP3    H137170  -1.296  -2.674   4.820  0.7673 -0.3327 -0.7935
 4325TIP3    H237171  -1.385  -2.590   4.731 -0.5113  0.2886  1.0248
 4326TIP3   OH237172  -0.545   0.275   4.942 -0.0798  0.4238 -0.3654
 4326TIP3    H137173  -0.636   0.299   4.926 -0.1937  0.7853  0.7512
 4326TIP3    H237174  -0.494   0.350   4.912 -0.3707  1.7079  2.0830
 4327TIP3   OH237175  -3.331   1.235   4.851 -0.0960 -0.0380  0.0683
 4327TIP3    H137176  -3.413   1.256   4.894 -0.1893  0.0395 -0.1440
 4327TIP3    H237177  -3.263   1.276   4.905 -0.1256 -0.8394  0.7346
 4328TIP3   OH237178  -2.752   2.032   5.675 -0.3319 -0.3810 -0.0129
 4328TIP3    H137179  -2.788   2.020   5.763  1.4755  0.0590  0.8541
 4328TIP3    H237180  -2.774   1.952   5.628 -2.1173 -0.2397  0.5386
 4329TIP3   OH237181  -2.237   2.274   5.424 -0.6663 -0.0194 -0.5266
 4329TIP3    H137182  -2.163   2.274   5.483 -0.1729  0.1530 -1.1374
 4329TIP3    H237183  -2.260   2.181   5.414 -1.4226  0.0043  0.7339
 4330TIP3   OH237184  -1.942   3.070   3.275 -0.0304  0.0114 -0.4240
 4330TIP3    H137185  -2.013   3.021   3.234 -0.3500 -0.0628  0.2060
 4330TIP3    H237186  -1.919   3.019   3.353  1.8241 -0.8319 -1.4546
 4331TIP3   OH237187   2.859  -0.878   4.944 -0.2021  0.9393  0.2005
 4331TIP3    H137188   2.829  -0.954   4.893 -0.3812  0.6220  0.7767
 4331TIP3    H237189   2.793  -0.811   4.927  1.2028  1.8431 -2.2989
 4332TIP3   OH237190   1.864   3.304   4.787 -0.0158 -0.5949 -0.3438
 4332TIP3    H137191   1.876   3.399   4.788  0.6520 -0.6450  1.9376
 4332TIP3    H237192   1.882   3.279   4.696 -0.8232  1.5026 -1.1444
 4333TIP3   OH237193   1.025  -1.473   3.726 -0.1981  0.6401  0.3199
 4333TIP3    H137194   1.039  -1.548   3.783 -0.0108  1.0452  0.8142
 4333TIP3    H237195   1.113  -1.450   3.696 -0.0242  1.7705  1.6084
 4334TIP3   OH237196   1.869  -2.367   3.331  0.0823 -0.2080 -0.8215
 4334TIP3    H137197   1.830  -2.393   3.248 -0.7594 -0.7485 -0.2760
 4334TIP3    H237198   1.911  -2.447   3.364  1.2455  0.2430 -1.1643
 4335TIP3   OH237199   2.386   0.604   4.860  0.2563  0.2816  0.3572
 4335TIP3    H137200   2.452   0.671   4.874 -0.0117  0.4807  0.6842
 4335TIP3    H237201   2.434   0.531   4.820  0.2080  1.3368 -1.7247
 4336TIP3   OH237202   1.764  -0.550   5.382  0.4002  0.1839 -0.3783
 4336TIP3    H137203   1.828  -0.618   5.360  1.1073  0.3886  0.8993
 4336TIP3    H237204   1.814  -0.488   5.436 -0.3517  1.4695 -1.1285
 4337TIP3   OH237205   1.949  -0.869   2.920  0.1923  0.0281  0.3993
 4337TIP3    H137206   1.895  -0.893   2.845  1.8274 -0.8186 -0.5616
 4337TIP3    H237207   2.024  -0.929   2.916  0.4374  0.0838  2.6038
 4338TIP3   OH237208  -3.106   1.672   5.654  0.4637 -0.1118  0.1726
 4338TIP3    H137209  -3.199   1.652   5.644  0.3548  0.2411  0.4330
 4338TIP3    H237210  -3.103   1.767   5.665  0.9577  0.0315 -1.0252
 4339TIP3   OH237211  -3.321  -2.302   5.762  0.2314 -0.4654  0.2698
 4339TIP3    H137212  -3.409  -2.325   5.792 -0.2690 -0.5983 -1.1981
 4339TIP3    H237213  -3.335  -2.258   5.678  1.6202 -2.1062 -0.9133
 4340TIP3   OH237214   0.571   1.394   5.170 -0.4470  0.1858 -0.3027
 4340TIP3    H137215   0.598   1.336   5.098 -0.5432 -0.3767  0.1022
 4340TIP3    H237216   0.486   1.359   5.197 -0.6580  0.7227 -0.2620
 4341TIP3   OH237217  -2.666  -1.137   3.112  0.2193 -0.1281 -0.0787
 4341TIP3    H137218  -2.712  -1.107   3.191  1.5382  2.7154 -0.2786
 4341TIP3    H237219  -2.577  -1.155   3.142  0.2911 -0.7321 -0.6251
 4342TIP3   OH237220   2.743  -3.117   5.429 -0.7214 -0.2608  0.1353
 4342TIP3    H137221   2.833  -3.090   5.407 -0.9967  0.5976  0.0307
 4342TIP3    H237222   2.739  -3.111   5.524 -1.2710  1.7616  0.0307
 4343TIP3   OH237223   2.358   1.158   5.962 -0.4781 -0.3339 -0.3642
 4343TIP3    H137224   2.364   1.235   6.018  1.2473 -1.5078  1.2074
 4343TIP3    H237225   2.283   1.175   5.905 -1.0578  1.8253  0.9231
 4344TIP3   OH237226  -2.341   0.400   5.444  0.2916  0.0313 -0.4478
 4344TIP3    H137227  -2.390   0.417   5.524  1.1135  0.9686 -0.1286
 4344TIP3    H237228  -2.404   0.419   5.374  0.1913  1.3137 -0.0477
 4345TIP3   OH237229   0.239   3.327   4.592 -0.3312  0.1890  0.0772
 4345TIP3    H137230   0.213   3.324   4.500 -0.5436 -0.9050  0.1618
 4345TIP3    H237231   0.175   3.271   4.637  1.8512 -2.2840  0.3395
 4346TIP3   OH237232  -2.545  -3.221   2.800 -0.1131  0.0912 -0.3671
 4346TIP3    H137233  -2.596  -3.146   2.830 -0.1427  0.2001 -0.6805
 4346TIP3    H237234  -2.529  -3.203   2.707 -1.0387 -0.8090 -0.7240
 4347TIP3   OH237235  -1.131  -0.789   3.270 -0.2064  0.0690  0.1182
 4347TIP3    H137236  -1.121  -0.880   3.298 -0.8031  0.6825  2.6087
 4347TIP3    H237237  -1.206  -0.790   3.211  1.3783 -1.3764 -2.0119
 4348TIP3   OH237238  -1.113   2.682   3.603  0.2494  0.2100  0.2694
 4348TIP3    H137239  -1.062   2.656   3.526 -2.6576 -0.7865 -1.5233
 4348TIP3    H237240  -1.143   2.600   3.641 -0.7366  0.7276  0.6682
 4349TIP3   OH237241  -3.239  -1.533   2.275 -0.3744  0.0680 -0.2076
 4349TIP3    H137242  -3.297  -1.457   2.263  0.0189  0.4251  0.1309
 4349TIP3    H237243  -3.176  -1.526   2.203 -0.3928  0.0109 -0.2289
 4350TIP3   OH237244  -2.955  -1.991   4.906 -0.2879  0.1041  0.2448
 4350TIP3    H137245  -3.037  -2.012   4.861  0.0663  1.3382 -1.0609
 4350TIP3    H237246  -2.894  -2.058   4.877 -1.2314 -1.9955  2.7214
 4351TIP3   OH237247  -0.190  -0.732   5.283  0.2012  0.1399  0.2675
 4351TIP3    H137248  -0.111  -0.777   5.314 -0.1498 -0.2758  0.5626
 4351TIP3    H237249  -0.231  -0.696   5.362 -0.5209 -0.6467  0.2607
 4352TIP3   OH237250  -0.203   2.708   3.152 -0.2916  0.0292  0.1004
 4352TIP3    H137251  -0.209   2.757   3.233 -0.0880  0.7202 -0.2957
 4352TIP3    H237252  -0.138   2.640   3.169  1.5315  1.6178 -0.1973
 4353TIP3   OH237253  -1.772   2.472   5.320 -0.2628 -0.0477  0.2270
 4353TIP3    H137254  -1.849   2.524   5.345  0.7913  1.5366  0.3068
 4353TIP3    H237255  -1.789   2.445   5.230 -0.5673  0.9996 -0.0452
 4354TIP3   OH237256  -1.508  -0.441   2.969 -0.0058  0.2598 -0.1547
 4354TIP3    H137257  -1.441  -0.508   2.981  0.4341  0.8173  0.6616
 4354TIP3    H237258  -1.523  -0.438   2.875  1.3706  0.3409 -0.3966
 4355TIP3   OH237259  -3.165   0.959   2.880 -0.5171  0.0872 -0.5320
 4355TIP3    H137260  -3.204   0.874   2.863 -0.5495  0.0794 -0.4191
 4355TIP3    H237261  -3.084   0.959   2.829 -0.3668 -0.1290 -0.2925
 4356TIP3   OH237262   1.947  -2.952   3.538  0.3211  0.2654 -0.4773
 4356TIP3    H137263   1.940  -3.032   3.487 -1.4476  0.4854 -0.6167
 4356TIP3    H237264   1.890  -2.966   3.614  0.0089  1.3704 -0.4865
 4357TIP3   OH237265  -2.630  -1.043   5.086  0.5657 -0.1379  0.3306
 4357TIP3    H137266  -2.622  -0.974   5.020 -0.3316  1.1273  1.4934
 4357TIP3    H237267  -2.547  -1.091   5.080  0.6306  0.1293 -1.4726
 4358TIP3   OH237268  -1.117   1.223   4.920 -0.0907  0.1576  0.5631
 4358TIP3    H137269  -1.132   1.242   5.013  0.2015 -0.1568  0.6765
 4358TIP3    H237270  -1.024   1.242   4.906 -0.1865  0.4217  0.2805
 4359TIP3   OH237271   0.989   2.584   3.351 -0.2583  0.2068  0.0551
 4359TIP3    H137272   1.058   2.542   3.299 -1.4804 -0.0951 -1.3783
 4359TIP3    H237273   0.983   2.532   3.430  0.6265 -0.2305 -0.1517
 4360TIP3   OH237274  -1.966  -3.262   3.051 -0.0889  0.1703 -0.7521
 4360TIP3    H137275  -1.917  -3.276   2.970 -0.4653 -0.8503 -0.8281
 4360TIP3    H237276  -2.054  -3.294   3.031  0.2346 -1.7470  0.5374
 4361TIP3   OH237277  -0.529   0.931   3.594  0.0985 -0.4951 -0.0569
 4361TIP3    H137278  -0.456   0.947   3.654 -1.3153 -0.2368  1.6882
 4361TIP3    H237279  -0.519   0.839   3.568  0.3143 -0.8572  1.2298
 4362TIP3   OH237280   2.026  -0.896   3.204 -0.0984  0.3162  0.5753
 4362TIP3    H137281   2.000  -0.861   3.119 -1.5643 -1.5141  0.2218
 4362TIP3    H237282   2.080  -0.826   3.243  1.0392  0.9976 -2.0289
 4363TIP3   OH237283   0.666   1.922   5.944  0.1103 -0.5773  0.3065
 4363TIP3    H137284   0.737   1.858   5.951 -0.3701 -1.0533  0.8711
 4363TIP3    H237285   0.635   1.933   6.034  1.2081  1.6319  0.4894
 4364TIP3   OH237286   2.216   0.305   3.790  0.5400 -0.3171  0.7936
 4364TIP3    H137287   2.221   0.286   3.697  1.9500 -2.9908  1.3006
 4364TIP3    H237288   2.215   0.401   3.795 -1.0123 -0.0945 -1.9571
 4365TIP3   OH237289   0.755   0.754   5.452 -0.1480 -0.1515  0.1570
 4365TIP3    H137290   0.671   0.800   5.454 -0.2768 -0.3783  0.0218
 4365TIP3    H237291   0.763   0.714   5.538 -0.1279 -0.0377  0.2069
 4366TIP3   OH237292   1.153   2.611   2.024 -0.8163 -0.4142 -0.6503
 4366TIP3    H137293   1.231   2.603   1.969 -0.4874 -0.1099 -0.2296
 4366TIP3    H237294   1.127   2.520   2.041 -1.1331 -0.5120 -1.6024
 4367TIP3   OH237295   3.310   0.316   5.732  0.0479  0.2894  0.3053
 4367TIP3    H137296   3.331   0.388   5.791 -0.1745  2.0153 -1.5972
 4367TIP3    H237297   3.395   0.280   5.706  0.1404 -1.6550  2.8721
 4368TIP3   OH237298  -1.282   0.874   4.759  0.0720  0.4594  0.1106
 4368TIP3    H137299  -1.376   0.895   4.755  0.0553  0.5634  0.8780
 4368TIP3    H237300  -1.240   0.944   4.710 -0.1583  1.1175  0.8296
 4369TIP3   OH237301  -3.277   2.277   2.246 -0.2897  0.1723 -0.1576
 4369TIP3    H137302  -3.205   2.274   2.183  0.0330  2.1958  0.0188
 4369TIP3    H237303  -3.261   2.358   2.295 -1.7797 -0.2012  1.0056
 4370TIP3   OH237304  -1.431  -2.569   3.283 -0.2889  0.5769 -0.0338
 4370TIP3    H137305  -1.485  -2.549   3.359 -2.3512 -2.2717 -0.5969
 4370TIP3    H237306  -1.489  -2.617   3.224  2.1181 -0.1757 -1.9706
 4371TIP3   OH237307  -2.554   1.843   2.052  0.1926  0.2779 -0.0536
 4371TIP3    H137308  -2.508   1.920   2.085  1.9578 -0.6096 -0.3599
 4371TIP3    H237309  -2.610   1.816   2.126  0.9948  0.7284  0.7375
 4372TIP3   OH237310  -0.223  -0.778   3.847  0.7525 -0.1365 -0.4595
 4372TIP3    H137311  -0.319  -0.774   3.844  0.6553 -1.3406  0.3507
 4372TIP3    H237312  -0.195  -0.691   3.820 -0.6050  0.6174  0.4172
 4373TIP3   OH237313   0.814  -3.066   3.507  0.1893 -0.3295  0.7216
 4373TIP3    H137314   0.749  -3.036   3.443 -0.0340 -0.7947  0.7308
 4373TIP3    H237315   0.897  -3.028   3.477  0.0746 -0.4939  0.1964
 4374TIP3   OH237316   1.785  -2.201   5.499 -0.0524 -0.1481 -0.1751
 4374TIP3    H137317   1.791  -2.154   5.416 -2.9685  0.4254 -0.1516
 4374TIP3    H237318   1.777  -2.293   5.475  0.9966 -0.1838 -0.4237
 4375TIP3   OH237319   0.721  -0.275   2.658 -0.7052  0.0914 -0.3731
 4375TIP3    H137320   0.626  -0.285   2.661 -0.7876  0.9283  0.9894
 4375TIP3    H237321   0.752  -0.354   2.614 -2.0287 -0.1742 -0.8895
 4376TIP3   OH237322   2.886  -0.607   3.386 -0.6695 -0.1787  0.1024
 4376TIP3    H137323   2.846  -0.648   3.463  2.0785 -2.8180  0.2727
 4376TIP3    H237324   2.873  -0.513   3.401 -3.2833 -0.7124  1.9805
 4377TIP3   OH237325   2.644  -0.475   5.209 -0.2039  0.1155  0.1211
 4377TIP3    H137326   2.657  -0.544   5.273  1.1575 -2.1078 -2.3481
 4377TIP3    H237327   2.549  -0.459   5.210 -0.2285  0.1665  2.5647
 4378TIP3   OH237328  -2.947   1.218   3.698  0.9439 -0.6707  0.7728
 4378TIP3    H137329  -2.905   1.303   3.692 -0.9856  0.3825  1.3312
 4378TIP3    H237330  -2.995   1.209   3.616 -0.6718 -0.1484  1.6097
 4379TIP3   OH237331   0.687   2.725   5.009 -0.1764  0.1700 -0.7081
 4379TIP3    H137332   0.686   2.820   4.999  3.8225  0.3979 -0.6377
 4379TIP3    H237333   0.694   2.711   5.103  0.9342 -0.0513 -0.8053
 4380TIP3   OH237334  -1.169   2.021   4.603 -0.3622 -0.3242 -0.4885
 4380TIP3    H137335  -1.179   1.972   4.521 -1.5474  1.2742 -1.3499
 4380TIP3    H237336  -1.255   2.015   4.645  0.0733 -0.6421  0.3783
 4381TIP3   OH237337  -0.098   2.915   4.797  0.4101  0.2466  0.3527
 4381TIP3    H137338  -0.194   2.910   4.795  0.3771  0.6767 -1.8032
 4381TIP3    H237339  -0.070   2.850   4.732  1.6078 -0.0268  1.1152
 4382TIP3   OH237340  -1.911  -3.029   5.646  0.1311 -0.1253  0.4442
 4382TIP3    H137341  -1.946  -2.945   5.675  0.5957  0.4758 -0.6606
 4382TIP3    H237342  -1.986  -3.089   5.648 -0.2000  0.3084  1.2499
 4383TIP3   OH237343   0.893  -0.898   3.549  0.1581 -0.5682 -0.4509
 4383TIP3    H137344   0.801  -0.894   3.521  0.1268  0.1692 -0.2468
 4383TIP3    H237345   0.923  -0.983   3.517 -0.8460 -1.2089  0.2658
 4384TIP3   OH237346  -0.442   2.707   5.732  0.1787 -0.2188  0.3260
 4384TIP3    H137347  -0.383   2.642   5.772 -0.9019 -1.2399  0.3347
 4384TIP3    H237348  -0.486   2.658   5.662  0.2951  0.8897 -0.5440
 4385TIP3   OH237349  -2.534  -1.350   2.826  0.1322 -0.4000  0.2007
 4385TIP3    H137350  -2.596  -1.335   2.898 -0.1855 -1.2738  0.1239
 4385TIP3    H237351  -2.589  -1.355   2.748  0.4412  0.1992 -0.0601
 4386TIP3   OH237352   2.356  -1.331   4.141  0.3548 -0.2435  0.1814
 4386TIP3    H137353   2.296  -1.256   4.145  0.1845 -0.3491 -0.2898
 4386TIP3    H237354   2.442  -1.292   4.125  0.1830 -0.1743 -0.6239
 4387TIP3   OH237355  -1.402   3.331   3.588  0.4399  0.4219 -0.2756
 4387TIP3    H137356  -1.323   3.343   3.534  0.0160 -1.8134 -1.5448
 4387TIP3    H237357  -1.437   3.419   3.599  1.5812  1.1827 -2.1154
 4388TIP3   OH237358   3.339  -2.260   4.407 -0.0527 -0.8571  0.3618
 4388TIP3    H137359   3.287  -2.339   4.394 -0.9813 -0.1189 -0.6126
 4388TIP3    H237360   3.276  -2.197   4.443  0.1395  0.0499 -0.8420
 4389TIP3   OH237361  -2.965  -3.139   4.132  0.4865 -0.4211  0.0928
 4389TIP3    H137362  -2.954  -3.118   4.039 -2.3400 -1.3810 -0.5326
 4389TIP3    H237363  -3.047  -3.097   4.158  0.2507 -1.7014  1.6445
 4390TIP3   OH237364  -1.840  -0.674   3.718 -0.2472 -0.3520 -0.0659
 4390TIP3    H137365  -1.863  -0.664   3.626  0.5772  3.0796 -0.0296
 4390TIP3    H237366  -1.877  -0.597   3.761  0.9571 -0.9039  2.1503
 4391TIP3   OH237367  -2.546   0.733   4.950  0.2064 -0.6795 -0.4192
 4391TIP3    H137368  -2.464   0.706   4.991  0.2434  1.0892  0.7699
 4391TIP3    H237369  -2.520   0.805   4.892 -0.4854 -0.2372 -0.1808
 4392TIP3   OH237370  -0.578   0.176   2.799  0.1880  0.2710  0.5243
 4392TIP3    H137371  -0.564   0.253   2.743  1.7392 -0.2905  0.0902
 4392TIP3    H237372  -0.608   0.108   2.739  0.8271 -0.0378  0.5525
 4393TIP3   OH237373   0.859  -1.965   4.593 -0.1822 -0.2485  0.6042
 4393TIP3    H137374   0.769  -1.936   4.580 -0.3297 -0.8414  0.2917
 4393TIP3    H237375   0.903  -1.945   4.510  0.2706  1.0866  1.1343
 4394TIP3   OH237376   0.100   1.443   4.202  0.0203  0.1145 -0.1939
 4394TIP3    H137377   0.174   1.383   4.210  0.3880  0.3081 -1.7857
 4394TIP3    H237378   0.131   1.525   4.240  0.1370 -0.1964  0.3885
 4395TIP3   OH237379  -0.512  -3.013   4.795  0.4490  0.1993 -0.0937
 4395TIP3    H137380  -0.451  -3.067   4.744  0.7643 -1.1355  1.6139
 4395TIP3    H237381  -0.459  -2.938   4.824  1.4257 -1.1202  1.6621
 4396TIP3   OH237382   2.073   1.944   4.196 -0.3122 -0.1313 -0.7657
 4396TIP3    H137383   2.139   1.929   4.264  0.4165 -1.3466 -1.6922
 4396TIP3    H237384   2.029   1.859   4.187 -1.5926  0.4909 -0.6105
 4397TIP3   OH237385  -0.124  -0.919   4.068 -0.1131 -0.0728 -0.0918
 4397TIP3    H137386  -0.143  -0.879   3.983 -0.4766  0.1609  0.0957
 4397TIP3    H237387  -0.177  -0.999   4.068 -1.4004  0.7334  0.5553
 4398TIP3   OH237388   1.740  -1.304   5.676 -0.0599 -0.2710  0.3887
 4398TIP3    H137389   1.813  -1.264   5.724  0.4101  0.1601 -0.6602
 4398TIP3    H237390   1.713  -1.378   5.731  1.1571 -0.4364  0.8002
 4399TIP3   OH237391  -3.090   1.519   4.559  0.1955 -0.5501 -0.7776
 4399TIP3    H137392  -3.104   1.608   4.591  0.9835 -0.5092 -0.5242
 4399TIP3    H237393  -3.161   1.468   4.597  0.4091 -0.2525  0.0453
 4400TIP3   OH237394   0.280   1.894   5.186  0.4480 -0.0938  0.5950
 4400TIP3    H137395   0.341   1.823   5.164  0.0575 -0.2026 -0.2048
 4400TIP3    H237396   0.256   1.878   5.277  1.5303 -0.1000  0.8958
 4401TIP3   OH237397   1.743   2.318   2.551  0.4817 -0.1991  0.1997
 4401TIP3    H137398   1.762   2.412   2.556  1.6098 -0.3769 -0.4447
 4401TIP3    H237399   1.818   2.281   2.505  0.5276 -1.5576  1.2945
 4402TIP3   OH237400   0.631  -1.303   3.656  0.0245 -0.3962 -0.4156
 4402TIP3    H137401   0.708  -1.308   3.599 -0.4825 -0.6657 -1.0889
 4402TIP3    H237402   0.657  -1.352   3.734  1.3131  1.3545  0.3165
 4403TIP3   OH237403  -1.231   2.994   5.141 -0.4862 -0.0353  0.4635
 4403TIP3    H137404  -1.251   2.910   5.098 -1.7963 -0.1497  1.2309
 4403TIP3    H237405  -1.215   3.055   5.069  0.7456 -0.9799 -0.1101
 4404TIP3   OH237406  -2.127  -0.274   4.832  0.3118 -0.0425 -0.2993
 4404TIP3    H137407  -2.098  -0.254   4.742  1.4944  0.1290  0.0931
 4404TIP3    H237408  -2.157  -0.191   4.867  0.4003  0.0096 -0.3469
 4405TIP3   OH237409   2.325   1.305   3.414  0.0441  0.7078 -0.2219
 4405TIP3    H137410   2.360   1.232   3.362  0.3520  0.6111  0.1187
 4405TIP3    H237411   2.391   1.374   3.408 -0.0031  0.7633 -0.1133
 4406TIP3   OH237412   0.725  -1.183   4.857  0.0198 -0.3601  0.0018
 4406TIP3    H137413   0.657  -1.218   4.915 -0.1037  2.0651  1.4728
 4406TIP3    H237414   0.767  -1.114   4.909  1.5641  0.2589 -1.9609
 4407TIP3   OH237415   2.247   2.614   3.641  0.7395 -0.2742  0.2087
 4407TIP3    H137416   2.308   2.541   3.639  0.6711 -0.3206 -0.1981
 4407TIP3    H237417   2.168   2.582   3.598  0.2275 -0.3854  1.1992
 4408TIP3   OH237418   0.942   2.950   3.644 -0.0269  0.3140  0.3348
 4408TIP3    H137419   0.910   2.860   3.637  1.1538 -0.0215 -1.4195
 4408TIP3    H237420   0.890   2.988   3.714 -1.1425 -1.4826  0.5602
 4409TIP3   OH237421  -0.696  -1.611   3.575  0.3214 -0.7016 -0.2966
 4409TIP3    H137422  -0.757  -1.611   3.649 -1.6915 -1.8488 -1.8675
 4409TIP3    H237423  -0.668  -1.702   3.568  0.3413 -0.6386 -1.0718
 4410TIP3   OH237424   2.675   1.977   3.367 -0.0986  0.1393 -0.5779
 4410TIP3    H137425   2.714   2.038   3.304  0.4682 -0.6080 -0.9519
 4410TIP3    H237426   2.707   1.891   3.342 -2.1843 -0.5648 -1.0503
 4411TIP3   OH237427   2.113   0.088   4.080 -0.0967  0.0374 -0.1953
 4411TIP3    H137428   2.045   0.102   4.014 -1.6266  0.9634  1.4871
 4411TIP3    H237429   2.144   0.176   4.102 -1.4578  0.0251  2.1026
 4412TIP3   OH237430  -0.303  -2.740   5.588 -0.2511 -0.4765  0.1226
 4412TIP3    H137431  -0.330  -2.740   5.680  0.9963 -0.5970  0.5011
 4412TIP3    H237432  -0.368  -2.685   5.544 -1.1901 -0.8725  0.9685
 4413TIP3   OH237433   0.939   1.731   4.149  0.0332  0.5610  0.8269
 4413TIP3    H137434   0.936   1.650   4.099 -1.6465  0.9251  0.2643
 4413TIP3    H237435   1.031   1.757   4.147  0.2851 -0.3048 -0.6542
 4414TIP3   OH237436  -1.856  -3.325   4.279 -0.4459  0.2267  0.4550
 4414TIP3    H137437  -1.844  -3.284   4.365 -0.2866  0.0430  0.5171
 4414TIP3    H237438  -1.930  -3.384   4.291 -0.0716 -0.2136  0.6083
 4415TIP3   OH237439  -3.244   0.051   3.516 -0.9753 -0.3781  0.2083
 4415TIP3    H137440  -3.322   0.097   3.548 -0.8701 -0.3325  0.4044
 4415TIP3    H237441  -3.262  -0.042   3.532 -1.6070 -0.4946 -1.1084
 4416TIP3   OH237442  -0.105  -1.717   3.386 -0.2873 -0.3204  0.4916
 4416TIP3    H137443  -0.121  -1.804   3.422  1.4956 -1.4453 -1.2112
 4416TIP3    H237444  -0.063  -1.733   3.301  0.0936  2.2058  0.1104
 4417TIP3   OH237445  -2.266   0.850   4.984 -0.5627 -0.1742 -0.2049
 4417TIP3    H137446  -2.236   0.759   4.982 -1.5717 -0.5284 -0.0153
 4417TIP3    H237447  -2.199   0.899   4.936  0.7442 -0.7765  0.9417
 4418TIP3   OH237448   1.291   1.095   5.185 -0.5288 -0.2779  0.4483
 4418TIP3    H137449   1.196   1.079   5.182 -0.6656  0.3460  1.0948
 4418TIP3    H237450   1.312   1.095   5.279  0.2025 -0.9217  0.2926
 4419TIP3   OH237451   0.450  -1.876   3.965  0.7057  0.1245  0.7339
 4419TIP3    H137452   0.524  -1.884   4.025  1.2925  1.7394  0.2856
 4419TIP3    H237453   0.486  -1.901   3.879  0.8915  1.3365  0.4360
 4420TIP3   OH237454   0.073   0.399   3.490 -0.0658 -0.1781 -0.2023
 4420TIP3    H137455   0.098   0.308   3.473  0.8174 -0.0622  0.3936
 4420TIP3    H237456   0.150   0.450   3.466 -0.1246  0.3024  0.5911
 4421TIP3   OH237457   2.114  -1.655   4.101 -0.5568 -0.1722  0.2369
 4421TIP3    H137458   2.146  -1.603   4.027  0.0274  0.7945  1.1345
 4421TIP3    H237459   2.183  -1.648   4.166  0.7412 -4.1257 -0.4446
 4422TIP3   OH237460  -0.372  -2.284   4.993 -0.7818  0.3026  0.2949
 4422TIP3    H137461  -0.446  -2.243   4.947 -2.6398 -0.5093  2.3914
 4422TIP3    H237462  -0.385  -2.261   5.085  1.9932  0.6692  0.6644
 4423TIP3   OH237463  -0.342  -3.132   4.599 -0.0443  0.4337  0.1286
 4423TIP3    H137464  -0.356  -3.074   4.525 -0.7851  0.5435  0.3491
 4423TIP3    H237465  -0.255  -3.169   4.585  0.2000  1.1711 -0.2988
 4424TIP3   OH237466  -0.141  -2.036   4.807 -0.7339 -0.1245  0.1363
 4424TIP3    H137467  -0.216  -2.069   4.758 -1.3788 -0.6690  1.4309
 4424TIP3    H237468  -0.083  -2.112   4.815  0.4136  0.5136 -1.6185
 4425TIP3   OH237469   1.501  -0.034   2.434 -0.2923  0.2243  0.2131
 4425TIP3    H137470   1.577   0.008   2.393  0.8850 -0.2522  1.7872
 4425TIP3    H237471   1.495  -0.119   2.392  0.7629 -0.1750  0.8181
 4426TIP3   OH237472   1.524   2.238   5.208 -0.2510  0.5887  0.3222
 4426TIP3    H137473   1.536   2.208   5.299  2.3309 -1.0541 -0.4449
 4426TIP3    H237474   1.440   2.201   5.182 -0.9839  0.9663  1.9730
 4427TIP3   OH237475   2.099  -1.390   4.625  0.2575  0.1718  0.0134
 4427TIP3    H137476   2.167  -1.346   4.573 -0.3720  1.2846  0.0768
 4427TIP3    H237477   2.018  -1.345   4.599 -0.7153 -2.1743 -1.2593
 4428TIP3   OH237478   1.443   1.069   2.059  0.1636  0.1459  0.5824
 4428TIP3    H137479   1.514   1.063   2.124 -0.2852  1.7534  1.2707
 4428TIP3    H237480   1.366   1.092   2.110 -0.3642  0.6738 -0.4272
 4429TIP3   OH237481  -1.815  -0.589   5.722 -0.8155 -0.0998 -0.0325
 4429TIP3    H137482  -1.848  -0.499   5.725 -1.9697 -0.5238  0.3618
 4429TIP3    H237483  -1.881  -0.640   5.768  0.3002 -1.0164  0.5962
 4430TIP3   OH237484   3.238   2.281   3.826  0.1234  0.2766 -0.1401
 4430TIP3    H137485   3.310   2.335   3.859  1.0914 -1.6385  1.0664
 4430TIP3    H237486   3.205   2.328   3.750  0.4397  2.9018  1.2242
 4431TIP3   OH237487  -2.724   2.347   3.897  0.6566  0.2248  0.2057
 4431TIP3    H137488  -2.667   2.421   3.917 -0.8736  1.0529  1.7644
 4431TIP3    H237489  -2.776   2.335   3.976 -1.8180  0.0056 -1.3593
 4432TIP3   OH237490   1.313  -0.804   5.876 -0.3452 -0.0114 -0.7448
 4432TIP3    H137491   1.274  -0.858   5.807 -3.9103  2.0868 -0.5628
 4432TIP3    H237492   1.305  -0.857   5.955  1.3250 -1.3496 -1.4101
 4433TIP3   OH237493   2.591   2.466   2.569  0.2830  0.6703 -0.3763
 4433TIP3    H137494   2.500   2.465   2.538  0.4229  0.1052 -0.7710
 4433TIP3    H237495   2.643   2.482   2.491  0.6358 -0.7241 -0.4389
 4434TIP3   OH237496  -1.477  -1.867   5.777  0.1683  0.2596 -0.2213
 4434TIP3    H137497  -1.427  -1.934   5.731  0.2473  0.0094  0.2226
 4434TIP3    H237498  -1.464  -1.887   5.870 -1.1957 -0.1464 -0.0930
 4435TIP3   OH237499  -1.806   2.450   2.623  0.2394  0.5416 -0.4418
 4435TIP3    H137500  -1.727   2.450   2.677  0.6545 -0.3728 -1.0252
 4435TIP3    H237501  -1.775   2.456   2.533 -0.3192 -0.3772 -0.7119
 4436TIP3   OH237502   1.444   3.276   3.969 -0.1877  0.5602  0.2971
 4436TIP3    H137503   1.428   3.319   4.053 -0.6923 -0.4065  0.7053
 4436TIP3    H237504   1.464   3.185   3.991  0.8083  0.5406 -0.5556
 4437TIP3   OH237505  -0.160  -2.491   3.273  0.3016  0.3330 -0.2195
 4437TIP3    H137506  -0.077  -2.537   3.286  0.0449 -0.4101 -1.0912
 4437TIP3    H237507  -0.137  -2.399   3.267  0.8741  0.3173  1.2079
 4438TIP3   OH237508   1.403  -0.151   5.824 -0.3196 -0.2393  0.4847
 4438TIP3    H137509   1.499  -0.153   5.830  0.0066 -2.8356 -2.6144
 4438TIP3    H237510   1.374  -0.232   5.865 -0.9212 -0.6573 -0.7133
 4439TIP3   OH237511  -2.300  -0.252   3.467 -0.0169  0.0274  0.6652
 4439TIP3    H137512  -2.323  -0.260   3.374  1.2616 -0.3547  0.3679
 4439TIP3    H237513  -2.375  -0.206   3.506 -0.6706 -0.0038 -0.5045
 4440TIP3   OH237514  -2.482  -2.266   3.063  0.5009  0.1637  0.5272
 4440TIP3    H137515  -2.562  -2.311   3.092  0.9274  0.2232  1.8764
 4440TIP3    H237516  -2.412  -2.330   3.076  0.5913 -0.2072 -1.5069
 4441TIP3   OH237517  -3.000   2.970   3.388  0.0783 -0.1543  0.4782
 4441TIP3    H137518  -2.989   3.021   3.308 -0.9629  2.1692  1.7032
 4441TIP3    H237519  -3.085   2.927   3.377  0.0715 -0.0755  0.2209
 4442TIP3   OH237520  -3.299   3.231   2.489 -0.4012 -0.1626  0.0595
 4442TIP3    H137521  -3.262   3.294   2.427 -0.4055 -0.4758 -0.2663
 4442TIP3    H237522  -3.393   3.250   2.489 -0.4909 -0.5889 -0.5285
 4443TIP3   OH237523   0.513   2.319   4.733 -0.2902  0.1962 -0.1145
 4443TIP3    H137524   0.438   2.308   4.792  0.3933 -0.7234  0.6082
 4443TIP3    H237525   0.586   2.341   4.791 -0.2426  2.4492 -0.9331
 4444TIP3   OH237526  -1.071  -0.432   2.705  0.3549 -0.1957 -0.4974
 4444TIP3    H137527  -1.070  -0.408   2.612  1.6732 -3.2262 -1.3718
 4444TIP3    H237528  -1.158  -0.470   2.719 -0.4260  1.6629 -0.0177
 4445TIP3   OH237529  -2.253  -1.715   3.515  0.1281  0.8880 -0.3810
 4445TIP3    H137530  -2.253  -1.692   3.608  0.5379 -0.2205 -0.0900
 4445TIP3    H237531  -2.316  -1.656   3.475 -0.3462  1.1113  0.6777
 4446TIP3   OH237532  -1.332   1.217   3.262  0.1566 -0.1999  0.1734
 4446TIP3    H137533  -1.305   1.217   3.170 -0.1774  2.3729 -0.0127
 4446TIP3    H237534  -1.296   1.298   3.298 -1.5061 -0.0784  1.7374
 4447TIP3   OH237535   2.711  -1.959   4.223 -0.3171  0.1962 -0.0912
 4447TIP3    H137536   2.755  -2.040   4.247 -1.3400 -0.7751 -1.3120
 4447TIP3    H237537   2.643  -1.947   4.290  1.3303  1.3901  1.4608
 4448TIP3   OH237538  -1.250   2.888   4.631 -1.0689  0.0601 -0.2050
 4448TIP3    H137539  -1.335   2.848   4.652 -1.1552 -0.5602 -1.5957
 4448TIP3    H237540  -1.188   2.844   4.690 -1.5361 -0.3532 -0.0123
 4449TIP3   OH237541   2.223   0.563   3.822  0.1214 -0.4262 -0.0858
 4449TIP3    H137542   2.171   0.641   3.801  1.5385  0.7492  0.6380
 4449TIP3    H237543   2.312   0.595   3.832  0.3949 -1.7475  2.4189
 4450TIP3   OH237544  -2.451   0.864   2.934 -0.7659  0.6781  0.8118
 4450TIP3    H137545  -2.412   0.890   3.017  2.0298  0.4411 -0.3235
 4450TIP3    H237546  -2.467   0.771   2.942  1.4556  0.1988  0.4782
 4451TIP3   OH237547  -0.439  -1.147   2.180 -0.0566  0.0982 -0.6025
 4451TIP3    H137548  -0.524  -1.179   2.151  0.0654 -0.0688 -0.7842
 4451TIP3    H237549  -0.448  -1.051   2.182 -0.5990  0.0280  0.5221
 4452TIP3   OH237550   1.347   2.883   5.973  0.7022 -0.2901  0.3305
 4452TIP3    H137551   1.263   2.847   5.947  0.2008  0.3354  1.0272
 4452TIP3    H237552   1.332   2.977   5.982  0.6770 -0.4591  3.2172
 4453TIP3   OH237553   0.339  -2.262   3.528 -0.4812 -0.5182 -0.0358
 4453TIP3    H137554   0.410  -2.214   3.485 -1.0597  0.3095 -0.0980
 4453TIP3    H237555   0.377  -2.347   3.550 -0.1037 -0.9176 -2.0229
 4454TIP3   OH237556  -0.628   3.128   5.055  1.3429  0.7481 -0.6890
 4454TIP3    H137557  -0.676   3.116   4.973 -0.0834 -0.1256  0.2162
 4454TIP3    H237558  -0.562   3.059   5.054 -0.9072 -1.6077  0.3667
 4455TIP3   OH237559   1.172   2.421   3.224 -0.1624  0.0587  0.1680
 4455TIP3    H137560   1.249   2.473   3.200 -1.1466  0.1288 -3.3600
 4455TIP3    H237561   1.208   2.341   3.261  1.5328  0.8634  0.3738
 4456TIP3   OH237562   0.466   1.274   4.595  0.1038  0.1808 -0.4622
 4456TIP3    H137563   0.465   1.341   4.527 -1.3752  0.5598 -0.1040
 4456TIP3    H237564   0.419   1.200   4.556  0.5240 -0.1493 -0.3561
 4457TIP3   OH237565  -3.136  -0.707   3.994  0.0102  0.1116 -0.4117
 4457TIP3    H137566  -3.057  -0.652   3.999 -0.4773  0.7670  0.4405
 4457TIP3    H237567  -3.175  -0.686   3.910 -0.2059  1.1427 -0.0671
 4458TIP3   OH237568   2.802  -1.240   3.408  0.6764  0.0377 -0.3136
 4458TIP3    H137569   2.832  -1.302   3.342 -0.0861  0.7680 -1.3805
 4458TIP3    H237570   2.714  -1.216   3.380  0.8089  1.2996  0.2768
 4459TIP3   OH237571  -1.432  -1.145   2.695  0.2981  0.2546 -0.2517
 4459TIP3    H137572  -1.484  -1.202   2.638  1.0562  0.8773 -1.6244
 4459TIP3    H237573  -1.344  -1.182   2.693  0.2920  0.1658  0.7064
 4460TIP3   OH237574  -2.871   1.595   5.734  0.6423  0.4699 -0.0100
 4460TIP3    H137575  -2.867   1.642   5.817  1.9218 -1.2927  0.9923
 4460TIP3    H237576  -2.962   1.605   5.705 -0.0048  0.5600  1.9433
 4461TIP3   OH237577   0.403  -1.352   2.545  0.6987 -0.3720 -0.4831
 4461TIP3    H137578   0.421  -1.294   2.471 -0.4842  0.0217 -0.4815
 4461TIP3    H237579   0.317  -1.325   2.576  0.9052 -0.9522  0.6483
 4462TIP3   OH237580   1.012   2.777   4.019  0.5131 -0.2255 -0.0215
 4462TIP3    H137581   0.941   2.748   3.962 -0.3407  1.1947  0.2620
 4462TIP3    H237582   1.032   2.701   4.074  0.3281 -1.1387 -1.1749
 4463TIP3   OH237583   2.914   2.371   1.890 -0.3225 -0.1965  0.1793
 4463TIP3    H137584   2.929   2.327   1.974 -0.0519  1.9005  1.2995
 4463TIP3    H237585   2.869   2.452   1.913 -0.1657  0.4818 -1.7010
 4464TIP3   OH237586   0.958   2.305   4.978 -0.9818 -0.4091 -0.4081
 4464TIP3    H137587   1.028   2.272   4.921 -0.7192 -0.8184  0.1482
 4464TIP3    H237588   0.936   2.232   5.034 -1.1667  0.0279  0.0945
 4465TIP3   OH237589   0.437   3.187   4.128 -0.1813 -0.0325 -0.0562
 4465TIP3    H137590   0.360   3.176   4.073 -0.4373 -1.6323  0.5585
 4465TIP3    H237591   0.511   3.172   4.069 -0.3693  0.3348 -0.3918
 4466TIP3   OH237592   0.955  -2.262   5.615  0.5062 -0.2181 -0.1180
 4466TIP3    H137593   0.920  -2.232   5.531 -1.0706 -0.3624  0.4594
 4466TIP3    H237594   0.993  -2.348   5.596 -2.1930 -1.4952 -0.2423
 4467TIP3   OH237595   2.467  -2.481   3.479  0.1396  0.7173 -0.1984
 4467TIP3    H137596   2.450  -2.557   3.422  2.3479  2.0009 -2.8370
 4467TIP3    H237597   2.408  -2.413   3.447  0.5107  1.0761 -0.1322
 4468TIP3   OH237598   1.483   0.305   5.073 -0.1691  0.2348  0.6221
 4468TIP3    H137599   1.459   0.393   5.042 -1.8567 -0.9142 -1.5895
 4468TIP3    H237600   1.410   0.249   5.046  0.9826 -1.9337  1.7249
 4469TIP3   OH237601   0.475  -1.306   4.917  0.4328  0.0162  0.3394
 4469TIP3    H137602   0.452  -1.213   4.918 -0.8427 -0.2744 -0.4386
 4469TIP3    H237603   0.440  -1.340   4.999  3.9391  0.8439  2.4065
 4470TIP3   OH237604  -1.500   1.844   4.812 -0.0151  0.2237 -0.3667
 4470TIP3    H137605  -1.488   1.864   4.719 -0.7815  1.3531 -0.2448
 4470TIP3    H237606  -1.580   1.793   4.816  0.2229 -0.1511 -0.3605
 4471TIP3   OH237607   2.478   2.214   3.330  0.6293  0.1983 -0.3500
 4471TIP3    H137608   2.563   2.245   3.300  0.9400 -0.5879 -0.3102
 4471TIP3    H237609   2.493   2.182   3.419  0.0411  1.1067  0.0849
 4472TIP3   OH237610  -2.962   0.256   1.585  0.3295  0.3724  0.2883
 4472TIP3    H137611  -2.996   0.169   1.565  2.2279 -0.8894  2.0781
 4472TIP3    H237612  -3.001   0.314   1.519 -2.0393 -1.5741 -0.1168
 4473TIP3   OH237613  -1.481  -1.782   2.551  0.7012  0.2217  0.0032
 4473TIP3    H137614  -1.549  -1.728   2.592 -2.6410 -2.5738 -1.3635
 4473TIP3    H237615  -1.451  -1.730   2.477 -0.2928  1.3800  0.3723
 4474TIP3   OH237616   1.541  -2.742   4.231 -0.1338  0.3895 -0.5673
 4474TIP3    H137617   1.632  -2.769   4.247 -0.3275 -0.8504 -1.4101
 4474TIP3    H237618   1.532  -2.746   4.136 -2.2237 -3.5931 -0.3632
 4475TIP3   OH237619  -2.548   2.866   3.082 -0.3791  0.0331  0.5322
 4475TIP3    H137620  -2.523   2.805   3.012 -0.1603 -1.5076  1.8786
 4475TIP3    H237621  -2.643   2.857   3.088 -0.4712  0.6105  0.0713
 4476TIP3   OH237622  -1.811   2.105   5.412  0.4248  0.1973 -0.1845
 4476TIP3    H137623  -1.757   2.075   5.339  0.6696  0.7803 -0.2445
 4476TIP3    H237624  -1.759   2.174   5.454  0.3874 -0.2841  0.6772
 4477TIP3   OH237625  -2.306  -0.166   5.079  0.4406  0.6785  0.7188
 4477TIP3    H137626  -2.279  -0.257   5.081 -1.0826 -0.0088 -2.5805
 4477TIP3    H237627  -2.236  -0.121   5.031 -0.1510  0.6394 -0.1951
 4478TIP3   OH237628   1.344  -3.149   4.631  0.1319 -0.0163  0.0343
 4478TIP3    H137629   1.291  -3.129   4.554 -2.1104 -2.5260  0.7725
 4478TIP3    H237630   1.296  -3.111   4.705 -0.3864 -1.7133  0.6352
 4479TIP3   OH237631   1.795  -1.108   3.668 -0.2059  0.5525 -0.2472
 4479TIP3    H137632   1.790  -1.108   3.573 -1.2189  1.0811 -0.2079
 4479TIP3    H237633   1.824  -1.020   3.691 -0.2733  0.5262 -0.0599
 4480TIP3   OH237634  -2.573  -0.830   3.183  0.0559  0.3206 -0.0651
 4480TIP3    H137635  -2.667  -0.812   3.179 -0.0340 -0.2210 -0.4776
 4480TIP3    H237636  -2.560  -0.903   3.123  0.9450  1.2077 -0.9885
 4481TIP3   OH237637   1.622  -1.716   3.112 -0.0465  0.1914 -0.1929
 4481TIP3    H137638   1.630  -1.708   3.017  0.5809  0.7871 -0.0969
 4481TIP3    H237639   1.681  -1.649   3.147 -0.9046  0.5537  0.6116
 4482TIP3   OH237640   1.315  -3.016   4.890 -0.1345  0.6963  0.0374
 4482TIP3    H137641   1.269  -2.939   4.925  0.8478  1.0422  0.5826
 4482TIP3    H237642   1.369  -2.981   4.819  1.2859  0.7547  1.0982
 4483TIP3   OH237643  -0.049   1.360   5.805  0.2678 -0.0516 -0.3895
 4483TIP3    H137644  -0.103   1.390   5.879  1.7898 -0.1953  0.8411
 4483TIP3    H237645   0.014   1.431   5.792 -0.2077  0.1234 -1.8099
 4484TIP3   OH237646  -2.047   1.382   4.628  0.2368 -0.1268 -0.1448
 4484TIP3    H137647  -1.965   1.380   4.579  0.5424 -1.0782  0.3673
 4484TIP3    H237648  -2.029   1.329   4.706 -0.7003  0.1019  0.2430
 4485TIP3   OH237649  -3.279   2.440   3.920 -0.6830  0.3812  0.8554
 4485TIP3    H137650  -3.203   2.381   3.915 -1.0248 -0.0199  0.2512
 4485TIP3    H237651  -3.252   2.519   3.874 -0.8820 -0.0469 -0.0063
 4486TIP3   OH237652  -0.910  -0.382   5.583  0.3668 -0.5914 -0.5340
 4486TIP3    H137653  -0.994  -0.427   5.589  0.6700 -1.0722  4.6216
 4486TIP3    H237654  -0.932  -0.292   5.560 -1.5508 -0.8146  0.2736
 4487TIP3   OH237655   0.288   2.499   2.832 -0.1359 -0.2084  0.5707
 4487TIP3    H137656   0.290   2.454   2.917  0.3920  0.3011  0.8334
 4487TIP3    H237657   0.380   2.506   2.806 -0.3286 -0.8496 -0.3110
 4488TIP3   OH237658  -0.994  -0.658   5.225 -0.0974  0.1143  0.2165
 4488TIP3    H137659  -0.964  -0.632   5.138 -0.8861 -0.2689 -0.1775
 4488TIP3    H237660  -0.914  -0.670   5.276  0.3501  0.9310 -0.2800
 4489TIP3   OH237661   3.126  -0.747   3.650  0.1631  0.7456 -0.5965
 4489TIP3    H137662   3.162  -0.663   3.679  1.9268  0.3307 -1.4447
 4489TIP3    H237663   3.194  -0.784   3.593 -1.3664 -0.4189 -1.7401
 4490TIP3   OH237664  -0.723  -1.530   3.298  0.0136  0.1151 -0.2664
 4490TIP3    H137665  -0.719  -1.523   3.393  0.4670  0.2712 -0.2948
 4490TIP3    H237666  -0.761  -1.446   3.270 -2.7875 -0.9782 -0.0633
 4491TIP3   OH237667  -0.869  -2.254   4.243 -0.7698 -0.5597  0.8155
 4491TIP3    H137668  -0.792  -2.292   4.200 -0.5317 -0.6739  1.3401
 4491TIP3    H237669  -0.925  -2.226   4.170  0.2821  0.5902  0.4014
 4492TIP3   OH237670   0.704   2.103   3.552 -0.4152 -0.0294 -0.3032
 4492TIP3    H137671   0.787   2.134   3.516 -1.0785  3.0790  0.5000
 4492TIP3    H237672   0.671   2.040   3.488  1.0303  1.1137 -2.2852
 4493TIP3   OH237673  -2.270   1.980   5.358  0.1855  0.1350  0.3010
 4493TIP3    H137674  -2.315   1.967   5.274 -1.6690  0.4046  1.2004
 4493TIP3    H237675  -2.324   1.932   5.421  2.2481 -1.1440  1.1937
 4494TIP3   OH237676  -2.680  -1.998   5.805 -0.0508 -0.6454 -0.7407
 4494TIP3    H137677  -2.649  -1.916   5.845 -0.6447 -1.0451  0.5973
 4494TIP3    H237678  -2.752  -1.970   5.748  1.1202 -0.0088 -1.9758
 4495TIP3   OH237679  -0.542  -2.996   5.070  0.0055 -0.0926  0.1316
 4495TIP3    H137680  -0.540  -3.079   5.118 -1.9689 -0.8944 -1.0661
 4495TIP3    H237681  -0.525  -3.020   4.979  1.5448  1.1360  0.0401
 4496TIP3   OH237682  -1.453  -0.551   4.177 -0.0583  0.2763 -0.0476
 4496TIP3    H137683  -1.500  -0.607   4.115 -2.9421 -0.0994  2.2472
 4496TIP3    H237684  -1.447  -0.466   4.133  0.5525 -0.6902 -1.9173
 4497TIP3   OH237685  -1.191   2.149   5.292  0.6020  0.0688 -0.1731
 4497TIP3    H137686  -1.287   2.153   5.292  0.6121  0.5289  0.4558
 4497TIP3    H237687  -1.166   2.168   5.202  0.1405  1.3071 -0.0575
 4498TIP3   OH237688  -1.983   1.466   5.580 -0.0013 -0.3022 -0.6066
 4498TIP3    H137689  -1.932   1.412   5.640 -2.3660  0.8367  2.7911
 4498TIP3    H237690  -1.951   1.555   5.595 -0.2362 -0.0464 -1.5338
 4499TIP3   OH237691  -3.197  -2.897   3.355 -0.1490 -0.0671 -0.2659
 4499TIP3    H137692  -3.170  -2.821   3.303  1.4898 -1.2456 -1.2289
 4499TIP3    H237693  -3.242  -2.954   3.293  0.2465 -0.7057  0.0293
 4500TIP3   OH237694  -3.254   3.215   3.648 -0.2856  0.0031  0.6372
 4500TIP3    H137695  -3.336   3.170   3.627 -0.2746  0.6001 -0.8658
 4500TIP3    H237696  -3.221   3.243   3.563  0.6044  1.2905  1.3831
 4501TIP3   OH237697   0.985   1.525   5.036 -0.0024  0.4174  0.0110
 4501TIP3    H137698   1.014   1.444   4.993 -0.7850  0.4412 -0.5843
 4501TIP3    H237699   1.066   1.568   5.064  0.7122  1.3228 -3.1142
 4502TIP3   OH237700   0.863   0.137   3.798  0.1748 -0.2265  0.1001
 4502TIP3    H137701   0.848   0.143   3.893 -0.8482  0.5169 -0.0883
 4502TIP3    H237702   0.777   0.117   3.762  0.7313 -1.3775 -0.6129
 4503TIP3   OH237703  -1.175   2.335   3.130  0.7096 -0.0020 -0.1901
 4503TIP3    H137704  -1.270   2.339   3.144  0.6407 -0.2428 -0.5803
 4503TIP3    H237705  -1.146   2.426   3.137  0.1268  0.4057 -2.2735
 4504TIP3   OH237706  -0.509   1.241   3.419 -0.1957  0.3882 -0.3519
 4504TIP3    H137707  -0.510   1.296   3.497  1.0664  2.2660 -1.5601
 4504TIP3    H237708  -0.597   1.250   3.382 -0.6961 -0.2497  0.6420
 4505TIP3   OH237709  -2.266  -2.350   4.167  0.4996  0.1310 -0.2612
 4505TIP3    H137710  -2.318  -2.379   4.242 -1.4293 -0.2473 -1.6765
 4505TIP3    H237711  -2.221  -2.429   4.136 -1.4657 -0.5613 -1.5627
 4506TIP3   OH237712   1.116  -1.703   5.279 -0.0306 -0.6564  0.1298
 4506TIP3    H137713   1.060  -1.682   5.204  1.1139  0.8089 -0.3772
 4506TIP3    H237714   1.055  -1.724   5.350 -1.4271  3.2781  0.3516
 4507TIP3   OH237715  -1.121  -3.052   3.373  0.7174  0.1536 -0.0597
 4507TIP3    H137716  -1.054  -2.985   3.361  0.3604  0.7372  1.0497
 4507TIP3    H237717  -1.192  -3.027   3.314  0.6586  0.6614  0.2212
 4508TIP3   OH237718  -1.440   2.155   5.615  0.7659 -0.2726  0.5117
 4508TIP3    H137719  -1.473   2.125   5.700 -0.5890 -0.7725 -0.1630
 4508TIP3    H237720  -1.436   2.250   5.623 -1.5711 -0.1073  0.4224
 4509TIP3   OH237721  -1.698   0.595   3.772 -0.1727  0.5342 -0.3802
 4509TIP3    H137722  -1.678   0.686   3.753 -0.0222  0.0308 -2.9656
 4509TIP3    H237723  -1.793   0.592   3.776 -0.2024  0.7094 -0.8846
 4510TIP3   OH237724  -0.142   2.953   4.145  0.1341 -0.1777  0.2157
 4510TIP3    H137725  -0.142   2.928   4.238 -0.7779 -0.2695  0.1991
 4510TIP3    H237726  -0.231   2.934   4.115 -0.4547  2.4419  0.0314
 4511TIP3   OH237727  -2.131  -1.637   3.784  0.4969  0.1713  0.3934
 4511TIP3    H137728  -2.180  -1.569   3.830 -0.9295  0.1807 -1.0198
 4511TIP3    H237729  -2.048  -1.595   3.760  0.5200  0.7125  1.3759
 4512TIP3   OH237730  -0.485  -2.598   5.434  0.5597  0.8059 -0.3001
 4512TIP3    H137731  -0.485  -2.532   5.364 -2.5200  0.9981 -0.2826
 4512TIP3    H237732  -0.566  -2.580   5.482  0.1297 -2.3731  0.3362
 4513TIP3   OH237733   2.245   0.708   3.484  0.0350 -0.5604  0.4163
 4513TIP3    H137734   2.289   0.630   3.452  0.9501 -0.1560  0.6542
 4513TIP3    H237735   2.308   0.779   3.470 -0.6454  0.0858  0.5101
 4514TIP3   OH237736  -0.334  -3.324   5.094  0.4554 -0.1654 -0.5738
 4514TIP3    H137737  -0.365  -3.355   5.179  1.6297  1.3721  0.4645
 4514TIP3    H237738  -0.352  -3.397   5.034 -1.0362 -1.0168  0.8191
 4515TIP3   OH237739  -3.156   0.599   5.066 -0.2950  0.4751 -0.3665
 4515TIP3    H137740  -3.203   0.565   4.991 -0.1308  0.7459 -0.5949
 4515TIP3    H237741  -3.223   0.644   5.118 -0.6841 -0.9216  0.3860
 4516TIP3   OH237742   2.600  -2.135   5.072  0.2642 -0.5252 -0.2979
 4516TIP3    H137743   2.619  -2.116   5.164  1.5109 -0.1885 -0.6121
 4516TIP3    H237744   2.580  -2.229   5.070 -1.0761 -0.2845  0.4993
 4517TIP3   OH237745  -1.852  -0.435   5.331  0.0757 -0.1205 -0.4102
 4517TIP3    H137746  -1.906  -0.429   5.252  0.3053 -0.6727 -0.6144
 4517TIP3    H237747  -1.916  -0.439   5.403 -0.1320  0.4403 -0.5611
 4518TIP3   OH237748   2.261  -1.550   4.299  0.2529  0.3913  0.4072
 4518TIP3    H137749   2.281  -1.556   4.392  1.4365 -0.6721  0.1175
 4518TIP3    H237750   2.277  -1.458   4.277  1.7441  0.2854  0.9137
 4519TIP3   OH237751   1.515   1.070   4.363  0.2498  0.0787  0.6291
 4519TIP3    H137752   1.450   1.140   4.371 -0.8018 -0.7092 -0.6302
 4519TIP3    H237753   1.495   1.011   4.435  0.7597  0.7612  1.3402
 4520TIP3   OH237754   2.811   1.007   4.898  1.0415 -0.2602  0.8253
 4520TIP3    H137755   2.787   1.098   4.881  1.1661  0.1059  2.4316
 4520TIP3    H237756   2.743   0.976   4.959  0.3026 -1.6350 -0.6203
 4521TIP3   OH237757   1.985  -2.895   5.297  0.1942  0.0049  0.0336
 4521TIP3    H137758   2.063  -2.915   5.246 -0.8432  2.8933 -3.0289
 4521TIP3    H237759   2.018  -2.862   5.381  2.2553  0.4121 -0.8934
 4522TIP3   OH237760   2.256  -2.231   4.037 -0.6069 -0.2579 -0.6145
 4522TIP3    H137761   2.280  -2.321   4.061 -1.5007 -0.3426 -0.0176
 4522TIP3    H237762   2.321  -2.177   4.082 -1.8265 -0.4577  1.5049
 4523TIP3   OH237763  -2.799  -1.284   4.269  0.2616  0.0392  0.4727
 4523TIP3    H137764  -2.867  -1.244   4.324  3.1075  4.0691  1.5587
 4523TIP3    H237765  -2.800  -1.232   4.189  2.3328  0.5593  0.7408
 4524TIP3   OH237766  -2.826   2.410   3.190  0.4734 -0.3150 -0.1534
 4524TIP3    H137767  -2.859   2.417   3.280 -0.5743 -0.9823 -0.4777
 4524TIP3    H237768  -2.735   2.382   3.201  0.6801  0.6187  0.7177
 4525TIP3   OH237769   0.793   2.032   5.706 -0.0775 -0.3293  0.4245
 4525TIP3    H137770   0.799   2.127   5.717  1.3693 -0.2157 -0.9825
 4525TIP3    H237771   0.810   1.996   5.793 -0.3088  0.6873  0.9045
 4526TIP3   OH237772  -3.307  -1.939   4.566 -0.2105 -0.3945  0.1336
 4526TIP3    H137773  -3.287  -1.972   4.478  0.9339  1.3097 -0.2818
 4526TIP3    H237774  -3.232  -1.967   4.619 -0.4080 -0.5347  0.3402
 4527TIP3   OH237775  -2.703  -3.271   4.176 -0.0091  0.9768  0.4830
 4527TIP3    H137776  -2.784  -3.221   4.189 -0.0702  0.8955  0.4185
 4527TIP3    H237777  -2.678  -3.298   4.264 -0.6158  0.1250  0.4033
 4528TIP3   OH237778  -1.071  -1.114   3.131  0.6324 -0.7384  0.4243
 4528TIP3    H137779  -0.995  -1.150   3.085 -0.5623 -0.7363 -1.6740
 4528TIP3    H237780  -1.114  -1.190   3.171  0.6587 -1.0125 -0.0631
 4529TIP3   OH237781   0.949   1.129   3.679 -0.5774 -0.4828 -0.0434
 4529TIP3    H137782   0.951   1.045   3.724 -1.4194 -0.2399  0.4761
 4529TIP3    H237783   0.878   1.177   3.722 -1.5183 -0.3027 -1.7445
 4530TIP3   OH237784   2.835  -0.857   4.104  0.3418 -0.4825  0.2886
 4530TIP3    H137785   2.805  -0.924   4.044  1.4825 -1.4222  0.7348
 4530TIP3    H237786   2.827  -0.775   4.055 -0.1787 -1.0515 -0.5906
 4531TIP3   OH237787   0.227   2.157   5.207  0.0534  0.0013 -0.0904
 4531TIP3    H137788   0.256   2.068   5.188  1.4669  0.6712 -1.2248
 4531TIP3    H237789   0.181   2.184   5.128 -3.6706 -0.9281  1.5431
 4532TIP3   OH237790  -1.212  -0.333   3.517 -0.5292  0.1234 -0.0668
 4532TIP3    H137791  -1.251  -0.357   3.433 -2.3544  2.9481 -0.1474
 4532TIP3    H237792  -1.153  -0.260   3.496 -0.4030  0.3433  0.9996
 4533TIP3   OH237793   0.589  -1.268   4.304 -0.5997  0.2207 -0.0831
 4533TIP3    H137794   0.586  -1.172   4.299 -0.4540  0.2013 -0.5543
 4533TIP3    H237795   0.507  -1.297   4.264 -0.9409  0.1637  0.6394
 4534TIP3   OH237796   3.226   0.262   3.310 -0.2295  0.0802 -0.3690
 4534TIP3    H137797   3.166   0.307   3.370  1.1302  1.2271  0.2266
 4534TIP3    H237798   3.222   0.313   3.229 -1.2750 -0.8322 -0.8988
 4535TIP3   OH237799  -2.698   2.008   2.623  0.0290  0.1390  0.0393
 4535TIP3    H137800  -2.762   2.079   2.632  0.8093  0.8038  0.4827
 4535TIP3    H237801  -2.637   2.039   2.556  0.2943 -0.1704  0.1329
 4536TIP3   OH237802  -3.262  -2.236   3.033  0.0880 -0.4874 -0.2231
 4536TIP3    H137803  -3.329  -2.232   3.101 -0.6827  1.4873 -1.0343
 4536TIP3    H237804  -3.261  -2.328   3.006 -1.1922 -0.8588  0.8760
 4537TIP3   OH237805  -0.436  -2.717   3.532 -0.1296 -0.3704  0.4451
 4537TIP3    H137806  -0.511  -2.754   3.578  0.6629 -1.9838  0.5331
 4537TIP3    H237807  -0.457  -2.728   3.439 -1.1036  1.5773  0.3908
 4538TIP3   OH237808  -2.996   0.101   3.366  0.0257 -0.5309  0.2756
 4538TIP3    H137809  -3.071   0.093   3.425  0.0181 -0.5378  0.2650
 4538TIP3    H237810  -3.020   0.171   3.305  0.9758  1.1434  1.7114
 4539TIP3   OH237811  -2.030  -1.190   5.370  0.3089  0.0883  0.1123
 4539TIP3    H137812  -2.067  -1.202   5.283 -0.6728  1.2515  0.3337
 4539TIP3    H237813  -2.027  -1.095   5.382 -0.7835 -0.0470  1.8254
 4540TIP3   OH237814   2.888  -2.364   5.158 -0.0718 -0.7209 -0.0365
 4540TIP3    H137815   2.829  -2.406   5.095 -0.1655 -2.3654  1.0619
 4540TIP3    H237816   2.946  -2.310   5.105  0.4993 -2.7978 -1.6516
 4541TIP3   OH237817   2.673   2.736   3.677  0.3435 -0.6487 -0.3111
 4541TIP3    H137818   2.618   2.693   3.742  2.0123 -1.2644  0.7668
 4541TIP3    H237819   2.677   2.675   3.604 -2.6444  0.6225 -1.6908
 4542TIP3   OH237820   1.143   1.771   5.714 -0.6782 -0.2225  0.0936
 4542TIP3    H137821   1.163   1.858   5.748 -1.7991 -0.1618  0.6164
 4542TIP3    H237822   1.148   1.781   5.619  0.2816  0.1357  0.1684
 4543TIP3   OH237823   1.671   0.223   2.775  0.1318 -0.6413 -0.2885
 4543TIP3    H137824   1.745   0.162   2.766  1.1721  0.5536 -0.1280
 4543TIP3    H237825   1.688   0.268   2.857 -0.1504  0.4683 -0.8316
 4544TIP3   OH237826   3.155   1.503   5.398  0.1401  0.1154 -0.6263
 4544TIP3    H137827   3.083   1.561   5.424 -0.1069  0.5746 -2.2058
 4544TIP3    H237828   3.115   1.441   5.337  0.8927 -0.2264 -0.7815
 4545TIP3   OH237829   1.969   1.498   2.924 -0.1249  0.4033  0.0555
 4545TIP3    H137830   1.956   1.546   2.843  0.5226  1.8814  0.7879
 4545TIP3    H237831   2.038   1.435   2.904  1.5859  2.2166 -0.0022
 4546TIP3   OH237832  -1.146  -0.811   4.527 -0.0550 -0.2245  0.5197
 4546TIP3    H137833  -1.064  -0.838   4.568 -0.1377  0.5923  1.2577
 4546TIP3    H237834  -1.213  -0.833   4.592 -0.3855 -0.5798  0.0631
 4547TIP3   OH237835   1.478  -2.810   5.206  0.7409 -0.3174  0.1050
 4547TIP3    H137836   1.555  -2.863   5.181 -1.4743 -3.4097 -0.7650
 4547TIP3    H237837   1.469  -2.746   5.135  0.7270 -2.0491 -1.5548
 4548TIP3   OH237838   3.094   1.113   3.391  0.2509  0.8474  0.5507
 4548TIP3    H137839   3.055   1.124   3.477 -0.9690  0.3501  0.0874
 4548TIP3    H237840   3.021   1.125   3.330  0.6247 -0.8974 -0.3180
 4549TIP3   OH237841  -3.134   2.887   2.326  0.4504  0.2747 -0.0338
 4549TIP3    H137842  -3.147   2.805   2.278  0.0574  1.2323 -1.6302
 4549TIP3    H237843  -3.054   2.872   2.376 -0.1459 -1.4234  0.4974
 4550TIP3   OH237844  -1.465   0.770   4.471  0.7060  0.3121 -0.6718
 4550TIP3    H137845  -1.550   0.792   4.509  0.3875 -0.7120 -0.7564
 4550TIP3    H237846  -1.424   0.855   4.452 -0.3941  0.8188 -0.8485
 4551TIP3   OH237847   0.952   0.575   3.913 -0.6005  0.2455  0.5390
 4551TIP3    H137848   0.980   0.484   3.910 -1.0212  0.0741  1.4082
 4551TIP3    H237849   0.945   0.594   4.007 -0.2502  1.2519  0.3714
 4552TIP3   OH237850   2.617   0.723   4.940 -0.2260 -0.3446 -0.1062
 4552TIP3    H137851   2.696   0.680   4.907  0.6067  0.5465  0.6694
 4552TIP3    H237852   2.643   0.759   5.025 -1.4496  0.0318  0.1225
 4553TIP3   OH237853   2.847   2.129   3.168 -0.4774  0.5189  0.1288
 4553TIP3    H137854   2.941   2.142   3.153 -0.5510  0.9655  0.0528
 4553TIP3    H237855   2.812   2.109   3.081 -0.5951  1.2282  0.0095
 4554TIP3   OH237856   1.854   2.558   4.949 -0.0676  0.0786  0.2178
 4554TIP3    H137857   1.777   2.573   5.003 -0.6119 -0.4975 -0.3822
 4554TIP3    H237858   1.923   2.610   4.990 -1.0982  1.6770  0.0135
 4555TIP3   OH237859   2.481  -3.047   4.390 -0.3518 -0.1346  0.0576
 4555TIP3    H137860   2.428  -2.991   4.447 -0.3049 -0.7939  0.7702
 4555TIP3    H237861   2.418  -3.108   4.351 -0.1366 -0.9248  0.9135
 4556TIP3   OH237862   1.723  -2.453   5.244  0.2367  0.3524  0.0423
 4556TIP3    H137863   1.661  -2.512   5.288  0.5613 -0.7904 -0.9599
 4556TIP3    H237864   1.799  -2.451   5.302  0.3554 -0.5060 -0.0683
 4557TIP3   OH237865   1.844   0.407   3.903 -0.0606  0.0924 -0.0243
 4557TIP3    H137866   1.848   0.445   3.815 -1.1560 -0.8077 -0.4836
 4557TIP3    H237867   1.924   0.438   3.946  0.0584  1.2586 -1.0362
 4558TIP3   OH237868  -0.158   0.298   3.241  0.1585  0.2061 -0.7946
 4558TIP3    H137869  -0.188   0.283   3.151  0.3500  0.9036 -0.9842
 4558TIP3    H237870  -0.224   0.355   3.279 -0.7659 -1.3656  0.0369
 4559TIP3   OH237871  -3.067   2.551   3.609  0.0196 -0.2956  0.4079
 4559TIP3    H137872  -3.021   2.557   3.692 -1.0190  0.1141  0.9687
 4559TIP3    H237873  -3.105   2.638   3.596 -2.4394 -1.2007  1.0699
 4560TIP3   OH237874  -1.307   2.733   5.031 -0.0532  0.4276  0.2236
 4560TIP3    H137875  -1.398   2.736   5.063  0.4891  1.2290  1.7988
 4560TIP3    H237876  -1.312   2.679   4.952 -1.7229 -0.4900  0.8840
 4561TIP3   OH237877   1.438   0.967   3.500 -0.8930  0.0229 -0.1741
 4561TIP3    H137878   1.464   0.885   3.458 -0.4700  0.8297 -1.5744
 4561TIP3    H237879   1.372   0.942   3.564  0.3836 -1.5919  0.5828
 4562TIP3   OH237880  -1.390   3.031   3.775 -0.4223  0.0095  0.5500
 4562TIP3    H137881  -1.458   3.009   3.712 -1.1182 -1.4633  1.7615
 4562TIP3    H237882  -1.333   2.954   3.778  0.1132  0.4116  1.0484
 4563TIP3   OH237883  -0.623  -0.067   1.935 -0.5506  0.4918  0.0876
 4563TIP3    H137884  -0.562  -0.137   1.961 -1.3870  0.6133  2.7138
 4563TIP3    H237885  -0.581   0.014   1.964 -0.9414  0.7751 -0.1334
 4564TIP3   OH237886  -0.736   2.018   5.580  0.4064  0.0921 -0.2638
 4564TIP3    H137887  -0.793   2.002   5.655  0.7362 -0.5722 -0.1463
 4564TIP3    H237888  -0.755   1.947   5.519 -0.6503  1.2365 -1.3138
 4565TIP3   OH237889  -2.730   2.078   6.051 -0.2104  0.1740  0.5988
 4565TIP3    H137890  -2.665   2.143   6.080  0.2780  0.0233 -0.1357
 4565TIP3    H237891  -2.803   2.130   6.018  0.2789  0.3601 -0.2090
 4566TIP3   OH237892   2.121   2.884   4.766 -0.4303  0.7017 -0.5739
 4566TIP3    H137893   2.080   2.844   4.690 -1.2135 -3.5695  1.7441
 4566TIP3    H237894   2.207   2.842   4.772 -0.8536 -0.0219  1.4371
 4567TIP3   OH237895  -1.668   1.590   3.878 -0.1814 -0.1432 -0.4017
 4567TIP3    H137896  -1.659   1.523   3.945 -0.5830  0.8954  0.7307
 4567TIP3    H237897  -1.629   1.551   3.800  0.8041 -1.1874  0.5664
 4568TIP3   OH237898   1.578  -1.249   5.985 -0.4769  0.1617 -0.0200
 4568TIP3    H137899   1.663  -1.288   5.966  0.1301  1.7181 -0.6477
 4568TIP3    H237900   1.515  -1.316   5.959  0.5254 -1.5493  1.6700
 4569TIP3   OH237901   0.762   0.690   5.722  0.2121 -0.1009  0.3213
 4569TIP3    H137902   0.797   0.778   5.736  1.7926 -0.5553 -0.5978
 4569TIP3    H237903   0.667   0.701   5.726  0.3420  1.8486 -0.8315
 4570TIP3   OH237904   0.072  -2.219   3.558 -0.3239 -0.1100 -0.0342
 4570TIP3    H137905   0.165  -2.241   3.551  0.0498  1.3305  0.0680
 4570TIP3    H237906   0.042  -2.211   3.468  0.3120  1.9302 -0.1053
 4571TIP3   OH237907   1.168   3.174   2.895  0.6397  0.6255  0.2532
 4571TIP3    H137908   1.139   3.233   2.825 -0.5145 -0.6663 -0.4071
 4571TIP3    H237909   1.180   3.231   2.971 -2.2460  1.5417  0.1602
 4572TIP3   OH237910  -1.312  -0.378   4.527  0.0315  0.1600  0.3058
 4572TIP3    H137911  -1.225  -0.414   4.542  0.5301  0.8676 -0.7657
 4572TIP3    H237912  -1.298  -0.283   4.526 -0.7948  0.2877  0.3458
 4573TIP3   OH237913  -1.540  -2.758   2.273  0.0009  0.2800  0.6049
 4573TIP3    H137914  -1.491  -2.777   2.194  0.6259  2.2354  0.4607
 4573TIP3    H237915  -1.486  -2.693   2.320 -1.0123  0.2103  1.9337
 4574TIP3   OH237916   0.131  -1.193   5.623  0.3321 -0.0820 -0.2088
 4574TIP3    H137917   0.084  -1.265   5.665  0.8532 -0.4491 -0.2425
 4574TIP3    H237918   0.211  -1.233   5.590  2.4153  1.1536  2.9126
 4575TIP3   OH237919   1.312   2.885   3.202  0.6205  0.1560  0.5920
 4575TIP3    H137920   1.252   2.843   3.140  0.6905 -1.7291  1.6952
 4575TIP3    H237921   1.281   2.856   3.288  3.1720 -1.0547  1.1912
 4576TIP3   OH237922  -3.260  -0.601   3.758 -0.1335 -0.4802 -0.4373
 4576TIP3    H137923  -3.353  -0.584   3.777  0.0733  2.1329 -1.3381
 4576TIP3    H237924  -3.245  -0.558   3.673  1.9064 -0.8669 -0.3174
 4577TIP3   OH237925   2.498  -1.594   5.834  0.0636 -0.2488  0.0240
 4577TIP3    H137926   2.581  -1.636   5.811  0.2590  1.1397 -2.0651
 4577TIP3    H237927   2.493  -1.517   5.778 -2.6420 -0.2652  0.0791
 4578TIP3   OH237928   2.107   1.586   3.872 -0.2212 -0.3349  0.2780
 4578TIP3    H137929   2.125   1.653   3.939 -2.4805  0.0941  0.5530
 4578TIP3    H237930   2.047   1.525   3.916  1.0439 -2.0589 -0.2816
 4579TIP3   OH237931  -0.711   2.640   2.923  0.2246  0.5968  0.1620
 4579TIP3    H137932  -0.629   2.610   2.962 -0.0976  0.8174  1.0276
 4579TIP3    H237933  -0.710   2.602   2.835  2.3364  2.4861 -0.7230
 4580TIP3   OH237934  -1.824  -2.600   4.489  0.2575 -0.3620 -0.2145
 4580TIP3    H137935  -1.908  -2.592   4.444  0.2004  2.6975  0.2115
 4580TIP3    H237936  -1.759  -2.578   4.422  0.5547 -0.5446  0.0133
 4581TIP3   OH237937  -2.044   3.168   4.247  0.3538 -0.7167  0.5262
 4581TIP3    H137938  -2.067   3.088   4.295 -0.6091 -0.6678  0.1615
 4581TIP3    H237939  -2.128   3.210   4.229  0.8052 -0.0120  0.0323
 4582TIP3   OH237940   3.352  -1.839   2.826 -0.1784  0.3739  0.8708
 4582TIP3    H137941   3.305  -1.766   2.786  2.2143  0.8507 -1.3724
 4582TIP3    H237942   3.335  -1.913   2.769 -1.2794 -0.5017  2.2467
 4583TIP3   OH237943   0.591  -3.213   4.460 -0.4741 -0.2378  0.7684
 4583TIP3    H137944   0.595  -3.307   4.442  0.1381 -0.1536  0.4450
 4583TIP3    H237945   0.510  -3.184   4.418  0.8458 -0.0601 -1.8364
 4584TIP3   OH237946   1.536   0.668   4.307 -0.2761 -0.3551  0.5513
 4584TIP3    H137947   1.584   0.666   4.390 -0.1687 -0.9790  0.4739
 4584TIP3    H237948   1.559   0.587   4.263  1.3468  0.8766 -1.0481
 4585TIP3   OH237949   2.611  -1.103   3.735  0.2199 -0.2004  0.0301
 4585TIP3    H137950   2.543  -1.085   3.799 -0.3864 -1.2226 -0.3026
 4585TIP3    H237951   2.630  -1.018   3.695 -1.2702  0.0063 -0.2791
 4586TIP3   OH237952   3.276   1.539   2.917  0.2797  1.0747 -0.5162
 4586TIP3    H137953   3.210   1.497   2.971  0.3544 -0.9589 -1.8907
 4586TIP3    H237954   3.352   1.551   2.975  0.6550 -1.7880 -0.2888
 4587TIP3   OH237955   3.120   0.635   4.083 -0.1728 -0.4574 -0.8128
 4587TIP3    H137956   3.199   0.583   4.099  0.7760  0.7472 -1.3595
 4587TIP3    H237957   3.068   0.582   4.023  1.1414 -0.4750 -2.0017
 4588TIP3   OH237958   2.543  -2.400   5.142 -0.0053 -0.0646  0.0061
 4588TIP3    H137959   2.595  -2.368   5.216  0.1468  2.7394 -1.1858
 4588TIP3    H237960   2.605  -2.449   5.089  0.8588  1.1159 -0.1254
 4589TIP3   OH237961  -0.863   2.701   5.541 -0.1037 -0.1562 -0.0216
 4589TIP3    H137962  -0.770   2.703   5.517  0.4755 -2.1436  1.7552
 4589TIP3    H237963  -0.898   2.626   5.493 -1.1226  1.2267 -1.5419
 4590TIP3   OH237964   0.510   2.118   5.622  0.5331  0.0070  0.4049
 4590TIP3    H137965   0.468   2.200   5.646  0.7198  0.3441 -0.4112
 4590TIP3    H237966   0.589   2.115   5.677  0.9701  0.7859 -0.1595
 4591TIP3   OH237967  -2.127  -0.701   5.536 -0.0310  0.2536  0.1470
 4591TIP3    H137968  -2.218  -0.729   5.547  0.4082 -2.2457 -1.8751
 4591TIP3    H237969  -2.078  -0.751   5.602 -0.0042  1.2316  0.9021
 4592TIP3   OH237970   1.232   3.279   4.707  0.4565  0.3338  0.6143
 4592TIP3    H137971   1.308   3.224   4.725 -0.7979 -2.2184 -1.2864
 4592TIP3    H237972   1.169   3.256   4.775  0.3729  0.3303  0.5350
 4593TIP3   OH237973   0.922   0.529   4.743 -0.8742  0.6766  0.1623
 4593TIP3    H137974   0.833   0.561   4.730 -0.4169  1.8210 -0.2463
 4593TIP3    H237975   0.972   0.605   4.774  0.3723  0.5851 -1.4306
 4594TIP3   OH237976   1.209   2.511   5.029 -0.6663  0.1623 -0.8194
 4594TIP3    H137977   1.173   2.451   4.963 -0.2330  0.3487 -1.2341
 4594TIP3    H237978   1.137   2.527   5.089 -0.4587 -1.7442 -0.0001
 4595TIP3   OH237979  -0.529   1.880   4.034 -0.5946 -0.2647  0.5299
 4595TIP3    H137980  -0.440   1.907   4.057  0.4784 -1.0599 -2.2715
 4595TIP3    H237981  -0.520   1.789   4.004 -2.4534 -0.5288  0.6328
 4596TIP3   OH237982   3.341   2.349   4.902 -0.4870  0.7710 -0.5784
 4596TIP3    H137983   3.340   2.265   4.857  0.4847  0.7324 -0.5456
 4596TIP3    H237984   3.263   2.394   4.871 -0.4829  0.2532 -1.3522
 4597TIP3   OH237985  -2.608   1.504   3.529 -0.3539  0.0821 -0.2497
 4597TIP3    H137986  -2.590   1.493   3.622 -0.1628  0.2014 -0.2717
 4597TIP3    H237987  -2.700   1.479   3.519 -0.3274 -0.0918 -0.0584
 4598TIP3   OH237988  -1.364   2.977   5.402  0.2812 -0.1148  0.5692
 4598TIP3    H137989  -1.306   2.983   5.327 -0.7709  1.7833 -0.1722
 4598TIP3    H237990  -1.426   2.908   5.379  1.0068 -0.7574  0.4935
 4599TIP3   OH237991   2.898  -3.250   4.138 -0.3149 -0.9625 -0.2553
 4599TIP3    H137992   2.819  -3.252   4.192 -0.3677 -0.2298 -0.2990
 4599TIP3    H237993   2.969  -3.229   4.200 -0.0244 -2.3851 -0.0730
 4600TIP3   OH237994   0.553  -2.485   4.896 -0.1299  0.4276  0.5601
 4600TIP3    H137995   0.465  -2.452   4.910 -0.1356  0.0672  1.4269
 4600TIP3    H237996   0.547  -2.534   4.814 -0.9572 -0.3184  1.0423
 4601TIP3   OH237997  -1.042  -0.463   4.020  0.7276  0.7182 -0.1051
 4601TIP3    H137998  -1.106  -0.444   3.951  0.6370 -0.4012 -0.3595
 4601TIP3    H237999  -1.093  -0.465   4.101  0.1369 -1.4022 -0.4465
 4602TIP3   OH238000   1.170   2.955   3.865  0.3049  0.0536 -0.2392
 4602TIP3    H138001   1.119   3.034   3.849  1.2681  0.2211 -2.8202
 4602TIP3    H238002   1.110   2.898   3.915 -1.2779  1.4064 -0.4949
 4603TIP3   OH238003  -2.967   3.163   5.495  0.0538  0.3316  0.4688
 4603TIP3    H138004  -3.051   3.206   5.511  0.0478  0.1875  0.8538
 4603TIP3    H238005  -2.990   3.071   5.481 -0.0186  0.5689 -1.2103
 4604TIP3   OH238006  -1.254  -0.201   5.598  0.3296  0.0034  0.0282
 4604TIP3    H138007  -1.167  -0.183   5.562  0.9041  0.7912  1.7049
 4604TIP3    H238008  -1.241  -0.280   5.652 -0.1083 -0.1386 -0.0696
 4605TIP3   OH238009  -1.215  -1.817   4.884  0.1727  0.8857 -0.2342
 4605TIP3    H138010  -1.229  -1.788   4.794  0.4196 -0.0416 -0.5864
 4605TIP3    H238011  -1.295  -1.794   4.930  0.2113  1.7454 -0.5835
 4606TIP3   OH238012   0.679  -1.906   4.193  0.1462 -0.2538  0.0394
 4606TIP3    H138013   0.700  -1.999   4.207  0.9278  0.0041  0.7374
 4606TIP3    H238014   0.609  -1.888   4.256  0.5397 -0.1914  0.4697
 4607TIP3   OH238015   2.199  -3.191   4.795 -0.1345 -0.3587  0.4500
 4607TIP3    H138016   2.137  -3.170   4.864 -1.1059 -3.6334  0.7473
 4607TIP3    H238017   2.146  -3.198   4.716  0.3031 -0.5860  0.1742
 4608TIP3   OH238018   1.837  -0.006   2.725  0.9961 -0.0962 -0.0251
 4608TIP3    H138019   1.842  -0.026   2.632  2.1016  0.2032 -0.0520
 4608TIP3    H238020   1.785  -0.077   2.763  0.7200 -0.3328 -0.8325
 4609TIP3   OH238021   1.405   0.833   5.666 -0.1126  0.7541  0.1115
 4609TIP3    H138022   1.335   0.769   5.660  1.0071 -0.4807 -0.2856
 4609TIP3    H238023   1.482   0.782   5.693  0.1235  2.4414  3.1049
 4610TIP3   OH238024  -0.754  -2.951   4.685 -0.1982 -0.1784  0.1555
 4610TIP3    H138025  -0.681  -2.997   4.725 -0.1044 -1.1777 -1.1059
 4610TIP3    H238026  -0.808  -3.020   4.646 -2.8861  0.3103  2.6382
 4611TIP3   OH238027   0.064  -3.019   5.627  0.0165  0.4590  0.1776
 4611TIP3    H138028   0.006  -3.024   5.550  1.1885 -1.5828 -0.6517
 4611TIP3    H238029   0.053  -2.930   5.659 -2.6696  0.5177 -0.6570
 4612TIP3   OH238030  -2.693  -1.637   3.586  0.2416 -0.0520  0.2112
 4612TIP3    H138031  -2.612  -1.648   3.636 -0.2091 -1.4842  0.6797
 4612TIP3    H238032  -2.762  -1.666   3.646 -0.7608  2.1470  0.1995
 4613TIP3   OH238033   1.301   0.093   3.349 -0.1111  0.4320  0.1760
 4613TIP3    H138034   1.311   0.177   3.393  0.4305  1.5144 -1.9051
 4613TIP3    H238035   1.259   0.113   3.266  2.0215 -0.9794 -1.3629
 4614TIP3   OH238036  -1.333  -2.527   4.206  0.4743  0.0108 -0.3451
 4614TIP3    H138037  -1.393  -2.472   4.156  0.1644  0.8059  0.8570
 4614TIP3    H238038  -1.291  -2.582   4.140  0.2147  1.1353 -1.4907
 4615TIP3   OH238039  -1.061   1.307   3.994 -0.5352 -0.1865 -0.5770
 4615TIP3    H138040  -1.127   1.332   3.930 -2.1002  0.8910  1.3568
 4615TIP3    H238041  -1.097   1.230   4.038  0.6579 -1.1068 -1.1398
 4616TIP3   OH238042   0.761   2.401   3.289 -0.3009  0.2755  0.0401
 4616TIP3    H138043   0.825   2.330   3.294 -0.2258  0.2825 -0.7329
 4616TIP3    H238044   0.814   2.480   3.280 -0.4023  0.3716  0.2723
 4617TIP3   OH238045  -1.763  -0.505   4.078  0.5039 -0.5269 -0.4055
 4617TIP3    H138046  -1.780  -0.441   4.148  3.2740 -1.3171  1.1632
 4617TIP3    H238047  -1.826  -0.483   4.009 -1.2347  1.3926  1.6210
 4618TIP3   OH238048  -0.708   0.590   3.223  0.0720  0.4545  0.4401
 4618TIP3    H138049  -0.798   0.608   3.194 -0.5482 -2.1772  0.5017
 4618TIP3    H238050  -0.670   0.538   3.152  1.1823  0.5438  0.9427
 4619TIP3   OH238051   2.501  -0.638   3.742  0.2932 -0.0014  0.5807
 4619TIP3    H138052   2.433  -0.644   3.809 -0.8867 -1.9025 -0.6819
 4619TIP3    H238053   2.546  -0.722   3.746 -0.6588 -0.7115 -1.7825
 4620TIP3   OH238054   3.104   0.339   2.062  0.4769  0.2516  0.8575
 4620TIP3    H138055   3.178   0.278   2.057 -0.1120 -0.4070 -0.1142
 4620TIP3    H238056   3.101   0.382   1.977 -2.6848 -2.7083 -0.7721
 4621TIP3   OH238057   1.784  -2.961   4.957 -0.2571 -0.2439 -0.5752
 4621TIP3    H138058   1.833  -2.904   5.016 -0.9830 -1.3428  1.1718
 4621TIP3    H238059   1.699  -2.973   5.000 -0.5955 -1.5948 -1.5415
 4622TIP3   OH238060   0.152  -2.945   4.435 -0.0874 -0.0622  0.1597
 4622TIP3    H138061   0.145  -3.004   4.359  0.6261 -0.0614  0.0847
 4622TIP3    H238062   0.094  -2.872   4.413 -1.0862 -0.7970  0.3146
 4623TIP3   OH238063  -2.235   3.370   5.396 -0.0462 -0.0074 -0.5851
 4623TIP3    H138064  -2.291   3.293   5.390  0.3684 -0.3328 -0.2846
 4623TIP3    H238065  -2.224   3.384   5.490  0.9173 -0.3366 -0.6393
 4624TIP3   OH238066  -0.205   0.385   3.550  0.0953  0.0005  0.1000
 4624TIP3    H138067  -0.113   0.372   3.527 -0.3207 -1.6508 -0.7107
 4624TIP3    H238068  -0.238   0.447   3.485  0.8854  1.5577  1.1051
 4625TIP3   OH238069  -2.574   3.261   5.883 -0.8847  0.1846 -0.0604
 4625TIP3    H138070  -2.572   3.230   5.793  0.0382  0.6651 -0.2145
 4625TIP3    H238071  -2.634   3.336   5.881  0.2833  1.1490 -0.6129
 4626TIP3   OH238072  -0.571  -1.399   4.874 -0.1002  0.0245 -0.1741
 4626TIP3    H138073  -0.597  -1.327   4.931 -1.3731  1.2092 -2.1227
 4626TIP3    H238074  -0.476  -1.402   4.880  0.0163  2.1573 -0.3228
 4627TIP3   OH238075   1.428   1.967   4.522  0.0075 -0.3650  0.1274
 4627TIP3    H138076   1.491   2.033   4.550 -0.3024  0.0321 -0.1121
 4627TIP3    H238077   1.482   1.893   4.492  0.4345  0.7293 -1.9866
 4628TIP3   OH238078  -2.375  -1.919   5.040 -0.2235  0.2244 -0.2216
 4628TIP3    H138079  -2.318  -1.893   5.112 -0.4979 -0.0183  0.0860
 4628TIP3    H238080  -2.327  -1.893   4.961  0.6149 -0.5696  0.0038
 4629TIP3   OH238081  -2.643   1.601   5.343 -0.8254 -0.4003 -1.0027
 4629TIP3    H138082  -2.719   1.588   5.286 -1.7005 -0.9800  0.2531
 4629TIP3    H238083  -2.661   1.682   5.390 -0.8156 -0.6979 -0.4779
 4630TIP3   OH238084  -1.329  -0.473   2.600 -0.0646 -0.0483 -0.0219
 4630TIP3    H138085  -1.325  -0.422   2.519  0.2877 -0.1762 -0.0871
 4630TIP3    H238086  -1.412  -0.448   2.641  0.2931  0.8931  0.1516
 4631TIP3   OH238087   0.754   2.462   5.504  0.7236 -0.3721  0.0261
 4631TIP3    H138088   0.704   2.490   5.427 -1.9916  1.2283  2.1626
 4631TIP3    H238089   0.769   2.543   5.553  0.7358 -1.5322  2.0517
 4632TIP3   OH238090  -2.705   2.406   5.804  0.0403  0.1512  0.0976
 4632TIP3    H138091  -2.698   2.479   5.867  1.5600 -0.3528  0.5633
 4632TIP3    H238092  -2.630   2.350   5.824 -0.8586 -1.3374 -0.5407
 4633TIP3   OH238093   1.116   3.358   4.465 -0.2237 -0.0060 -1.2310
 4633TIP3    H138094   1.129   3.336   4.557 -0.5175 -1.9006 -1.5907
 4633TIP3    H238095   1.088   3.450   4.466 -1.7953 -0.4235  0.6947
 4634TIP3   OH238096   2.506   0.060   3.671 -0.1032 -0.5692  0.1667
 4634TIP3    H138097   2.477   0.088   3.584 -2.3091 -1.6194  0.4960
 4634TIP3    H238098   2.510   0.141   3.722  1.8091  0.1424 -1.0159
 4635TIP3   OH238099  -1.710  -0.746   2.546  0.2944 -0.2784 -0.1638
 4635TIP3    H138100  -1.721  -0.827   2.495 -0.5836 -1.7116  2.1249
 4635TIP3    H238101  -1.789  -0.695   2.527  1.2348  0.4981 -2.2653
 4636TIP3   OH238102   1.164  -0.525   4.877 -0.5237  0.2920 -0.3625
 4636TIP3    H138103   1.211  -0.442   4.866  0.2460  0.0636  1.0067
 4636TIP3    H238104   1.183  -0.552   4.966 -4.3248  0.8495  0.8193
 4637TIP3   OH238105  -1.425   1.016   5.010 -0.3466 -0.2042 -0.1003
 4637TIP3    H138106  -1.369   0.943   4.984  1.3188  0.0488  2.4999
 4637TIP3    H238107  -1.428   1.073   4.932 -2.6355 -3.4072 -2.6434
 4638TIP3   OH238108  -0.035   2.601   3.453  0.2617 -0.1701 -0.6543
 4638TIP3    H138109   0.053   2.597   3.490 -0.3360 -2.6493  0.7693
 4638TIP3    H238110  -0.027   2.562   3.366  0.6871  0.3970 -0.8746
 4639TIP3   OH238111  -1.366   1.229   3.883  0.0332 -0.2447 -0.0818
 4639TIP3    H138112  -1.370   1.293   3.811 -0.9721 -0.2420 -0.0446
 4639TIP3    H238113  -1.417   1.155   3.851 -0.3255 -0.2856  0.5850
 4640TIP3   OH238114  -1.822   2.124   4.283 -0.1694  0.1521 -0.5631
 4640TIP3    H138115  -1.895   2.173   4.246  1.7605  1.4870 -2.8351
 4640TIP3    H238116  -1.806   2.054   4.219  1.1347  0.4672 -0.5954
 4641TIP3   OH238117  -2.557   1.789   3.281  0.0982  0.5229 -0.3294
 4641TIP3    H138118  -2.481   1.733   3.265 -0.2887 -0.2411  0.4494
 4641TIP3    H238119  -2.520   1.875   3.303  0.7213  0.1926 -0.0807
 4642TIP3   OH238120  -1.699  -1.183   4.586  0.1096 -0.2460  0.1198
 4642TIP3    H138121  -1.764  -1.154   4.522  0.8839 -3.0936 -2.1328
 4642TIP3    H238122  -1.712  -1.124   4.660 -2.7439  1.4429 -1.5138
 4643TIP3   OH238123   1.876   1.873   3.049 -0.2484  0.4330  0.1298
 4643TIP3    H138124   1.866   1.824   2.967  0.1056 -1.3262  1.0847
 4643TIP3    H238125   1.965   1.907   3.046  0.1846 -0.6302  0.2642
 4644TIP3   OH238126  -0.429  -0.074   4.872 -0.5985 -0.1504  0.1023
 4644TIP3    H138127  -0.335  -0.060   4.882 -0.5341 -1.2006  1.1495
 4644TIP3    H238128  -0.463   0.013   4.849  0.5636  0.3320  0.1134
 4645TIP3   OH238129  -1.584  -2.138   2.302 -0.3122  0.2761  0.2401
 4645TIP3    H138130  -1.634  -2.209   2.260 -1.4551  0.9375  0.4395
 4645TIP3    H238131  -1.523  -2.108   2.235 -2.1173  1.3279 -1.0107
 4646TIP3   OH238132   0.646   1.972   4.776 -0.0180 -0.0938 -0.2986
 4646TIP3    H138133   0.613   1.963   4.686 -1.2611  0.8530  0.0264
 4646TIP3    H238134   0.575   1.937   4.830  1.0309 -1.3531  0.3019
 4647TIP3   OH238135   0.139  -1.815   5.159 -0.3484  0.0233  0.3478
 4647TIP3    H138136   0.193  -1.893   5.160 -0.0528  0.0846 -2.4207
 4647TIP3    H238137   0.056  -1.844   5.121 -0.5350  0.8600  0.0938
 4648TIP3   OH238138  -2.602   2.359   3.439 -0.2442 -0.2172  0.1946
 4648TIP3    H138139  -2.560   2.287   3.487  0.0052  0.4197  0.9489
 4648TIP3    H238140  -2.637   2.416   3.507 -2.8195 -0.9584 -0.3935
 4649TIP3   OH238141  -1.729   3.098   5.913  0.2514 -0.1189  0.0714
 4649TIP3    H138142  -1.802   3.036   5.922  1.8322 -1.7702  2.4403
 4649TIP3    H238143  -1.659   3.047   5.873  1.5891  0.0738  2.0647
 4650TIP3   OH238144  -0.003  -2.722   4.368  0.1216 -0.1236  0.8337
 4650TIP3    H138145   0.025  -2.634   4.392  1.9196 -0.0675 -1.2206
 4650TIP3    H238146  -0.016  -2.719   4.274 -0.8447 -1.7970  0.8771
 4651TIP3   OH238147  -0.282   2.350   3.746 -0.2467 -0.5464 -0.0377
 4651TIP3    H138148  -0.234   2.289   3.802 -0.6666 -0.1654  0.7528
 4651TIP3    H238149  -0.358   2.376   3.798 -0.5235 -0.0062 -0.6979
 4652TIP3   OH238150   1.059  -3.102   4.603 -0.3113 -0.1462  0.0856
 4652TIP3    H138151   1.022  -3.177   4.651 -3.5456 -0.7142 -2.8794
 4652TIP3    H238152   0.988  -3.074   4.545  2.3888  2.2187 -2.3317
 4653TIP3   OH238153  -3.029   2.616   4.081  0.4232 -0.1285  0.4176
 4653TIP3    H138154  -2.994   2.660   4.159 -1.2578  0.3527  0.9617
 4653TIP3    H238155  -3.075   2.685   4.034 -0.7790 -0.9294  0.3728
 4654TIP3   OH238156   0.359   0.319   4.595  0.4838 -0.1801  0.3195
 4654TIP3    H138157   0.424   0.250   4.582  0.6940 -0.5274  2.7946
 4654TIP3    H238158   0.279   0.274   4.621  0.3227  0.4401  0.9425
 4655TIP3   OH238159   0.721  -0.446   5.543  0.4195  0.3344 -0.2420
 4655TIP3    H138160   0.736  -0.491   5.626 -0.6032 -0.0427 -0.2400
 4655TIP3    H238161   0.759  -0.359   5.555 -0.1012  0.4376  0.7834
 4656TIP3   OH238162   1.965   0.519   5.423 -0.5990 -0.5187  0.1431
 4656TIP3    H138163   1.871   0.519   5.441 -0.6694  0.5006 -0.1837
 4656TIP3    H238164   2.006   0.519   5.509 -0.8977 -0.8637  0.2877
 4657TIP3   OH238165   1.376   2.621   5.574 -0.6048 -0.2768  0.3335
 4657TIP3    H138166   1.327   2.544   5.546 -1.7116  0.5976 -0.2231
 4657TIP3    H238167   1.440   2.635   5.504 -1.5305  0.2756 -0.4358
 4658TIP3   OH238168  -0.584   0.625   4.133  0.2534 -0.2490  0.2380
 4658TIP3    H138169  -0.557   0.534   4.123 -2.1143 -0.8955 -1.0547
 4658TIP3    H238170  -0.502   0.672   4.149  1.9414 -2.2118 -1.8736
 4659TIP3   OH238171  -2.439   0.988   3.954  0.1705  0.0341 -0.3148
 4659TIP3    H138172  -2.484   0.940   3.885  0.1051  0.5928 -0.6662
 4659TIP3    H238173  -2.507   1.043   3.994  0.0559 -0.7865  0.6538
 4660TIP3   OH238174   2.649   0.173   5.287 -0.4130  0.1557  0.5653
 4660TIP3    H138175   2.631   0.222   5.207 -0.0430  0.3516  0.5996
 4660TIP3    H238176   2.596   0.216   5.354 -1.3195 -0.4839  0.2746
 4661TIP3   OH238177  -0.138  -1.436   4.491  0.0192  0.4226  0.3066
 4661TIP3    H138178  -0.183  -1.520   4.497 -0.1518  0.5437  0.7947
 4661TIP3    H238179  -0.182  -1.381   4.556  1.4625  0.2565  1.5010
 4662TIP3   OH238180  -1.334  -0.364   2.343 -0.6339  0.1137 -0.1630
 4662TIP3    H138181  -1.413  -0.361   2.289 -0.9443  2.2871  0.2866
 4662TIP3    H238182  -1.270  -0.313   2.293  0.0279 -0.4350  0.1240
 4663TIP3   OH238183   2.176  -0.140   5.074  0.1091  0.1392 -0.6453
 4663TIP3    H138184   2.202  -0.114   4.985  0.6480  0.5015 -0.3851
 4663TIP3    H238185   2.083  -0.159   5.067 -0.0164  0.8885 -1.1258
 4664TIP3   OH238186   1.279  -1.583   3.670  0.6539  0.6698  0.0478
 4664TIP3    H138187   1.291  -1.652   3.735  0.4369 -0.3783 -0.9724
 4664TIP3    H238188   1.368  -1.551   3.652  0.5747  2.2631  2.1356
 4665TIP3   OH238189   1.457  -2.538   4.768  0.3533  0.1363  0.0731
 4665TIP3    H138190   1.394  -2.468   4.753  1.5377  1.1673 -0.3173
 4665TIP3    H238191   1.536  -2.510   4.722  0.3678 -2.2852 -1.5888
 4666TIP3   OH238192   2.994  -3.057   3.815 -0.5523  0.7992 -0.7415
 4666TIP3    H138193   3.033  -2.970   3.821  1.3117 -0.0525  1.2293
 4666TIP3    H238194   2.942  -3.066   3.895 -2.0134  0.6292 -1.6754
 4667TIP3   OH238195   3.347  -1.749   5.658 -0.2825 -0.4538 -0.2830
 4667TIP3    H138196   3.427  -1.735   5.607  0.0190 -0.8709  0.0711
 4667TIP3    H238197   3.349  -1.679   5.723 -0.1223 -0.5614 -0.1715
 4668TIP3   OH238198   2.082  -1.165   5.308  0.5341  0.0017  0.1884
 4668TIP3    H138199   2.068  -1.253   5.272 -0.7803  0.2431  0.0766
 4668TIP3    H238200   2.003  -1.117   5.286  0.9489  1.0239  0.8527
 4669TIP3   OH238201   0.299   2.987   4.645  0.1377  1.2277  0.1508
 4669TIP3    H138202   0.211   3.024   4.655 -0.0928  1.2856 -1.7767
 4669TIP3    H238203   0.285   2.895   4.623  0.5579  1.1662  0.1319
 4670TIP3   OH238204   3.026   0.281   2.316 -0.4130 -0.3958 -0.0215
 4670TIP3    H138205   3.056   0.302   2.228  0.8166  0.5659  0.6022
 4670TIP3    H238206   2.955   0.217   2.303  0.9272 -1.6383 -1.6223
 4671TIP3   OH238207   2.940   1.819   5.614 -0.3712  0.1108  0.2643
 4671TIP3    H138208   2.894   1.895   5.577  0.5257  0.0430 -1.0554
 4671TIP3    H238209   2.934   1.752   5.547  2.2006  0.3238 -0.2900
 4672TIP3   OH238210   1.678   2.547   5.765  0.1427  0.1808 -0.2418
 4672TIP3    H138211   1.585   2.569   5.772  0.2877  0.4823  0.7735
 4672TIP3    H238212   1.721   2.600   5.831  0.9273 -0.6382 -0.0718
 4673TIP3   OH238213   1.343  -0.013   3.023 -0.2830  0.4143 -0.5760
 4673TIP3    H138214   1.273   0.050   3.042  1.1473  2.0339 -0.4449
 4673TIP3    H238215   1.424   0.035   3.039  0.8940 -1.1378 -1.5548
 4674TIP3   OH238216   3.010   3.026   3.764 -0.0097  0.8655  0.2997
 4674TIP3    H138217   2.944   2.959   3.784  0.1681  0.6535  0.1904
 4674TIP3    H238218   3.004   3.089   3.835 -0.7187  1.1481 -0.0051
 4675TIP3   OH238219   0.382  -1.399   5.165 -0.3475 -0.2108  0.3544
 4675TIP3    H138220   0.393  -1.345   5.243  0.3975 -1.1518  0.9137
 4675TIP3    H238221   0.316  -1.463   5.189 -1.1020  0.3217 -0.2527
 4676TIP3   OH238222   1.082  -0.225   2.565 -0.1489 -0.1510  0.4722
 4676TIP3    H138223   1.163  -0.276   2.561  0.3245  0.6163 -0.3490
 4676TIP3    H238224   1.018  -0.284   2.604  0.1007 -1.7414 -1.3634
 4677TIP3   OH238225  -1.537   2.858   4.331  0.1919  0.0533 -0.5444
 4677TIP3    H138226  -1.563   2.950   4.342  1.0917  0.5010 -1.9568
 4677TIP3    H238227  -1.502   2.833   4.416  2.1893  1.7944 -0.7758
 4678TIP3   OH238228   1.260   3.029   4.469  0.2252 -0.6322  0.1916
 4678TIP3    H138229   1.270   3.009   4.562 -0.0143  1.2798  0.6841
 4678TIP3    H238230   1.166   3.020   4.452 -0.2671  2.0127  0.9917
 4679TIP3   OH238231   3.283   2.544   2.887 -0.2243  0.0644  0.0766
 4679TIP3    H138232   3.303   2.451   2.886  3.2960  0.6440  1.6070
 4679TIP3    H238233   3.324   2.579   2.807  1.6419  0.6911  1.2238
 4680TIP3   OH238234  -0.769  -0.055   3.579  0.0471  0.4319  0.6670
 4680TIP3    H138235  -0.823  -0.070   3.658  0.2034 -1.8500  0.4052
 4680TIP3    H238236  -0.688  -0.103   3.596  0.8573  1.4616 -0.1537
 4681TIP3   OH238237  -1.523   1.357   4.985  0.2402 -0.5770 -0.1190
 4681TIP3    H138238  -1.448   1.328   4.933 -0.4983 -1.8468 -0.5328
 4681TIP3    H238239  -1.579   1.403   4.923 -0.5460 -1.9184 -0.4462
 4682TIP3   OH238240   0.193   2.130   3.953  0.0940  0.3832 -0.4793
 4682TIP3    H138241   0.251   2.123   3.876 -0.9558  0.6037 -1.3121
 4682TIP3    H238242   0.111   2.089   3.925 -0.0427 -0.2752  0.8188
 4683TIP3   OH238243   2.941  -0.309   4.221  0.4179 -0.3181 -0.6252
 4683TIP3    H138244   2.951  -0.399   4.189 -1.4328 -0.6734 -0.3012
 4683TIP3    H238245   2.851  -0.285   4.199  1.6315  2.5591 -3.3432
 4684TIP3   OH238246  -2.688  -1.850   4.794 -0.1784 -0.1207 -0.4465
 4684TIP3    H138247  -2.643  -1.779   4.747  0.1445 -0.7817 -1.1628
 4684TIP3    H238248  -2.766  -1.867   4.742 -0.2180 -0.3379 -0.3151
 4685TIP3   OH238249   3.171  -1.153   2.180  0.0671 -0.2075  0.1482
 4685TIP3    H138250   3.089  -1.195   2.207  0.3157 -1.6472 -1.1986
 4685TIP3    H238251   3.148  -1.103   2.102  0.2531  0.2632  0.3925
 4686TIP3   OH238252   1.275  -1.755   3.022  0.0104 -0.3344 -0.2841
 4686TIP3    H138253   1.314  -1.716   3.101  1.4193 -2.7380  0.3076
 4686TIP3    H238254   1.187  -1.781   3.049  0.1947 -0.4202  0.2527
 4687TIP3   OH238255  -2.252  -3.209   3.248 -0.7011 -0.1464 -0.3110
 4687TIP3    H138256  -2.325  -3.233   3.192 -0.8719 -0.1476 -0.0859
 4687TIP3    H238257  -2.194  -3.286   3.246 -1.1793 -0.5341  0.2939
 4688TIP3   OH238258  -0.169  -2.709   3.725 -0.0128 -0.1927  0.3487
 4688TIP3    H138259  -0.129  -2.636   3.677 -1.0460  0.0199 -0.2324
 4688TIP3    H238260  -0.252  -2.725   3.679 -1.0348 -0.0137  2.0451
 4689TIP3   OH238261   2.015  -2.750   4.308  0.1226  0.2978 -0.2486
 4689TIP3    H138262   1.935  -2.722   4.352 -0.8133 -1.7080 -0.5691
 4689TIP3    H238263   2.019  -2.844   4.323  2.6173  0.3774  0.0116
 4690TIP3   OH238264  -2.314   2.252   4.360 -0.5923 -0.1180  0.4053
 4690TIP3    H138265  -2.286   2.275   4.271  1.3229 -0.9642  0.7500
 4690TIP3    H238266  -2.242   2.280   4.416 -0.8265 -1.5112  1.4616
 4691TIP3   OH238267  -0.320   0.963   4.874 -0.2774 -0.3080 -0.1012
 4691TIP3    H138268  -0.319   0.880   4.922 -2.0292 -1.7159 -2.2841
 4691TIP3    H238269  -0.321   1.030   4.942  0.3563 -2.0551  1.7549
 4692TIP3   OH238270  -2.474  -2.183   5.300  0.2762 -0.1730  0.3113
 4692TIP3    H138271  -2.421  -2.219   5.229  1.1259  2.2732 -0.3905
 4692TIP3    H238272  -2.447  -2.233   5.377  1.5438 -0.8651 -0.5353
 4693TIP3   OH238273   2.700  -0.199   4.238  0.2119  0.1781  0.2490
 4693TIP3    H138274   2.665  -0.126   4.186 -2.0313 -0.5179  0.6743
 4693TIP3    H238275   2.696  -0.168   4.328 -4.2201 -1.5285  0.8944
 4694TIP3   OH238276   1.535   0.140   5.391  0.4295  0.0829  0.4545
 4694TIP3    H138277   1.584   0.197   5.451 -0.9890  1.4591  0.3877
 4694TIP3    H238278   1.467   0.197   5.355  0.3195 -1.1101 -1.3424
 4695TIP3   OH238279  -1.659  -2.338   3.253  0.4778  0.5042  0.4174
 4695TIP3    H138280  -1.733  -2.318   3.311 -0.4061 -0.8713 -0.1918
 4695TIP3    H238281  -1.584  -2.349   3.312 -0.2510 -0.1921  1.2356
 4696TIP3   OH238282   2.539   0.188   2.347 -0.3674  0.4705 -0.2756
 4696TIP3    H138283   2.462   0.164   2.398 -1.0182  1.5460 -0.7338
 4696TIP3    H238284   2.505   0.234   2.270  0.7383  1.4863 -0.1938
 4697TIP3   OH238285  -1.499  -3.118   5.865  0.5200  0.4209  0.5596
 4697TIP3    H138286  -1.495  -3.093   5.958 -1.2124 -0.5031  0.9314
 4697TIP3    H238287  -1.555  -3.051   5.825 -1.1319 -0.7339  0.8205
 4698TIP3   OH238288   2.130  -3.294   2.346  0.3409 -0.2853 -0.1167
 4698TIP3    H138289   2.203  -3.236   2.327 -0.8062  1.2240 -0.0486
 4698TIP3    H238290   2.105  -3.274   2.436 -0.1144 -0.8498 -0.1080
 4699TIP3   OH238291   3.190   2.579   5.215  0.0262  0.1132 -0.2720
 4699TIP3    H138292   3.172   2.658   5.266 -0.8540 -1.3302  1.8370
 4699TIP3    H238293   3.280   2.556   5.238  0.4163  0.6911 -1.1900
 4700TIP3   OH238294   1.175   2.195   3.866 -0.2530 -0.2836  0.2957
 4700TIP3    H138295   1.114   2.269   3.869 -0.0865 -0.1662  2.6271
 4700TIP3    H238296   1.153   2.149   3.785  0.8689  3.2928 -2.3148
 4701TIP3   OH238297  -0.257  -0.286   4.640  0.3371 -0.0563  0.3477
 4701TIP3    H138298  -0.330  -0.230   4.668 -1.2376 -0.6604 -2.2159
 4701TIP3    H238299  -0.265  -0.364   4.695 -1.1834 -0.2246 -0.0585
 4702TIP3   OH238300  -3.127  -1.750   5.489  0.3082 -0.2751 -0.3339
 4702TIP3    H138301  -3.111  -1.842   5.469  0.7348 -0.2687 -0.0257
 4702TIP3    H238302  -3.124  -1.706   5.404  0.5322 -0.4823 -0.4329
 4703TIP3   OH238303   3.267  -2.449   5.472 -0.0802  0.4540  0.1351
 4703TIP3    H138304   3.249  -2.444   5.566 -2.4834  0.1166 -0.2465
 4703TIP3    H238305   3.271  -2.358   5.443  1.7907  0.6005  0.6823
 4704TIP3   OH238306  -3.183  -1.188   5.582 -0.1778 -0.8094 -0.4730
 4704TIP3    H138307  -3.136  -1.267   5.556  2.6021 -0.1761  2.0910
 4704TIP3    H238308  -3.145  -1.119   5.527 -0.8463 -0.8318 -0.9833
 4705TIP3   OH238309  -0.436  -0.914   4.097 -0.2475  0.0900  0.1012
 4705TIP3    H138310  -0.434  -0.838   4.156  0.5089 -0.0123  0.2228
 4705TIP3    H238311  -0.423  -0.877   4.010  0.0767  0.1065  0.1562
 4706TIP3   OH238312  -0.255  -0.870   2.206 -0.1682  0.4681 -0.1317
 4706TIP3    H138313  -0.164  -0.877   2.177 -0.4590  1.2617 -1.3260
 4706TIP3    H238314  -0.261  -0.782   2.244 -0.3884  0.3460  0.1175
 4707TIP3   OH238315   2.395   2.495   2.879  0.3127  0.6858  0.5373
 4707TIP3    H138316   2.308   2.478   2.914 -0.0988  0.9061 -0.3729
 4707TIP3    H238317   2.383   2.504   2.785  1.6429 -1.7309  0.0255
 4708TIP3   OH238318   3.316   2.257   2.916 -0.0999 -0.0906  0.2562
 4708TIP3    H138319   3.233   2.238   2.961 -0.7629  0.2620 -0.7817
 4708TIP3    H238320   3.363   2.174   2.917  0.2138  0.0618  2.1832
 4709TIP3   OH238321   0.736  -2.221   4.457  0.9629 -0.0383 -0.2955
 4709TIP3    H138322   0.678  -2.276   4.509 -0.5841  0.3242 -1.5570
 4709TIP3    H238323   0.772  -2.158   4.519 -1.3299  0.7958  0.2705
 4710TIP3   OH238324   2.150  -0.677   4.284  0.1023  0.0652 -0.5149
 4710TIP3    H138325   2.058  -0.656   4.268  0.2120  2.0912  1.0900
 4710TIP3    H238326   2.160  -0.668   4.379  1.9630 -0.0734 -0.6693
 4711TIP3   OH238327   0.796  -0.847   4.163  0.0686  0.1869 -0.0354
 4711TIP3    H138328   0.855  -0.840   4.238 -0.0213 -1.9682  0.3115
 4711TIP3    H238329   0.836  -0.915   4.107 -1.8201 -1.0652  0.0264
 4712TIP3   OH238330   0.479  -1.866   2.860 -0.2547  0.4516 -0.1243
 4712TIP3    H138331   0.509  -1.806   2.929 -0.3833  0.1816  0.1670
 4712TIP3    H238332   0.391  -1.836   2.839 -1.2146 -1.0084  1.6185
 4713TIP3   OH238333   0.831  -1.047   3.769 -0.1438 -0.1837  0.4619
 4713TIP3    H138334   0.909  -1.101   3.774  0.1092  0.2219  1.0193
 4713TIP3    H238335   0.864  -0.959   3.749 -0.6711 -0.5251 -2.3968
 4714TIP3   OH238336  -1.907   1.967   5.752 -0.2258 -0.0572  0.0438
 4714TIP3    H138337  -1.862   2.051   5.761 -0.6651  0.0019  2.3207
 4714TIP3    H238338  -1.999   1.991   5.742 -0.4564 -0.2338  1.5206
 4715TIP3   OH238339  -3.142   0.557   4.489  0.0161 -0.0086  0.3579
 4715TIP3    H138340  -3.120   0.554   4.582 -1.0931  2.2315  0.7775
 4715TIP3    H238341  -3.084   0.624   4.452  1.4045 -1.8207 -0.9140
 4716TIP3   OH238342  -1.863   2.383   4.462 -0.3316  0.9151 -0.2234
 4716TIP3    H138343  -1.833   2.417   4.546 -0.8025 -0.2080  0.4253
 4716TIP3    H238344  -1.784   2.347   4.421 -0.5990 -1.6576  1.2954
 4717TIP3   OH238345  -0.457  -0.020   3.808  0.1614  1.0952 -0.1762
 4717TIP3    H138346  -0.473   0.026   3.726 -1.1439 -0.7986 -1.0664
 4717TIP3    H238347  -0.362  -0.015   3.821  0.2356  2.5351 -1.0762
 4718TIP3   OH238348  -0.137   0.986   4.026 -0.4764 -0.4755  0.5509
 4718TIP3    H138349  -0.133   0.893   4.004  0.0395 -0.6954  1.5175
 4718TIP3    H238350  -0.053   1.021   3.996 -0.2968 -0.5176  0.9903
 4719TIP3   OH238351   2.894   3.366   4.454 -0.1861 -0.4744  0.0664
 4719TIP3    H138352   2.961   3.411   4.403 -0.6580  0.3143  0.1096
 4719TIP3    H238353   2.866   3.432   4.518 -2.2258 -0.1519 -1.0666
 4720TIP3   OH238354  -3.258  -2.761   5.350  0.1309 -0.9076  0.2017
 4720TIP3    H138355  -3.184  -2.817   5.374  0.2101 -0.0901  2.0757
 4720TIP3    H238356  -3.300  -2.806   5.277  2.9412 -0.9790 -1.5237
 4721TIP3   OH238357   1.587   2.538   2.673  0.3819 -0.0414 -0.2544
 4721TIP3    H138358   1.681   2.542   2.656  0.1103  0.3305 -1.8695
 4721TIP3    H238359   1.559   2.630   2.670  0.3846  0.1841  3.1767
 4722TIP3   OH238360  -2.671   0.072   5.086  0.5372 -0.9556  0.5857
 4722TIP3    H138361  -2.674   0.029   5.171 -0.3008  0.6436  1.4091
 4722TIP3    H238362  -2.748   0.128   5.084  1.0602 -0.2287 -0.8399
 4723TIP3   OH238363  -0.479   1.219   5.505  0.2486 -0.0250 -0.1958
 4723TIP3    H138364  -0.407   1.251   5.559  1.4161 -0.8629 -1.2263
 4723TIP3    H238365  -0.499   1.292   5.446 -1.3855  1.0962  1.6250
 4724TIP3   OH238366   2.511   0.978   4.970  0.8459 -0.7806  0.5325
 4724TIP3    H138367   2.510   0.884   4.952  0.1515 -0.4945 -1.1666
 4724TIP3    H238368   2.433   1.012   4.926  0.8773  0.5472  1.4448
 4725TIP3   OH238369   1.002  -1.294   2.401  0.0639  0.3677 -0.3213
 4725TIP3    H138370   0.924  -1.337   2.368 -1.4265  0.5878  2.5684
 4725TIP3    H238371   1.039  -1.356   2.464 -0.4173  1.9632  1.6680
 4726TIP3   OH238372   2.661  -3.219   3.310 -0.3368 -0.4732 -0.1705
 4726TIP3    H138373   2.708  -3.302   3.304  0.3254 -0.2466  1.3957
 4726TIP3    H238374   2.571  -3.243   3.331 -0.3834 -0.8162 -0.7395
 4727TIP3   OH238375  -1.107   2.110   5.753 -0.2484 -0.4620  0.4140
 4727TIP3    H138376  -1.182   2.100   5.813  0.0883 -0.2995  0.8681
 4727TIP3    H238377  -1.059   2.028   5.761 -0.0275 -0.3150  0.6143
 4728TIP3   OH238378   1.991  -1.961   2.948 -0.0281 -0.5180 -0.3318
 4728TIP3    H138379   2.003  -2.011   2.867  1.3055 -1.6684  0.5259
 4728TIP3    H238380   2.079  -1.954   2.985 -0.6609 -0.3386  1.2089
 4729TIP3   OH238381   1.960   0.635   4.347 -0.3777  0.1462 -0.3172
 4729TIP3    H138382   1.958   0.674   4.260  0.3524  0.4033 -0.2262
 4729TIP3    H238383   2.053   0.627   4.368 -0.5479  0.2944  0.5298
 4730TIP3   OH238384   0.854   2.456   4.726 -0.3971 -0.0665  0.1356
 4730TIP3    H138385   0.884   2.366   4.739  0.7635  0.2501 -0.2386
 4730TIP3    H238386   0.809   2.455   4.641  1.5272  0.1280 -0.9474
 4731TIP3   OH238387   0.182   1.212   3.255 -0.1507  0.2114 -0.1019
 4731TIP3    H138388   0.125   1.248   3.187 -1.6077 -0.6536  0.6116
 4731TIP3    H238389   0.226   1.289   3.292 -0.3219  0.8275 -1.1220
 4732TIP3   OH238390  -0.966  -0.971   5.787 -0.2533  0.2552  0.6135
 4732TIP3    H138391  -0.967  -1.065   5.805  1.2824  0.2512  0.8369
 4732TIP3    H238392  -0.987  -0.930   5.870  1.6712  0.1229  1.2306
 4733TIP3   OH238393   0.683  -0.635   3.251 -0.0712 -0.4502  0.2418
 4733TIP3    H138394   0.654  -0.629   3.342  1.1452  1.6188  0.5479
 4733TIP3    H238395   0.661  -0.551   3.213  0.3834 -0.9077 -1.0929
 4734TIP3   OH238396  -3.146  -1.250   3.409  0.0343 -0.3334  0.0873
 4734TIP3    H138397  -3.192  -1.202   3.341 -0.0892 -0.5058  0.0464
 4734TIP3    H238398  -3.087  -1.309   3.361 -0.0535 -0.4558  0.1299
 4735TIP3   OH238399  -3.145  -0.013   2.662 -0.5832 -0.2730  0.5010
 4735TIP3    H138400  -3.134  -0.058   2.746  0.3958 -3.2577 -1.0870
 4735TIP3    H238401  -3.240  -0.012   2.648 -0.7178 -0.2774  1.3469
 4736TIP3   OH238402   2.222  -2.532   4.393 -0.1810  0.2776 -0.2365
 4736TIP3    H138403   2.164  -2.542   4.317  0.8776 -2.3626 -0.7889
 4736TIP3    H238404   2.272  -2.453   4.374 -0.1177 -0.1755 -2.1918
 4737TIP3   OH238405  -1.529   3.124   4.932 -0.1012 -0.0171 -0.1691
 4737TIP3    H138406  -1.434   3.111   4.937  0.5428  3.8583  0.4205
 4737TIP3    H238407  -1.555   3.145   5.022 -1.7832 -1.8175 -0.1386
 4738TIP3   OH238408   3.012   2.127   3.952  0.7323  0.1205  0.0300
 4738TIP3    H138409   2.972   2.156   3.870  0.6006 -0.4397 -0.1078
 4738TIP3    H238410   3.093   2.178   3.958 -0.2264  1.6409  0.5787
 4739TIP3   OH238411  -2.509   2.721   3.482 -0.2737 -0.1593 -0.5467
 4739TIP3    H138412  -2.579   2.693   3.542 -0.6412  0.8908 -0.4659
 4739TIP3    H238413  -2.524   2.669   3.403  0.9492 -2.4667  0.6420
 4740TIP3   OH238414   3.011   0.047   4.935 -0.3484  0.2361 -0.2892
 4740TIP3    H138415   3.050   0.041   5.022 -0.7159  0.3344 -0.1144
 4740TIP3    H238416   2.937   0.107   4.945  0.3996  1.3042 -0.9705
 4741TIP3   OH238417   2.653  -2.418   2.232 -0.0897  0.4117 -0.0658
 4741TIP3    H138418   2.641  -2.382   2.144  0.0493 -1.1855 -0.7709
 4741TIP3    H238419   2.710  -2.354   2.276  2.3731 -0.1995 -2.1478
 4742TIP3   OH238420  -2.786   3.074   5.258 -0.2155 -0.5681  0.1009
 4742TIP3    H138421  -2.716   3.091   5.320  1.8039  1.3893 -2.4639
 4742TIP3    H238422  -2.760   2.994   5.213 -0.2706 -0.5171 -0.0232
 4743TIP3   OH238423  -3.170   2.369   5.835 -1.0064 -0.3795 -0.3495
 4743TIP3    H138424  -3.260   2.364   5.867 -0.8596  0.5981  0.2795
 4743TIP3    H238425  -3.151   2.463   5.834  0.1217 -0.5945 -0.1104
 4744TIP3   OH238426   2.114   2.362   4.601 -0.7950 -0.6717 -0.3818
 4744TIP3    H138427   2.034   2.341   4.554 -2.3468  1.6566  1.0546
 4744TIP3    H238428   2.181   2.368   4.533 -2.0486 -1.5232 -1.7564
 4745TIP3   OH238429   2.472  -1.602   5.135  0.9204 -0.0741 -0.2319
 4745TIP3    H138430   2.527  -1.582   5.059  0.3764 -0.4142 -0.7190
 4745TIP3    H238431   2.458  -1.696   5.132 -0.8323  0.1723 -0.9168
 4746TIP3   OH238432   2.175  -0.472   3.217  0.0696  0.5041  0.0701
 4746TIP3    H138433   2.218  -0.543   3.266 -3.2207 -1.6494  0.1863
 4746TIP3    H238434   2.166  -0.507   3.128  2.3896  2.7533 -1.1623
 4747TIP3   OH238435  -3.216  -2.734   2.644 -0.2422 -0.1439 -0.6184
 4747TIP3    H138436  -3.232  -2.669   2.576 -0.8997  1.1790  0.7414
 4747TIP3    H238437  -3.275  -2.807   2.623 -0.5166  0.2858 -1.3786
 4748TIP3   OH238438   1.311  -2.651   3.306 -0.2136 -0.1723 -0.0963
 4748TIP3    H138439   1.240  -2.650   3.242 -1.2071  1.1023  0.9880
 4748TIP3    H238440   1.377  -2.593   3.269 -0.7879  0.5720  0.0368
 4749TIP3   OH238441   1.477  -2.281   3.596  0.1530  0.1241  0.4140
 4749TIP3    H138442   1.392  -2.302   3.635 -0.6582 -1.9229 -2.1442
 4749TIP3    H238443   1.541  -2.323   3.652 -0.8863 -1.9113  0.1662
 4750TIP3   OH238444  -0.152  -3.276   2.320  0.7908 -0.0352 -0.0252
 4750TIP3    H138445  -0.098  -3.282   2.398  0.2534 -0.9219  0.2895
 4750TIP3    H238446  -0.170  -3.367   2.296 -1.4257  0.2313  0.4868
 4751TIP3   OH238447  -0.815  -3.209   2.372  0.0169  0.2089  0.2263
 4751TIP3    H138448  -0.829  -3.303   2.366 -0.5501  0.1517  1.8332
 4751TIP3    H238449  -0.893  -3.170   2.333 -0.9964 -0.0488  1.8802
 4752TIP3   OH238450   3.198   2.256   5.167  0.2080 -0.4997 -0.3084
 4752TIP3    H138451   3.231   2.335   5.209 -1.9821  0.5203 -0.3455
 4752TIP3    H238452   3.268   2.229   5.107  0.5400  2.1482 -1.2512
 4753TIP3   OH238453   0.299   1.335   5.209 -0.2129  0.2613  0.4977
 4753TIP3    H138454   0.223   1.343   5.266  0.2949 -1.2045  1.4347
 4753TIP3    H238455   0.263   1.334   5.120 -1.2416  0.0053  0.9052
 4754TIP3   OH238456   1.152   1.725   3.157  0.6985  0.7017 -0.3714
 4754TIP3    H138457   1.059   1.712   3.139  0.9012 -1.4053 -0.2187
 4754TIP3    H238458   1.162   1.819   3.169 -1.3628  0.9958 -0.6408
 4755TIP3   OH238459   0.440  -0.003   4.593 -0.7576  0.2218 -0.3517
 4755TIP3    H138460   0.423   0.032   4.505 -0.0811  0.6176 -0.3289
 4755TIP3    H238461   0.352  -0.019   4.630 -1.1234  2.4949 -0.1240
 4756TIP3   OH238462  -1.768   3.051   2.421  0.7817  0.3567 -0.1922
 4756TIP3    H138463  -1.859   3.050   2.392  0.4197 -0.7235  0.9007
 4756TIP3    H238464  -1.755   3.139   2.455  0.0881  0.4641 -0.1926
 4757TIP3   OH238465  -2.446  -0.051   3.151  0.3478  0.1112 -0.1884
 4757TIP3    H138466  -2.359  -0.013   3.142  0.3173  0.9142  2.1302
 4757TIP3    H238467  -2.431  -0.140   3.182  0.3403 -0.5044 -1.8593
 4758TIP3   OH238468   2.488  -1.907   5.839 -0.0835  0.1738 -0.0642
 4758TIP3    H138469   2.575  -1.869   5.833  0.3570 -0.6586  0.9444
 4758TIP3    H238470   2.496  -1.992   5.797  0.4541 -1.3070  2.8285
 4759TIP3   OH238471  -2.274   3.288   4.143 -0.0351  0.3885 -0.0877
 4759TIP3    H138472  -2.294   3.327   4.058  0.0766 -0.0830 -0.3352
 4759TIP3    H238473  -2.342   3.221   4.155 -0.5425  0.9969  0.5719
 4760TIP3   OH238474   1.869  -2.726   5.078  0.4507 -0.0630  0.1299
 4760TIP3    H138475   1.866  -2.697   5.170  2.2796 -1.9946  0.8950
 4760TIP3    H238476   1.961  -2.719   5.054  0.1509 -0.5495 -1.2246
 4761TIP3   OH238477  -2.546  -2.028   3.182  0.1171  0.0450  0.4327
 4761TIP3    H138478  -2.633  -2.006   3.150  0.1874  0.5751  0.5983
 4761TIP3    H238479  -2.538  -2.122   3.168 -0.1963  0.1210 -0.2687
 4762TIP3   OH238480  -0.179   0.167   5.751 -0.1743  0.6990  0.3122
 4762TIP3    H138481  -0.178   0.093   5.812  1.6540  0.1666 -0.2817
 4762TIP3    H238482  -0.088   0.198   5.750  0.1962 -0.0935 -3.0131
 4763TIP3   OH238483   2.435   0.120   3.405 -0.3724  0.9232 -0.6061
 4763TIP3    H138484   2.477   0.083   3.327  0.7864  1.1907 -0.1248
 4763TIP3    H238485   2.342   0.099   3.394  0.0725 -1.0734 -0.9488
 4764TIP3   OH238486   0.496   2.732   5.345 -0.7471 -0.2605 -0.4070
 4764TIP3    H138487   0.590   2.730   5.329 -0.6932 -0.9288 -0.0268
 4764TIP3    H238488   0.478   2.823   5.370 -0.0348 -0.3378  0.4597
 4765TIP3   OH238489   1.992   0.667   2.917  0.0834 -0.6071  0.3814
 4765TIP3    H138490   1.998   0.657   2.822  0.7139 -0.4379  0.3931
 4765TIP3    H238491   2.031   0.754   2.934 -1.6858  0.1739  0.6280
 4766TIP3   OH238492  -3.010   2.878   4.254 -0.0643 -0.0802 -0.4836
 4766TIP3    H138493  -2.994   2.949   4.191 -0.5874  1.7064  1.2725
 4766TIP3    H238494  -3.104   2.866   4.253 -0.2098  0.7405  0.6720
 4767TIP3   OH238495  -0.187   2.268   4.674  0.3850  0.0872 -0.1754
 4767TIP3    H138496  -0.228   2.182   4.663  1.1501 -0.4281  0.8037
 4767TIP3    H238497  -0.144   2.284   4.590 -1.0140  0.2198 -0.8902
 4768TIP3   OH238498  -3.134  -2.903   4.899 -0.0402 -0.3131 -0.7444
 4768TIP3    H138499  -3.195  -2.975   4.914 -0.0314 -0.5073 -1.6022
 4768TIP3    H238500  -3.158  -2.867   4.814  0.3622  0.2970 -0.6111
 4769TIP3   OH238501   2.519   1.665   2.023  0.0626 -0.1844  0.7512
 4769TIP3    H138502   2.473   1.600   1.972 -0.8341  0.3368  0.8804
 4769TIP3    H238503   2.611   1.653   2.000 -0.1690 -1.0034  0.2297
 4770TIP3   OH238504   2.599  -2.803   4.654 -0.6303 -0.2183 -0.3775
 4770TIP3    H138505   2.504  -2.799   4.642 -0.6431 -2.0464 -1.3231
 4770TIP3    H238506   2.634  -2.791   4.566 -0.1253 -1.7657 -0.4270
 4771TIP3   OH238507  -1.137   1.408   3.352 -0.4199 -0.3812  0.5850
 4771TIP3    H138508  -1.049   1.437   3.378 -1.1599  0.9531  1.7061
 4771TIP3    H238509  -1.158   1.463   3.276 -0.8147  0.2694  1.1559
 4772TIP3   OH238510  -2.894   0.769   3.723 -0.1966  0.2402  0.1637
 4772TIP3    H138511  -2.952   0.842   3.746 -0.2986  0.3202 -0.3342
 4772TIP3    H238512  -2.947   0.691   3.739  0.2931  0.2092  1.7972
 4773TIP3   OH238513  -2.763  -1.271   5.027 -0.5208  0.3465  0.2300
 4773TIP3    H138514  -2.730  -1.288   4.939  1.9301 -0.1719  1.1579
 4773TIP3    H238515  -2.694  -1.218   5.068 -0.1658 -1.8357  2.7144
 4774TIP3   OH238516  -1.945   2.197   5.158 -0.0486 -0.3545  0.1784
 4774TIP3    H138517  -2.010   2.129   5.141  3.4061 -3.6456 -1.5179
 4774TIP3    H238518  -1.922   2.186   5.250 -0.7265 -0.2543  0.3657
 4775TIP3   OH238519  -0.914   0.558   5.259 -0.1416 -0.5332 -0.0938
 4775TIP3    H138520  -0.824   0.568   5.228 -0.4408 -0.8412 -1.0961
 4775TIP3    H238521  -0.960   0.516   5.186 -0.8400 -1.4350  0.8455
 4776TIP3   OH238522  -3.082   0.706   3.432 -0.0417  0.0428 -0.0893
 4776TIP3    H138523  -3.087   0.698   3.528  0.4840 -1.2048 -0.1405
 4776TIP3    H238524  -3.108   0.620   3.400  2.3852 -0.4511 -0.9583
 4777TIP3   OH238525   0.866  -3.323   4.234  0.1969 -0.2421  0.4240
 4777TIP3    H138526   0.785  -3.360   4.269  0.6018 -0.3696  1.2442
 4777TIP3    H238527   0.838  -3.245   4.186 -0.6216 -1.3306 -0.9288
 4778TIP3   OH238528   1.351  -2.150   5.677 -0.3644  0.4518 -0.2990
 4778TIP3    H138529   1.323  -2.197   5.756 -0.4579 -0.0578 -0.6332
 4778TIP3    H238530   1.413  -2.210   5.635  1.0307  1.4366  0.2781
 4779TIP3   OH238531  -0.821   1.235   3.406  0.8555 -0.0986  0.4089
 4779TIP3    H138532  -0.821   1.177   3.482  1.6877 -0.8624 -0.1537
 4779TIP3    H238533  -0.892   1.204   3.351  1.5422 -0.8515 -0.0729
 4780TIP3   OH238534   1.129   2.259   4.774 -0.2572  0.2347 -0.5066
 4780TIP3    H138535   1.157   2.323   4.709 -2.4270  0.6515 -1.0761
 4780TIP3    H238536   1.201   2.196   4.777  1.8253  2.4721 -0.1325
 4781TIP3   OH238537   0.414   2.340   5.292 -0.1006 -0.0737  0.8214
 4781TIP3    H138538   0.333   2.293   5.272 -0.5453  0.6344  0.9154
 4781TIP3    H238539   0.389   2.400   5.362 -0.3921  2.6280 -1.4517
 4782TIP3   OH238540   3.323  -0.169   5.111  0.1476 -0.1467 -0.5638
 4782TIP3    H138541   3.366  -0.251   5.134  3.0558  1.6525  1.0283
 4782TIP3    H238542   3.286  -0.137   5.193  0.6222  0.9526 -0.7604
 4783TIP3   OH238543  -1.947  -1.250   4.768  0.0284  0.8454 -0.1998
 4783TIP3    H138544  -1.869  -1.197   4.780 -0.5381  1.6674 -0.0567
 4783TIP3    H238545  -1.937  -1.322   4.831  0.5153  1.1185  0.0439
 4784TIP3   OH238546  -0.081  -1.496   5.384  0.5714  0.9511 -0.3484
 4784TIP3    H138547  -0.017  -1.533   5.446  0.3378  1.2560  0.0791
 4784TIP3    H238548  -0.105  -1.569   5.328  1.1148  0.7732 -0.3534
 4785TIP3   OH238549   3.218   0.704   3.144  0.1202 -0.0356 -0.2172
 4785TIP3    H138550   3.159   0.710   3.219  1.3131 -0.2901  0.7758
 4785TIP3    H238551   3.305   0.694   3.182  0.8792  0.7648 -1.6280
 4786TIP3   OH238552  -2.944  -2.597   2.353  0.0985 -0.4900 -0.0366
 4786TIP3    H138553  -2.886  -2.541   2.302  0.6887 -1.0341  0.0329
 4786TIP3    H238554  -3.008  -2.536   2.392  0.3350  0.0533 -0.4873
 4787TIP3   OH238555  -2.574   2.563   3.974 -0.2249 -0.2641  0.0268
 4787TIP3    H138556  -2.563   2.644   3.924  0.5748  0.5314  1.4241
 4787TIP3    H238557  -2.486   2.543   4.006 -0.0262 -2.7570 -1.8088
 4788TIP3   OH238558   0.506   0.466   4.951  0.4288  0.6063 -0.0259
 4788TIP3    H138559   0.426   0.470   5.003 -0.5742 -1.0624 -1.3444
 4788TIP3    H238560   0.546   0.382   4.974  0.6113  0.4054 -1.0328
 4789TIP3   OH238561  -0.270  -3.124   4.902 -0.6669 -0.3611 -0.2445
 4789TIP3    H138562  -0.313  -3.175   4.970 -0.8915  0.8341  0.5471
 4789TIP3    H238563  -0.209  -3.067   4.949  1.8344 -1.9980 -1.3394
 4790TIP3   OH238564   1.726  -0.828   3.718 -0.7726  1.0596  0.4803
 4790TIP3    H138565   1.740  -0.782   3.801  0.5395  1.4320  0.0955
 4790TIP3    H238566   1.805  -0.808   3.667 -2.0231  1.7613 -1.2851
 4791TIP3   OH238567  -1.550  -0.043   4.148 -0.7174  0.1167  0.1807
 4791TIP3    H138568  -1.622  -0.079   4.201 -0.5302  0.7225  0.8588
 4791TIP3    H238569  -1.474  -0.096   4.173 -0.7130  0.1400  0.2163
 4792TIP3   OH238570  -0.936  -1.905   4.594  0.6927 -0.6681 -0.0762
 4792TIP3    H138571  -0.872  -1.941   4.532 -0.0626 -0.5200 -0.9619
 4792TIP3    H238572  -0.898  -1.822   4.621  1.2747 -0.9699  0.0753
 4793TIP3   OH238573   0.782  -1.438   3.841  0.2952 -0.5271  0.5265
 4793TIP3    H138574   0.799  -1.394   3.924  0.3805  0.7068 -0.1270
 4793TIP3    H238575   0.867  -1.445   3.799  0.0406  0.2547 -0.1331
 4794TIP3   OH238576   0.737   1.273   3.765 -0.1828  0.5234  0.4218
 4794TIP3    H138577   0.777   1.353   3.729  1.1123  0.4108  1.5207
 4794TIP3    H238578   0.687   1.303   3.840 -0.2779  0.3765  0.4179
 4795TIP3   OH238579  -1.354  -2.148   3.845  0.2372  0.1575  0.1048
 4795TIP3    H138580  -1.363  -2.080   3.911  2.1503  1.5502 -0.9407
 4795TIP3    H238581  -1.306  -2.105   3.774 -2.1755 -1.0708 -2.4702
 4796TIP3   OH238582  -3.149  -1.265   4.150  0.5612 -0.1264  0.1421
 4796TIP3    H138583  -3.082  -1.209   4.112 -0.1217  0.6708  0.0904
 4796TIP3    H238584  -3.169  -1.328   4.081  0.3202  0.4542 -0.3279
 4797TIP3   OH238585   2.086   1.940   5.726  0.1822 -0.1425  0.5494
 4797TIP3    H138586   2.122   1.985   5.650 -0.4546  2.5495  1.7520
 4797TIP3    H238587   2.158   1.939   5.789  1.2815 -3.8630 -0.4795
 4798TIP3   OH238588   1.090   0.897   3.359  0.0817 -0.3747  0.1256
 4798TIP3    H138589   0.999   0.923   3.373  0.1042 -0.2011 -0.0445
 4798TIP3    H238590   1.136   0.979   3.345  0.1628 -0.5042 -0.3665
 4799TIP3   OH238591  -1.421   0.912   4.141 -0.0263 -0.0054  0.8001
 4799TIP3    H138592  -1.513   0.931   4.159  0.3112  0.7663  1.8134
 4799TIP3    H238593  -1.414   0.817   4.147 -1.2755 -0.3559 -1.9665
 4800TIP3   OH238594   2.073  -0.690   4.781 -0.3032  0.0810 -0.0415
 4800TIP3    H138595   2.006  -0.757   4.794 -0.4077 -0.0956 -1.3576
 4800TIP3    H238596   2.036  -0.632   4.715  0.4873  0.4814 -0.1413
 4801TIP3   OH238597   0.418   0.364   3.124  0.1952 -0.1613 -0.1142
 4801TIP3    H138598   0.451   0.319   3.047  1.8538 -1.2935  1.1899
 4801TIP3    H238599   0.491   0.417   3.154 -0.3324  0.0603  0.8226
 4802TIP3   OH238600   2.112   2.484   2.977  0.1585  0.0511  0.1377
 4802TIP3    H138601   2.104   2.537   3.057 -0.5181 -0.1515  0.2131
 4802TIP3    H238602   2.023   2.484   2.940  0.4894  0.2536 -0.6878
 4803TIP3   OH238603   0.282   3.180   5.571 -0.4578 -0.4521  0.6387
 4803TIP3    H138604   0.238   3.258   5.603  1.5512  0.8931  0.3502
 4803TIP3    H238605   0.259   3.176   5.478  0.6498  0.7616  0.2759
 4804TIP3   OH238606  -0.317   1.049   4.489  0.1081 -0.1743 -0.2545
 4804TIP3    H138607  -0.229   1.015   4.505 -0.4200 -0.9406  1.2025
 4804TIP3    H238608  -0.307   1.104   4.411  1.9076 -0.0697 -0.0063
 4805TIP3   OH238609   2.479   1.460   4.542 -0.5109  0.0451 -0.5381
 4805TIP3    H138610   2.472   1.549   4.578 -0.2035  0.8121 -2.2602
 4805TIP3    H238611   2.541   1.469   4.469 -0.0823 -1.6977 -0.4223
 4806TIP3   OH238612   2.314   2.441   4.421 -0.1366  0.0237 -0.0522
 4806TIP3    H138613   2.264   2.523   4.423  0.7062  0.5389  0.6780
 4806TIP3    H238614   2.327   2.424   4.328 -1.0869  0.2279 -0.2376
 4807TIP3   OH238615   1.983   0.412   3.038  0.5504 -0.0509 -0.1965
 4807TIP3    H138616   1.952   0.491   2.993  4.2551  0.0158 -3.2063
 4807TIP3    H238617   2.043   0.445   3.104  1.0208 -0.2610 -0.5092
 4808TIP3   OH238618  -0.843  -2.772   3.933  0.5697  0.3405  0.6920
 4808TIP3    H138619  -0.898  -2.771   4.010 -0.9181  1.2421 -0.3279
 4808TIP3    H238620  -0.796  -2.855   3.937 -1.2825 -0.7222  1.3246
 4809TIP3   OH238621  -2.106   3.167   4.611  0.4554  0.0282  0.2048
 4809TIP3    H138622  -2.185   3.160   4.663 -0.9658  2.6152 -1.3855
 4809TIP3    H238623  -2.040   3.201   4.672 -0.5110  0.7585  0.8744
 4810TIP3   OH238624  -1.548   0.117   4.903 -0.0331  0.5017 -0.2692
 4810TIP3    H138625  -1.468   0.166   4.920  0.7113 -1.0026  0.7997
 4810TIP3    H238626  -1.521   0.025   4.906 -1.7239 -0.0337 -0.3142
 4811TIP3   OH238627  -2.707  -2.429   4.836  0.4240  0.4292 -0.2153
 4811TIP3    H138628  -2.727  -2.338   4.855 -0.2196  0.4905 -1.1203
 4811TIP3    H238629  -2.793  -2.471   4.828  0.7057 -0.0410 -0.7914
 4812TIP3   OH238630  -1.611  -0.193   4.785 -0.2834 -0.0610  0.1358
 4812TIP3    H138631  -1.544  -0.166   4.723 -1.3531 -0.6243 -1.3385
 4812TIP3    H238632  -1.618  -0.288   4.774 -0.7167 -0.1219  0.8759
 4813TIP3   OH238633   0.751   0.868   4.891 -0.0909  0.2471  0.1827
 4813TIP3    H138634   0.725   0.791   4.942 -0.0624 -0.0208 -0.2099
 4813TIP3    H238635   0.720   0.942   4.943 -1.9736 -0.0618 -0.4387
 4814TIP3   OH238636  -1.159   2.068   3.245  0.2623 -0.2486 -0.4687
 4814TIP3    H138637  -1.160   2.154   3.203  3.4490  0.3725  0.4456
 4814TIP3    H238638  -1.098   2.078   3.318  0.4732 -3.2126 -0.1362
 4815TIP3   OH238639   2.073  -2.978   3.175  0.0850  0.1401  0.0632
 4815TIP3    H138640   2.109  -2.899   3.216  0.5294 -0.3768  0.7070
 4815TIP3    H238641   1.981  -2.978   3.199  0.1250  0.3742  0.2198
 4816TIP3   OH238642   0.553  -0.085   2.835 -0.0099 -0.0031  0.3554
 4816TIP3    H138643   0.644  -0.111   2.823 -0.1784  0.2398 -1.8615
 4816TIP3    H238644   0.503  -0.147   2.782 -1.0329  0.6013  0.5799
 4817TIP3   OH238645   0.365   2.342   5.684 -0.4187 -0.1856  0.2817
 4817TIP3    H138646   0.372   2.412   5.619  1.9229 -1.3335 -0.8575
 4817TIP3    H238647   0.275   2.310   5.675 -1.1248  1.7542 -0.0945
 4818TIP3   OH238648  -2.822   2.725   4.838 -0.1397  0.3662 -0.4316
 4818TIP3    H138649  -2.829   2.692   4.928  0.5149  2.1576  0.3256
 4818TIP3    H238650  -2.803   2.818   4.848  2.0916  0.2331 -2.4004
 4819TIP3   OH238651   1.979  -2.579   4.593 -0.5171 -0.3918 -0.1818
 4819TIP3    H138652   1.990  -2.579   4.688 -3.0965 -0.3482  0.2061
 4819TIP3    H238653   2.064  -2.604   4.558  0.4168 -0.6824  2.1467
 4820TIP3   OH238654   3.121  -2.042   6.020  0.1887 -0.0495  0.1834
 4820TIP3    H138655   3.174  -2.034   6.100  1.4325 -1.4302 -0.4521
 4820TIP3    H238656   3.181  -2.017   5.950 -0.8092  0.8668 -0.3699
 4821TIP3   OH238657   2.716   1.456   5.649 -0.0834 -0.5671  0.4182
 4821TIP3    H138658   2.686   1.455   5.558 -0.3279  1.9133  0.4000
 4821TIP3    H238659   2.809   1.434   5.644 -0.1190 -0.5627 -0.4393
 4822TIP3   OH238660  -1.466   2.129   4.808 -0.1636 -0.3917 -0.1327
 4822TIP3    H138661  -1.503   2.199   4.862  0.5848  0.1025 -0.2508
 4822TIP3    H238662  -1.532   2.059   4.811 -1.6055  0.8631 -1.2341
 4823TIP3   OH238663   1.162   0.311   4.240  0.2724  0.0608  0.1990
 4823TIP3    H138664   1.233   0.314   4.303  1.2787 -0.0957 -0.9014
 4823TIP3    H238665   1.084   0.289   4.292  1.5166 -2.8238  1.0251
 4824TIP3   OH238666   2.693   2.343   3.256  1.4278  0.0274  0.3632
 4824TIP3    H138667   2.753   2.269   3.249  0.3335 -0.9107  0.5251
 4824TIP3    H238668   2.692   2.382   3.169  0.3209 -1.5477 -0.3683
 4825TIP3   OH238669   3.065   2.269   3.523 -0.9316 -0.1280  0.7472
 4825TIP3    H138670   3.043   2.310   3.439 -0.6084  0.9962  1.1930
 4825TIP3    H238671   3.087   2.179   3.500 -2.9041 -0.4495 -0.1003
 4826TIP3   OH238672   1.302   2.176   4.997 -0.1472  0.2618  0.1893
 4826TIP3    H138673   1.281   2.086   4.974 -1.1731  0.3535  0.7056
 4826TIP3    H238674   1.395   2.185   4.977 -0.5016 -0.2452 -1.9683
 4827TIP3   OH238675  -2.161  -1.598   5.168  0.2952  0.0653 -0.5358
 4827TIP3    H138676  -2.099  -1.671   5.163 -0.9118 -1.0467  0.0549
 4827TIP3    H238677  -2.125  -1.532   5.109  1.2878 -1.1281 -1.3302
 4828TIP3   OH238678  -2.890  -2.249   3.496 -0.3492  0.1912  0.0837
 4828TIP3    H138679  -2.795  -2.239   3.497 -0.3202 -0.0580 -0.0855
 4828TIP3    H238680  -2.910  -2.294   3.578 -0.2595 -0.2846 -0.1523
 4829TIP3   OH238681   0.545  -0.055   3.109 -0.4787 -0.0074 -0.4235
 4829TIP3    H138682   0.535  -0.082   3.017  0.3072 -2.3473  0.1125
 4829TIP3    H238683   0.618  -0.109   3.141  0.2140  1.8171  1.2056
 4830TIP3   OH238684  -0.872  -2.055   3.196  0.5974 -0.1555  0.1511
 4830TIP3    H138685  -0.929  -2.059   3.120  1.2799 -0.5299 -0.3599
 4830TIP3    H238686  -0.880  -1.966   3.229 -0.6312 -0.3339  0.3765
 4831TIP3   OH238687   0.175  -2.215   2.308 -0.5378  0.0976 -0.0337
 4831TIP3    H138688   0.219  -2.195   2.391 -0.3776  0.9683 -0.3222
 4831TIP3    H238689   0.100  -2.155   2.306 -0.0358  0.7074 -0.9288
 4832TIP3   OH238690   1.549   2.746   3.212 -0.1181  0.1589  0.4407
 4832TIP3    H138691   1.456   2.759   3.197  0.4372  3.1509 -1.1561
 4832TIP3    H238692   1.554   2.692   3.291 -3.1525 -1.5124 -0.3640
 4833TIP3   OH238693   0.269   0.182   3.578  0.3603 -0.3829  0.7775
 4833TIP3    H138694   0.285   0.156   3.488  1.1832 -0.0578  0.8253
 4833TIP3    H238695   0.349   0.227   3.605 -0.3545  0.6246  1.2662
 4834TIP3   OH238696  -0.690  -2.738   3.642  0.0412  0.1920 -0.1626
 4834TIP3    H138697  -0.749  -2.773   3.574  0.4020  1.9453 -1.4498
 4834TIP3    H238698  -0.749  -2.708   3.711 -0.5343  0.7559 -0.8723
 4835TIP3   OH238699   1.583   2.514   4.220  0.5929  0.5108 -0.2933
 4835TIP3    H138700   1.539   2.502   4.304  1.6047  0.3909  0.2426
 4835TIP3    H238701   1.629   2.431   4.205 -1.4922 -0.4088 -2.1775
 4836TIP3   OH238702   3.240  -0.597   4.791  0.0863  0.3073 -0.2474
 4836TIP3    H138703   3.210  -0.666   4.850  1.0156 -0.5144 -0.7019
 4836TIP3    H238704   3.160  -0.555   4.760 -0.4687 -0.2044  0.4521
 4837TIP3   OH238705   1.784  -3.254   5.090  0.2813 -0.5259  0.2885
 4837TIP3    H138706   1.729  -3.179   5.070  0.9109 -0.4212 -1.1959
 4837TIP3    H238707   1.725  -3.319   5.128 -0.7380 -0.1916 -0.7017
 4838TIP3   OH238708   2.101  -3.331   2.683 -0.2877  0.0006 -0.1668
 4838TIP3    H138709   2.137  -3.351   2.770  0.4938 -1.1848 -0.7418
 4838TIP3    H238710   2.153  -3.256   2.653 -0.9136  0.7671  0.5701
 4839TIP3   OH238711  -1.133   0.759   3.986 -0.0554 -0.3131 -0.1145
 4839TIP3    H138712  -1.219   0.775   3.947 -0.5035  0.0273  0.9803
 4839TIP3    H238713  -1.152   0.711   4.067  0.7317  0.2724  0.4280
 4840TIP3   OH238714   1.379  -3.043   4.011 -0.0851  0.5648 -0.1745
 4840TIP3    H138715   1.311  -3.105   3.984  0.7606  0.1709 -1.4698
 4840TIP3    H238716   1.352  -3.016   4.099 -1.2412 -0.5309 -0.1546
 4841TIP3   OH238717  -1.095   0.707   4.440  0.3355  0.6757 -0.4753
 4841TIP3    H138718  -1.115   0.711   4.533  1.1743  0.6190 -0.2814
 4841TIP3    H238719  -1.032   0.635   4.433 -0.5825 -0.0783 -1.2485
 4842TIP3   OH238720  -0.161  -1.730   4.478 -0.8015 -0.4050 -0.0812
 4842TIP3    H138721  -0.227  -1.760   4.540 -0.3197 -2.4443 -0.5049
 4842TIP3    H238722  -0.084  -1.783   4.497  0.9983  2.2573  0.7709
 4843TIP3   OH238723  -1.803  -1.839   4.116 -0.2095 -0.5289  0.4102
 4843TIP3    H138724  -1.828  -1.826   4.208 -0.8923 -0.5572  0.2394
 4843TIP3    H238725  -1.722  -1.791   4.106 -1.2308  1.3028  0.5079
 4844TIP3   OH238726  -1.979   1.929   4.600  0.2180 -0.4534  0.2539
 4844TIP3    H138727  -1.978   1.934   4.696  2.7998  1.1805  0.2286
 4844TIP3    H238728  -1.889   1.948   4.574 -0.6515  0.2655 -2.5729
 4845TIP3   OH238729   2.350   1.735   3.283  0.4548  0.9216 -0.1476
 4845TIP3    H138730   2.303   1.700   3.208  0.4032 -1.9484  1.0947
 4845TIP3    H238731   2.293   1.804   3.318  0.6403  2.5906 -2.8090
 4846TIP3   OH238732  -1.717   2.846   3.150  0.2513 -0.2548 -0.1566
 4846TIP3    H138733  -1.778   2.811   3.085 -1.5314 -1.0441  1.8330
 4846TIP3    H238734  -1.750   2.933   3.169  0.3185 -0.3192  0.2504
 4847TIP3   OH238735  -2.823  -2.015   3.761  0.3150  0.3592  0.0784
 4847TIP3    H138736  -2.829  -1.924   3.732 -1.0452  0.5847  1.0029
 4847TIP3    H238737  -2.911  -2.037   3.791  0.4359 -1.4927 -0.7542
 4848TIP3   OH238738  -0.713   1.951   4.209 -0.7385 -0.0219  0.2691
 4848TIP3    H138739  -0.779   1.884   4.192 -0.9961  0.5264 -1.0705
 4848TIP3    H238740  -0.646   1.936   4.142  0.4602 -0.4825  1.5246
 4849TIP3   OH238741  -0.998  -3.164   3.048 -0.0486 -0.0247  0.4090
 4849TIP3    H138742  -1.070  -3.127   3.099 -0.1226  0.6624 -0.1844
 4849TIP3    H238743  -1.035  -3.179   2.961  1.1092  2.5669 -0.6295
 4850TIP3   OH238744  -2.636  -2.487   3.269  0.0404 -0.4296  0.6203
 4850TIP3    H138745  -2.619  -2.540   3.191 -1.2079 -0.1380  0.1263
 4850TIP3    H238746  -2.696  -2.419   3.239  0.3114  0.2766  1.6241
 4851TIP3   OH238747  -0.761   0.065   3.851  0.1545  0.1032 -0.4890
 4851TIP3    H138748  -0.687   0.004   3.850 -0.1537 -0.2703 -1.8426
 4851TIP3    H238749  -0.838   0.010   3.865 -0.0395  0.2889 -0.8179
 4852TIP3   OH238750   1.427   0.765   3.096  0.0311  0.0547  0.1709
 4852TIP3    H138751   1.513   0.750   3.057 -0.3700  0.5241 -0.9156
 4852TIP3    H238752   1.372   0.791   3.023 -0.8921  0.3521  0.9615
 4853TIP3   OH238753   2.376  -1.517   5.467 -0.4107  0.7827 -0.5804
 4853TIP3    H138754   2.284  -1.539   5.478 -0.2442 -0.2100 -1.0124
 4853TIP3    H238755   2.375  -1.431   5.424 -1.1120  1.1963  0.2354
 4854TIP3   OH238756  -0.732  -0.791   4.160 -0.4157 -0.1136  0.0143
 4854TIP3    H138757  -0.652  -0.742   4.140  0.2008 -1.0739  0.0680
 4854TIP3    H238758  -0.798  -0.755   4.100 -0.3333  1.6732  0.9425
 4855TIP3   OH238759   2.609  -1.766   4.014 -0.0076 -0.2335  0.7328
 4855TIP3    H138760   2.662  -1.732   3.943 -0.6218  1.4371  1.0023
 4855TIP3    H238761   2.663  -1.832   4.056 -0.1288 -2.2658 -2.0389
 4856TIP3   OH238762  -2.455   0.128   1.930 -0.1515 -0.1877 -0.3285
 4856TIP3    H138763  -2.517   0.073   1.882 -0.8892 -1.0865  1.5453
 4856TIP3    H238764  -2.371   0.084   1.919 -0.4699 -0.8748 -0.1228
 4857TIP3   OH238765  -1.367  -0.002   3.746 -0.8220  0.0364  0.1713
 4857TIP3    H138766  -1.439  -0.061   3.723 -0.2850 -0.0676 -1.3462
 4857TIP3    H238767  -1.402   0.086   3.728 -0.5670 -0.0187 -0.6492
 4858TIP3   OH238768   1.992  -0.197   5.360  0.2853  0.1167 -0.1974
 4858TIP3    H138769   1.933  -0.161   5.294 -0.7672  0.7136  1.0373
 4858TIP3    H238770   2.073  -0.147   5.348 -0.2665  1.0155 -0.3153
 4859TIP3   OH238771   2.626   2.404   2.992  0.4370  0.7751  0.4342
 4859TIP3    H138772   2.667   2.370   2.912 -0.8873  0.3065 -0.0753
 4859TIP3    H238773   2.544   2.443   2.962 -0.4404 -0.0642  1.6506
 4860TIP3   OH238774   1.958  -1.535   2.690 -0.5652  0.1577 -0.2170
 4860TIP3    H138775   1.889  -1.599   2.671 -1.8950  1.2014  0.8174
 4860TIP3    H238776   1.976  -1.493   2.606 -1.7002  0.3202 -0.4000
 4861TIP3   OH238777   1.405   2.681   4.477 -0.2933 -0.1410 -0.3901
 4861TIP3    H138778   1.317   2.686   4.513 -0.4076 -1.2026 -0.4895
 4861TIP3    H238779   1.402   2.736   4.399 -1.0675 -0.6914 -0.7660
 4862TIP3   OH238780  -0.002  -2.337   2.991 -0.0300  0.1754 -1.1113
 4862TIP3    H138781   0.027  -2.424   3.021  0.1126  0.2663 -0.9843
 4862TIP3    H238782  -0.015  -2.287   3.071 -1.4175 -0.1371 -1.1220
 4863TIP3   OH238783   2.410   0.839   5.676  0.1365  0.2497  0.2505
 4863TIP3    H138784   2.428   0.926   5.713  0.7609  0.6141 -0.8552
 4863TIP3    H238785   2.450   0.841   5.589 -0.7223 -0.8008 -0.1990
 4864TIP3   OH238786  -2.770   1.882   4.450  0.0232 -0.4582 -0.6975
 4864TIP3    H138787  -2.675   1.890   4.439 -0.0328 -0.6622 -1.3542
 4864TIP3    H238788  -2.782   1.871   4.545  0.6171  0.0221 -0.5548
 4865TIP3   OH238789   1.774  -0.200   2.507 -0.4201 -0.1734  0.1278
 4865TIP3    H138790   1.800  -0.117   2.468  1.6025  0.1822  1.9737
 4865TIP3    H238791   1.821  -0.266   2.456 -1.7059 -0.1852 -1.0822
 4866TIP3   OH238792  -0.195  -0.132   5.379  0.8769 -0.2819 -0.3512
 4866TIP3    H138793  -0.122  -0.093   5.428  2.0680 -0.6550 -1.7639
 4866TIP3    H238794  -0.205  -0.220   5.418  1.7907 -0.5648 -0.7346
 4867TIP3   OH238795   1.617  -1.308   3.766  0.0982  0.0002  0.2451
 4867TIP3    H138796   1.673  -1.386   3.765  0.0341 -0.1821  3.0021
 4867TIP3    H238797   1.674  -1.237   3.739  0.8056 -0.6582 -0.0245
 4868TIP3   OH238798   1.036   1.099   3.030  0.2727  0.2849 -0.3500
 4868TIP3    H138799   1.103   1.033   3.013  0.9143  0.5839  0.9156
 4868TIP3    H238800   0.957   1.062   2.991  0.8139 -0.8407 -0.4401
 4869TIP3   OH238801  -0.330  -1.353   5.482 -0.3548  0.3481 -0.5936
 4869TIP3    H138802  -0.237  -1.372   5.472 -0.0789  0.4964  1.3994
 4869TIP3    H238803  -0.365  -1.428   5.529 -1.3162  0.1866 -1.5314
 4870TIP3   OH238804   1.396  -1.518   5.339  0.0329  0.3152 -0.4988
 4870TIP3    H138805   1.396  -1.595   5.396  1.5760 -0.9614 -2.1165
 4870TIP3    H238806   1.304  -1.505   5.317 -0.5473  0.5605  1.8296
 4871TIP3   OH238807  -3.086   0.025   4.303 -0.2490  0.2772  0.1347
 4871TIP3    H138808  -3.054   0.102   4.350  0.1154 -0.0527  0.4373
 4871TIP3    H238809  -3.176   0.047   4.279 -0.2256  0.7030  0.4277
 4872TIP3   OH238810  -3.080  -0.555   3.174  0.3830 -0.4361 -0.1806
 4872TIP3    H138811  -3.148  -0.559   3.107 -0.7302 -0.5496  0.9248
 4872TIP3    H238812  -3.112  -0.490   3.237  1.3452 -0.4305  0.3261
 4873TIP3   OH238813   0.687   0.864   3.695  0.0589  0.0806  0.7007
 4873TIP3    H138814   0.647   0.940   3.655 -0.2675 -0.7061 -0.5268
 4873TIP3    H238815   0.772   0.895   3.727  0.2549  0.8024 -0.4541
 4874TIP3   OH238816  -1.546  -0.076   2.880  0.2757  0.1351  0.8142
 4874TIP3    H138817  -1.613  -0.100   2.816 -0.1527  3.0754  0.0386
 4874TIP3    H238818  -1.570  -0.124   2.959 -1.7843 -0.1588  0.0644
 4875TIP3   OH238819   0.943  -1.171   5.532 -0.6960  0.2985  0.2055
 4875TIP3    H138820   0.885  -1.095   5.542  0.1188  1.0036 -0.3459
 4875TIP3    H238821   0.955  -1.180   5.438 -0.2276 -0.1017  0.3015
 4876TIP3   OH238822  -1.402  -1.940   4.584  0.3587 -0.3875  0.4287
 4876TIP3    H138823  -1.395  -2.001   4.657  0.8089 -0.9753 -0.0902
 4876TIP3    H238824  -1.387  -1.994   4.506  3.7593  0.8399  0.0586
 4877TIP3   OH238825  -1.175   2.271   4.023  0.2940  0.0776  0.1819
 4877TIP3    H138826  -1.094   2.240   4.063 -0.0572 -0.1154  0.7595
 4877TIP3    H238827  -1.228   2.193   4.011 -0.0119  0.2675  0.2842
 4878TIP3   OH238828  -2.703  -3.069   2.976 -0.4453 -0.0761  0.5106
 4878TIP3    H138829  -2.664  -3.007   3.037 -0.6568 -0.9438  1.5655
 4878TIP3    H238830  -2.793  -3.079   3.007 -0.9194  0.3461 -0.6579
 4879TIP3   OH238831  -3.223   1.861   4.466 -0.2912  0.1637 -0.5030
 4879TIP3    H138832  -3.231   1.937   4.409  0.0047 -0.2262 -1.0796
 4879TIP3    H238833  -3.171   1.798   4.414 -1.1533 -0.7071 -0.3311
 4880TIP3   OH238834   1.526  -0.464   4.879 -0.1715 -0.3141 -0.3567
 4880TIP3    H138835   1.559  -0.438   4.965  4.3268 -1.7145 -1.4071
 4880TIP3    H238836   1.486  -0.550   4.895 -1.9200  0.6282  0.6788
 4881TIP3   OH238837  -0.635  -1.159   3.052  0.4293  0.3389  0.4307
 4881TIP3    H138838  -0.653  -1.125   3.140 -1.4629 -0.0598  0.2354
 4881TIP3    H238839  -0.718  -1.196   3.023  1.4160 -0.9491 -0.9244
 4882TIP3   OH238840   0.185   0.885   4.290 -0.4014  0.5670 -0.3568
 4882TIP3    H138841   0.200   0.815   4.353  1.7033  1.3222  0.0839
 4882TIP3    H238842   0.252   0.872   4.223  0.0664  2.1368 -0.2455
 4883TIP3   OH238843  -2.376  -0.020   4.660 -0.0834  0.1016  0.1336
 4883TIP3    H138844  -2.436   0.054   4.666 -0.8181 -0.2820 -1.8738
 4883TIP3    H238845  -2.402  -0.078   4.731 -1.1292  0.6203  0.1887
 4884TIP3   OH238846   0.012   0.895   3.010 -0.2895 -0.2885 -0.8716
 4884TIP3    H138847   0.005   0.811   2.965 -1.1853 -0.9310  0.3909
 4884TIP3    H238848  -0.037   0.882   3.092  1.4046  0.7589  0.3738
 4885TIP3   OH238849   0.012  -1.425   4.113  1.0218 -0.1717  0.3588
 4885TIP3    H138850   0.098  -1.467   4.124  0.4406 -0.8612  3.1330
 4885TIP3    H238851  -0.050  -1.489   4.147 -0.4297  0.9810 -0.0345
 4886TIP3   OH238852  -0.853  -2.846   2.188 -0.6211 -0.5408 -0.0899
 4886TIP3    H138853  -0.857  -2.881   2.099 -0.7671  1.2115 -0.8117
 4886TIP3    H238854  -0.779  -2.890   2.228  0.1913 -0.4917 -1.4814
 4887TIP3   OH238855   1.711   2.924  -3.810  0.6828 -0.3926  0.5741
 4887TIP3    H138856   1.673   2.840  -3.786  0.7459 -0.9553 -1.1225
 4887TIP3    H238857   1.637   2.984  -3.817  0.6317 -0.3008  1.7281
 4888TIP3   OH238858   1.970   1.064   3.958 -0.4377 -0.6175 -0.1150
 4888TIP3    H138859   1.895   1.090   3.905 -0.4077  0.2139  0.2222
 4888TIP3    H238860   1.944   1.086   4.048  0.3195 -0.0253 -0.0273
 4889TIP3   OH238861  -0.412  -1.203   4.166  0.5057  0.3562  0.0419
 4889TIP3    H138862  -0.457  -1.206   4.251 -0.0708  1.2934 -0.2123
 4889TIP3    H238863  -0.404  -1.109   4.147 -0.2608  0.1569 -1.3977
 4890TIP3   OH238864  -1.123  -2.312   2.599  0.3408  0.1943  0.1554
 4890TIP3    H138865  -1.196  -2.270   2.644 -0.1670 -1.2091  0.6900
 4890TIP3    H238866  -1.159  -2.340   2.514 -1.5260 -5.1969  2.2879
 4891TIP3   OH238867   2.199   0.046   4.417 -0.1904  0.0537 -0.3442
 4891TIP3    H138868   2.171   0.137   4.419 -0.4151 -0.0224  0.4273
 4891TIP3    H238869   2.119  -0.003   4.397  0.1249  0.0870 -1.7709
 4892TIP3   OH238870   2.578  -1.628   4.843  0.1726 -0.1873 -0.1044
 4892TIP3    H138871   2.538  -1.551   4.801  2.9283  1.7473  0.5928
 4892TIP3    H238872   2.590  -1.690   4.771  2.1452  1.9173 -1.7341
 4893TIP3   OH238873   1.558   1.712   4.651 -0.0919 -0.4091  0.0488
 4893TIP3    H138874   1.498   1.640   4.665  0.5268 -0.8933  0.2840
 4893TIP3    H238875   1.600   1.693   4.567  0.1464 -0.3771  0.1596
 4894TIP3   OH238876  -2.281  -0.689   2.800 -0.0981 -0.5969 -0.3405
 4894TIP3    H138877  -2.362  -0.659   2.842 -0.4920  0.3731 -1.7273
 4894TIP3    H238878  -2.264  -0.774   2.841 -1.3078 -0.4112  0.6413
 4895TIP3   OH238879   3.333   0.014   5.371 -0.3621  0.2160  0.2583
 4895TIP3    H138880   3.427   0.030   5.378 -0.2710  0.5579 -1.3264
 4895TIP3    H238881   3.320  -0.071   5.413  1.2049 -1.3551 -2.1888
 4896TIP3   OH238882  -2.765   1.356   4.145 -0.5165  0.0811 -0.0695
 4896TIP3    H138883  -2.746   1.364   4.239 -0.0498 -0.1141 -0.1445
 4896TIP3    H238884  -2.810   1.438   4.123 -0.7299  0.0801  0.3475
 4897TIP3   OH238885   0.888  -2.550   5.454 -0.1799  0.3081  0.0112
 4897TIP3    H138886   0.945  -2.531   5.379  0.0115  3.1897  0.7658
 4897TIP3    H238887   0.931  -2.623   5.499  0.9831  0.0935 -1.3650
 4898TIP3   OH238888   1.897  -1.691   4.687  0.7461  0.2775  0.3004
 4898TIP3    H138889   1.947  -1.655   4.613  1.5525 -1.0771  0.1601
 4898TIP3    H238890   1.822  -1.733   4.646  1.4621 -0.9210  0.1881
 4899TIP3   OH238891   2.809   0.376   5.167 -0.1826 -0.3097  0.7404
 4899TIP3    H138892   2.849   0.463   5.173 -0.4224 -0.2362  1.3021
 4899TIP3    H238893   2.818   0.352   5.075 -3.3749  1.8888 -0.3204
 4900TIP3   OH238894  -2.892  -0.823   4.136 -0.1468 -0.3240 -0.4246
 4900TIP3    H138895  -2.824  -0.760   4.114 -0.1347  0.2544  1.1028
 4900TIP3    H238896  -2.974  -0.778   4.115 -0.1110 -0.1261 -0.1502
 4901TIP3   OH238897  -0.034  -2.440   4.418  0.1104  0.7122  0.1704
 4901TIP3    H138898  -0.069  -2.398   4.496 -1.7826 -1.2149  0.4495
 4901TIP3    H238899  -0.028  -2.369   4.353 -0.5666  1.8732  1.3323
 4902TIP3   OH238900   2.196   3.328   2.942  0.3802 -0.2237 -0.3865
 4902TIP3    H138901   2.192   3.245   2.990  1.2087 -0.3622 -0.5566
 4902TIP3    H238902   2.254   3.384   2.994 -1.8407  1.0590  0.9105
 4903TIP3   OH238903   1.859  -3.286   4.318 -0.0939  0.3798 -0.2091
 4903TIP3    H138904   1.893  -3.372   4.341 -0.5745  0.5117  1.0578
 4903TIP3    H238905   1.852  -3.287   4.222  1.4612 -0.3809 -0.3273
 4904TIP3   OH238906  -0.527  -0.714   5.276 -0.2704  0.5345  0.3166
 4904TIP3    H138907  -0.563  -0.699   5.364 -0.0937 -1.3643  0.7651
 4904TIP3    H238908  -0.587  -0.669   5.217  0.4514  3.1645  1.4736
 4905TIP3   OH238909  -2.990  -1.855   4.088  0.5210  0.5459 -0.0566
 4905TIP3    H138910  -2.971  -1.949   4.096  0.0592  0.4121 -0.4639
 4905TIP3    H238911  -2.904  -1.813   4.089  0.8192  0.0141 -1.2532
 4906TIP3   OH238912   0.395  -3.249   5.799 -0.2485  0.1382  0.1052
 4906TIP3    H138913   0.474  -3.300   5.784 -0.9251 -0.4216 -1.9042
 4906TIP3    H238914   0.369  -3.269   5.889  0.1465 -2.1887 -0.2504
 4907TIP3   OH238915   3.192  -2.519   5.025 -0.3960  0.2497 -0.2133
 4907TIP3    H138916   3.188  -2.425   5.041 -0.9438  0.1719  0.1030
 4907TIP3    H238917   3.173  -2.559   5.110 -0.1521 -0.1464 -0.3439
 4908TIP3   OH238918   2.686  -0.448   4.926 -0.2570 -0.3217 -0.0931
 4908TIP3    H138919   2.692  -0.429   5.020  1.9723 -1.2664  0.0198
 4908TIP3    H238920   2.666  -0.542   4.922 -0.3285 -0.2871 -0.5457
 4909TIP3   OH238921   0.584  -0.291   3.685  0.6990 -0.6256 -0.4784
 4909TIP3    H138922   0.648  -0.346   3.731  0.0111 -0.8981  0.1525
 4909TIP3    H238923   0.510  -0.349   3.668  0.6862 -0.3614 -1.3833
 4910TIP3   OH238924   2.064   0.722   3.685  0.0814 -0.4775 -0.2813
 4910TIP3    H138925   2.018   0.805   3.674 -2.6961 -1.4674  2.4580
 4910TIP3    H238926   2.122   0.717   3.609 -0.8788  3.1195 -1.4599
 4911TIP3   OH238927  -0.531   3.032   5.456 -0.2685 -0.3487  0.0320
 4911TIP3    H138928  -0.444   3.034   5.417 -0.9411 -1.6120 -1.6757
 4911TIP3    H238929  -0.544   2.941   5.482 -1.0143 -0.1272  0.4714
 4912TIP3   OH238930  -3.160   0.611   4.111  0.3115 -0.2390 -0.3200
 4912TIP3    H138931  -3.191   0.685   4.163  1.7016  0.7943 -0.9068
 4912TIP3    H238932  -3.067   0.627   4.099  0.7282 -2.3065 -0.1551
 4913TIP3   OH238933   3.122  -1.404   3.865 -0.7580  0.1310  0.5673
 4913TIP3    H138934   3.099  -1.385   3.956 -1.2703  1.4029  0.1868
 4913TIP3    H238935   3.155  -1.321   3.830  0.6847 -0.6646 -0.0448
 4914TIP3   OH238936   2.346   3.302   4.795 -0.1250 -0.0013  0.3679
 4914TIP3    H138937   2.283   3.373   4.804  0.6327  0.6513  0.6316
 4914TIP3    H238938   2.321   3.239   4.862 -1.2506 -0.3458 -0.3464
 4915TIP3   OH238939  -3.127   0.389   2.725 -0.3762 -0.2352 -0.1483
 4915TIP3    H138940  -3.195   0.385   2.792  1.1820  0.5735  1.5383
 4915TIP3    H238941  -3.050   0.421   2.770  0.7701  0.2784 -2.3287
 4916TIP3   OH238942   2.896   0.451   5.818  0.7968  0.6696 -0.0201
 4916TIP3    H138943   2.922   0.531   5.863  1.2906  0.5244 -0.0320
 4916TIP3    H238944   2.969   0.434   5.758  0.4525  0.4983 -0.3918
 4917TIP3   OH238945   3.088   2.626   5.478 -0.7013  0.2921  0.2377
 4917TIP3    H138946   2.996   2.645   5.459 -0.5141 -0.1997 -1.3623
 4917TIP3    H238947   3.093   2.531   5.480 -0.2250  0.3171  0.2987
 4918TIP3   OH238948  -0.100   2.316   2.539  0.2358  0.0885 -0.4518
 4918TIP3    H138949  -0.011   2.347   2.554  0.2912  0.1740 -0.9381
 4918TIP3    H238950  -0.143   2.388   2.493  0.1578 -0.2691 -0.9511
 4919TIP3   OH238951   1.708   1.654   4.086  0.4111 -0.0861  0.1750
 4919TIP3    H138952   1.761   1.693   4.016 -0.6676  3.3905  1.1382
 4919TIP3    H238953   1.618   1.661   4.054  0.0205  0.2038  1.3218
 4920TIP3   OH238954  -1.221   2.389   3.469 -0.3165 -0.2940  0.6330
 4920TIP3    H138955  -1.295   2.447   3.452 -1.5428 -2.0050 -0.0769
 4920TIP3    H238956  -1.257   2.301   3.462  1.3140 -1.1769  2.4272
 4921TIP3   OH238957  -2.323   1.209   5.278  0.2871  0.0801 -0.2828
 4921TIP3    H138958  -2.362   1.248   5.200  0.8367 -0.3776 -0.8001
 4921TIP3    H238959  -2.330   1.115   5.263 -1.6385 -0.0904  1.2533
 4922TIP3   OH238960   2.258   1.449   2.400  0.5670 -0.0054  0.3108
 4922TIP3    H138961   2.272   1.528   2.347  0.0687  0.0943  0.3232
 4922TIP3    H238962   2.235   1.382   2.336  0.4461 -0.0058  0.3560
 4923TIP3   OH238963  -0.364  -2.206   3.266 -0.0570  0.3854 -0.4422
 4923TIP3    H138964  -0.270  -2.225   3.273  0.2696  1.6260 -1.1423
 4923TIP3    H238965  -0.372  -2.153   3.187 -1.7341 -1.8982 -1.9122
 4924TIP3   OH238966  -3.345   3.207   4.659  0.3511  0.6097 -1.0237
 4924TIP3    H138967  -3.284   3.226   4.587  1.0613  0.6803 -0.4074
 4924TIP3    H238968  -3.295   3.153   4.719  0.7749  2.9259  0.8786
 4925TIP3   OH238969  -1.709   1.653   4.454  0.0395 -0.1568 -0.8157
 4925TIP3    H138970  -1.705   1.724   4.519 -1.3949  0.7632 -1.6741
 4925TIP3    H238971  -1.662   1.687   4.378 -1.1878  0.1681 -1.4580
 4926TIP3   OH238972   1.378   2.584   2.980  0.0786  0.2393 -0.6364
 4926TIP3    H138973   1.343   2.519   2.919 -0.7200  0.6921 -0.6852
 4926TIP3    H238974   1.324   2.662   2.965 -1.2926 -0.1495  1.8196
 4927TIP3   OH238975   0.952  -2.300   5.040  0.0238  0.4154 -0.4368
 4927TIP3    H138976   1.028  -2.242   5.029  0.8959 -0.7615 -0.8202
 4927TIP3    H238977   0.895  -2.279   4.967 -0.4146  1.8400  0.2589
 4928TIP3   OH238978   1.610   0.808   5.334 -0.2248  0.5380  0.4463
 4928TIP3    H138979   1.599   0.892   5.379  1.5113  1.9616 -1.5673
 4928TIP3    H238980   1.520   0.775   5.324 -1.0431  2.5134  0.7234
 4929TIP3   OH238981   1.306  -2.921   3.213 -0.2395 -0.2923  0.3544
 4929TIP3    H138982   1.297  -2.834   3.252  1.6284  0.6268 -1.1131
 4929TIP3    H238983   1.387  -2.955   3.252  0.0812 -0.5524 -0.5275
 4930TIP3   OH238984   2.292  -0.087   3.134 -0.5377  0.0295  0.2488
 4930TIP3    H138985   2.303  -0.181   3.119  0.2023  0.2824 -1.0022
 4930TIP3    H238986   2.242  -0.056   3.058 -0.9135  0.6151  0.7257
 4931TIP3   OH238987   1.243   0.073   5.894  0.0131 -0.0847 -0.1538
 4931TIP3    H138988   1.303   0.136   5.936 -0.2711 -0.1130  0.2950
 4931TIP3    H238989   1.301   0.018   5.840  0.6700 -1.3277  1.7191
 4932TIP3   OH238990  -2.681   1.613   4.587  0.3465  0.0119  0.1861
 4932TIP3    H138991  -2.700   1.704   4.608  1.6166  0.9080 -2.1176
 4932TIP3    H238992  -2.632   1.580   4.662  0.3374  1.3949  0.8221
 4933TIP3   OH238993   1.929   0.235   3.629  0.2072 -0.0983 -0.3212
 4933TIP3    H138994   1.938   0.210   3.721 -2.1700 -0.1686 -0.0416
 4933TIP3    H238995   1.897   0.157   3.586  0.8708  0.0691 -1.1397
 4934TIP3   OH238996   0.047  -1.776   3.139 -0.0832 -0.7036 -0.3741
 4934TIP3    H138997   0.139  -1.757   3.159  0.5137 -3.3327 -0.2269
 4934TIP3    H238998   0.044  -1.784   3.044 -0.3371  0.0549 -0.4385
 4935TIP3   OH238999  -0.142   2.219   5.545 -0.7278 -0.0310 -0.5339
 4935TIP3    H139000  -0.220   2.248   5.498  0.9089  0.6648 -3.0043
 4935TIP3    H239001  -0.094   2.166   5.482  0.7674 -0.5535  0.9570
 4936TIP3   OH239002   2.888  -3.108   4.607 -0.2844  0.0970 -0.7196
 4936TIP3    H139003   2.794  -3.113   4.628 -0.5801  0.1349 -1.9501
 4936TIP3    H239004   2.930  -3.087   4.691 -1.4702  0.9928 -0.3149
 4937TIP3   OH239005  -0.083  -1.813   4.988  0.6723  0.8747  0.0350
 4937TIP3    H139006  -0.120  -1.741   4.938 -3.0471 -0.9085 -0.1014
 4937TIP3    H239007  -0.081  -1.887   4.927  1.8272  0.1402  0.9026
 4938TIP3   OH239008  -2.513   2.097   4.257 -0.6369  0.6370  0.2728
 4938TIP3    H139009  -2.446   2.151   4.299  0.1628 -0.6084  0.6658
 4938TIP3    H239010  -2.595   2.123   4.299 -0.2809  1.5505  0.4266
 4939TIP3   OH239011   0.928   2.208   3.428  0.0879  0.1576  0.0412
 4939TIP3    H139012   1.012   2.175   3.458  0.0775  1.0466  1.1238
 4939TIP3    H239013   0.914   2.288   3.479 -1.6060 -0.2052  0.2293
 4940TIP3   OH239014   2.893  -2.229   4.710  0.2810  0.2459  0.2154
 4940TIP3    H139015   2.944  -2.216   4.790 -0.7431  0.1907  0.8971
 4940TIP3    H239016   2.811  -2.182   4.725 -0.0625 -0.0308 -0.6709
 4941TIP3   OH239017  -1.290  -1.256   5.049 -0.3985  0.3572 -0.1375
 4941TIP3    H139018  -1.327  -1.339   5.019  0.6548  0.2947 -1.3374
 4941TIP3    H239019  -1.319  -1.191   4.985 -0.0336  0.6472 -0.0178
 4942TIP3   OH239020   2.256   0.555   5.264  0.1083 -0.7628  0.2334
 4942TIP3    H139021   2.349   0.561   5.241  0.2601 -0.5529  0.8932
 4942TIP3    H239022   2.236   0.462   5.261  0.1957 -0.7703 -0.4388
 4943TIP3   OH239023  -2.246   1.033   4.629 -0.6715  0.1787  0.4441
 4943TIP3    H139024  -2.311   1.102   4.619 -2.0500 -1.0626  0.5907
 4943TIP3    H239025  -2.272   0.965   4.566  0.4200 -0.3887  0.5764
 4944TIP3   OH239026   1.099   3.208   5.635 -0.3103 -0.2788  0.1895
 4944TIP3    H139027   1.061   3.288   5.598  1.1321  0.7595  0.8283
 4944TIP3    H239028   1.078   3.212   5.728  0.8710  0.0736  0.4661
 4945TIP3   OH239029  -1.957   0.854   4.168 -0.4490  0.2289 -0.0377
 4945TIP3    H139030  -1.998   0.779   4.124  0.3521 -0.4657  0.3575
 4945TIP3    H239031  -2.008   0.865   4.248 -1.2216  0.7862 -0.5987
 4946TIP3   OH239032   1.120   0.040   4.138 -0.5171 -0.4592 -0.3520
 4946TIP3    H139033   1.204  -0.001   4.158  0.7996  1.3903 -1.8610
 4946TIP3    H239034   1.115   0.115   4.197 -3.0902 -2.6631  2.6597
 4947TIP3   OH239035   2.969   2.104   5.253 -0.8032 -0.3958  0.1349
 4947TIP3    H139036   3.062   2.124   5.244 -0.3765 -2.1445  0.2599
 4947TIP3    H239037   2.924   2.179   5.214  0.6384  0.6038  0.3210
 4948TIP3   OH239038  -0.593   3.310   2.806 -0.4367  0.4633 -0.2764
 4948TIP3    H139039  -0.685   3.285   2.812 -0.6052  0.9297 -0.7561
 4948TIP3    H239040  -0.579   3.327   2.712 -0.0842  1.1682 -0.1061
 4949TIP3   OH239041  -0.341  -3.067   2.264  0.3197 -0.0918 -0.8920
 4949TIP3    H139042  -0.299  -2.982   2.271 -2.5605  1.3474  0.5578
 4949TIP3    H239043  -0.275  -3.129   2.299  1.4133  1.9208  0.8612
 4950TIP3   OH239044   1.717  -2.575   3.027 -0.3156 -0.3302 -0.2202
 4950TIP3    H139045   1.745  -2.575   2.936  1.0677 -2.2661  0.1456
 4950TIP3    H239046   1.787  -2.620   3.074 -0.1825  2.0429  2.1110
 4951TIP3   OH239047   1.549  -1.608   4.586 -0.2389  0.8816 -0.2204
 4951TIP3    H139048   1.579  -1.693   4.553 -1.0145  0.8186 -0.7993
 4951TIP3    H239049   1.459  -1.601   4.554 -0.9656  0.9358  1.7197
 4952TIP3   OH239050  -1.953  -0.518   3.128 -0.0268 -0.4164 -0.4491
 4952TIP3    H139051  -2.044  -0.524   3.099 -0.5474 -0.8743  1.1841
 4952TIP3    H239052  -1.912  -0.598   3.096 -0.1384 -0.1523 -1.2949
 4953TIP3   OH239053  -0.799   0.706   4.493 -0.5995  0.1386  0.6302
 4953TIP3    H139054  -0.746   0.630   4.516  1.3937 -0.3120 -4.2175
 4953TIP3    H239055  -0.749   0.782   4.523  0.7602 -0.3948 -0.2292
 4954TIP3   OH239056   2.871   0.279   4.900  0.0914  0.0594 -0.3193
 4954TIP3    H139057   2.840   0.322   4.820  1.0080 -0.0484 -0.7345
 4954TIP3    H239058   2.966   0.290   4.899  0.2031 -0.7341  0.2930
 4955TIP3   OH239059  -0.466  -2.602   3.818  0.3617 -0.3616  0.0982
 4955TIP3    H139060  -0.478  -2.694   3.795 -3.1301  0.1301 -0.6139
 4955TIP3    H239061  -0.468  -2.601   3.914  1.5449 -1.0784  0.1561
 4956TIP3   OH239062   1.897   1.791   3.916 -0.9118  1.0207 -0.1968
 4956TIP3    H139063   1.979   1.799   3.867 -0.5920  0.3527  0.2063
 4956TIP3    H239064   1.849   1.871   3.897 -0.2053  1.3725 -0.5198
 4957TIP3   OH239065   0.628  -2.439   5.356  0.8340 -0.3643  0.2195
 4957TIP3    H139066   0.723  -2.430   5.367  0.8819 -0.0828 -0.3813
 4957TIP3    H239067   0.617  -2.516   5.302  0.7984  0.3760 -0.8553
 4958TIP3   OH239068   0.719  -0.525   5.055  0.6577 -0.3680  0.0647
 4958TIP3    H139069   0.739  -0.472   4.978 -0.7918  0.5686  0.2887
 4958TIP3    H239070   0.623  -0.526   5.059  0.6804  0.4964  2.4035
 4959TIP3   OH239071  -1.911  -2.089   4.019 -0.1180  0.1739  0.1102
 4959TIP3    H139072  -1.924  -2.140   4.098  2.3618 -0.7097  0.0469
 4959TIP3    H239073  -1.880  -2.004   4.051  2.0362 -0.5641  0.1581
 4960TIP3   OH239074  -1.194  -2.066   5.030 -0.2646 -0.6019 -0.5580
 4960TIP3    H139075  -1.194  -2.005   4.956 -1.0460  0.4527  0.2819
 4960TIP3    H239076  -1.283  -2.062   5.064  0.2070 -0.7051  0.7248
 4961TIP3   OH239077  -3.243   0.180   4.793 -0.4574  0.6743  0.2033
 4961TIP3    H139078  -3.272   0.157   4.880 -0.3277 -4.6271 -0.8492
 4961TIP3    H239079  -3.152   0.209   4.805 -1.0227  1.9111  1.8987
 4962TIP3   OH239080   2.763  -1.432   4.626 -0.1714 -0.1848 -0.0181
 4962TIP3    H139081   2.767  -1.479   4.543  0.7272 -0.0776 -0.0416
 4962TIP3    H239082   2.751  -1.340   4.601 -3.1967 -0.4475  0.0426
 4963TIP3   OH239083  -2.087   0.449   2.774  0.0434  0.4187  0.1817
 4963TIP3    H139084  -1.993   0.461   2.789  0.0934 -1.0845  1.3408
 4963TIP3    H239085  -2.126   0.455   2.861 -0.6877 -0.8144 -0.0333
 4964TIP3   OH239086   2.209  -3.035   3.767 -0.1412  0.1229  0.0391
 4964TIP3    H139087   2.236  -3.030   3.859 -2.7264  1.4609  0.8374
 4964TIP3    H239088   2.231  -3.124   3.740  1.0448 -0.1759  1.8336
 4965TIP3   OH239089  -2.727   1.985   3.470  0.2253 -0.0815  0.6942
 4965TIP3    H139090  -2.796   2.034   3.514  1.0114  1.0468  0.7283
 4965TIP3    H239091  -2.745   1.995   3.377  0.0674 -0.2108  0.7098
 4966TIP3   OH239092  -3.187   2.778   5.245 -0.3508  0.1124 -0.2782
 4966TIP3    H139093  -3.245   2.723   5.298  0.4561 -0.3374  0.1715
 4966TIP3    H239094  -3.215   2.763   5.155 -0.3306 -0.8363 -0.1388
 4967TIP3   OH239095   2.936  -2.759   4.259 -0.4638 -0.2473  0.0573
 4967TIP3    H139096   2.996  -2.818   4.304  1.3430 -0.1502 -2.1116
 4967TIP3    H239097   2.962  -2.672   4.287  1.0748 -0.1457 -1.5262
 4968TIP3   OH239098   2.283   1.228   4.886  0.0346 -0.3946  0.0540
 4968TIP3    H139099   2.280   1.258   4.977  0.0882  0.0103 -0.0749
 4968TIP3    H239100   2.270   1.133   4.891  1.6307 -0.6151  0.6132
 4969TIP3   OH239101   1.707  -2.112   5.886 -0.2381 -0.2056  0.0138
 4969TIP3    H139102   1.712  -2.198   5.927 -1.6155 -1.1244 -1.5978
 4969TIP3    H239103   1.788  -2.103   5.836  0.2226 -0.2430  0.7464
 4970TIP3   OH239104  -2.183  -2.191   4.876 -0.3879 -0.3008  0.0844
 4970TIP3    H139105  -2.118  -2.130   4.911 -1.2847 -0.3950  2.0662
 4970TIP3    H239106  -2.231  -2.140   4.810  0.2879  0.4446  0.1567
 4971TIP3   OH239107  -2.644   2.602   6.006 -0.4635 -0.1443 -0.0401
 4971TIP3    H139108  -2.727   2.616   6.051  0.4937 -0.0335  1.7821
 4971TIP3    H239109  -2.599   2.687   6.012  0.7055 -0.7959  1.0581
 4972TIP3   OH239110  -1.825   2.981   3.529 -0.2173  0.0221 -0.6769
 4972TIP3    H139111  -1.838   3.057   3.586 -1.0454 -0.4290 -0.2450
 4972TIP3    H239112  -1.897   2.922   3.551  1.0936 -1.4245 -0.1475
 4973TIP3   OH239113   1.020   1.598   4.653 -0.2925  0.1176  0.4310
 4973TIP3    H139114   0.997   1.664   4.588  0.3858 -0.5675 -0.5354
 4973TIP3    H239115   1.090   1.638   4.704  1.1679 -0.3609 -1.1101
 4974TIP3   OH239116   1.492  -2.880   5.462 -0.2177 -0.0836 -0.3164
 4974TIP3    H139117   1.492  -2.829   5.381 -0.0673  1.0921  0.3909
 4974TIP3    H239118   1.584  -2.898   5.479 -0.2337 -0.1636 -0.3153
 4975TIP3   OH239119  -2.147  -2.931   3.896  0.6758  0.8467  0.1253
 4975TIP3    H139120  -2.174  -3.020   3.875  0.8749  0.7847  0.1303
 4975TIP3    H239121  -2.061  -2.922   3.854  0.8813  0.8693  0.5506
 4976TIP3   OH239122  -0.079   0.276   2.275 -0.4001  0.4250  0.2778
 4976TIP3    H139123  -0.167   0.305   2.297 -1.4019 -0.5162 -2.1997
 4976TIP3    H239124  -0.080   0.181   2.289  1.2028  0.7219  3.1048
 4977TIP3   OH239125  -0.339  -1.259   3.784  0.2528 -0.2110  0.0809
 4977TIP3    H139126  -0.393  -1.337   3.771  1.2015 -0.7048 -1.1316
 4977TIP3    H239127  -0.386  -1.189   3.739  0.3134 -0.5138 -0.4696
 4978TIP3   OH239128   0.316   1.554   5.898  0.0114 -0.4221  0.4623
 4978TIP3    H139129   0.397   1.505   5.884  0.4374  0.1656  0.8136
 4978TIP3    H239130   0.343   1.645   5.898 -0.8218 -0.1614 -0.4980
 4979TIP3   OH239131   1.012   1.209   5.202 -0.3980  0.6007  0.0605
 4979TIP3    H139132   0.965   1.160   5.270  0.8228 -1.5279 -0.5487
 4979TIP3    H239133   1.064   1.273   5.251 -2.4923  1.7845  0.8427
 4980TIP3   OH239134  -1.740  -0.512   3.498  0.8560  0.0152  0.1588
 4980TIP3    H139135  -1.794  -0.461   3.438 -0.3487 -0.7651  0.5379
 4980TIP3    H239136  -1.741  -0.462   3.580 -0.0582 -0.4167  0.4322
 4981TIP3   OH239137   1.333  -0.114   4.265  0.6480 -0.2176 -0.3078
 4981TIP3    H139138   1.406  -0.085   4.211  1.5543 -3.0911 -0.8420
 4981TIP3    H239139   1.345  -0.068   4.348  2.4690  0.1895 -0.7456
 4982TIP3   OH239140  -0.665  -2.427   4.564 -0.2166 -0.2477  0.1288
 4982TIP3    H139141  -0.599  -2.451   4.500 -0.9296  0.4160 -0.8819
 4982TIP3    H239142  -0.668  -2.501   4.625  0.7790 -0.6897 -0.3397
 4983TIP3   OH239143  -2.803   0.254   3.064  0.1406 -0.0724  0.8739
 4983TIP3    H139144  -2.799   0.168   3.107 -1.8874  0.1646  1.6657
 4983TIP3    H239145  -2.747   0.310   3.117  0.8937 -0.7275  0.7857
 4984TIP3   OH239146  -0.778   1.399   5.150 -0.2070 -0.1306 -0.0116
 4984TIP3    H139147  -0.775   1.405   5.054 -0.4987 -0.1192 -0.0235
 4984TIP3    H239148  -0.751   1.309   5.169  1.2978  0.2927 -0.0135
 4985TIP3   OH239149  -0.841  -0.373   3.195  0.4016  0.3822 -0.1228
 4985TIP3    H139150  -0.832  -0.412   3.109  0.0967  3.3677 -1.6682
 4985TIP3    H239151  -0.908  -0.425   3.239  0.4855 -1.1441 -1.7324
 4986TIP3   OH239152  -2.198   0.257   4.888  0.3248  0.0789 -0.5041
 4986TIP3    H139153  -2.207   0.332   4.828  0.8891  1.1917  0.7601
 4986TIP3    H239154  -2.134   0.286   4.953  2.0606 -2.2430 -1.0681
 4987TIP3   OH239155  -2.093   1.655   3.438  0.1443 -0.3187  0.1079
 4987TIP3    H139156  -2.087   1.683   3.529 -1.2959 -0.3552  0.2392
 4987TIP3    H239157  -2.187   1.647   3.422  0.3575  0.0030 -1.4761
 4988TIP3   OH239158  -0.142   2.906   4.412  0.4276 -0.0835  0.2707
 4988TIP3    H139159  -0.238   2.907   4.414  0.3840  0.2991 -1.0984
 4988TIP3    H239160  -0.118   2.828   4.462 -0.5685  0.1681  1.1697
 4989TIP3   OH239161   2.665   3.058   5.290 -0.1570 -0.2596 -0.1411
 4989TIP3    H139162   2.625   3.073   5.204 -2.5073 -0.9914  0.7311
 4989TIP3    H239163   2.693   3.145   5.319 -0.5273  0.1937 -1.0915
 4990TIP3   OH239164  -1.532   2.926   2.372  0.1368 -0.6086 -0.2142
 4990TIP3    H139165  -1.529   2.857   2.306  0.4282 -2.3699  1.5431
 4990TIP3    H239166  -1.624   2.949   2.379  0.0102 -0.9706 -0.6822
 4991TIP3   OH239167   0.711   0.364   2.923  0.3073  0.1982 -0.0879
 4991TIP3    H139168   0.640   0.300   2.927  0.8600 -0.4463 -0.3199
 4991TIP3    H239169   0.667   0.449   2.923 -0.4327 -0.1711  0.4417
 4992TIP3   OH239170   2.849  -2.592   2.384  0.5506  0.2726  0.5426
 4992TIP3    H139171   2.942  -2.569   2.391  0.2684  1.2356  1.3206
 4992TIP3    H239172   2.817  -2.540   2.310  0.9264 -1.1152 -0.6271
 4993TIP3   OH239173   0.750   0.393   5.414 -0.3037 -0.2782  0.6633
 4993TIP3    H139174   0.755   0.299   5.434  0.5575  0.1064  2.4924
 4993TIP3    H239175   0.658   0.415   5.429 -0.5855 -0.8713 -0.0945
 4994TIP3   OH239176   0.782  -0.935   4.708 -0.7518 -0.5405 -0.2439
 4994TIP3    H139177   0.790  -0.860   4.767 -0.8652  1.1173 -2.2121
 4994TIP3    H239178   0.863  -0.984   4.720  0.3193  1.0937 -0.4285
 4995TIP3   OH239179  -2.698  -0.060   1.949 -0.3659 -0.7350  0.1217
 4995TIP3    H139180  -2.625  -0.115   1.976 -0.9033 -1.4957  0.0691
 4995TIP3    H239181  -2.775  -0.103   1.986 -0.6278  1.1564  1.9494
 4996TIP3   OH239182  -1.974   2.569   4.264 -0.5847  0.5922  0.3553
 4996TIP3    H139183  -1.954   2.534   4.351  1.6141 -1.1470 -0.7646
 4996TIP3    H239184  -1.888   2.589   4.226 -1.3068 -0.8913 -2.2699
 4997TIP3   OH239185   1.655  -1.806   4.131 -0.7348  0.3746 -0.0752
 4997TIP3    H139186   1.737  -1.780   4.174 -0.3678  0.0490 -0.5772
 4997TIP3    H239187   1.669  -1.788   4.038  0.1764 -3.1225 -0.7408
 4998TIP3   OH239188  -1.282   3.196   4.540  0.1241 -0.0219 -0.7246
 4998TIP3    H139189  -1.364   3.148   4.524 -0.6589  1.2926 -0.8121
 4998TIP3    H239190  -1.214   3.129   4.535 -1.0523 -1.4254  0.8414
 4999TIP3   OH239191  -1.399   2.197   4.564 -0.2051 -0.7906  0.3690
 4999TIP3    H139192  -1.435   2.179   4.651  0.5997  1.5872  1.2667
 4999TIP3    H239193  -1.476   2.212   4.509 -0.7847  2.1045  1.7636
 5000TIP3   OH239194  -0.333  -0.941   3.329  0.4702 -0.5594 -0.5523
 5000TIP3    H139195  -0.353  -0.968   3.240  0.2150  0.7238 -0.9105
 5000TIP3    H239196  -0.241  -0.916   3.327  0.2387  0.3155 -0.6928
 5001TIP3   OH239197  -0.476  -3.242   3.205  0.0092 -0.0259 -0.2714
 5001TIP3    H139198  -0.401  -3.284   3.247  0.2423  0.0772 -0.5816
 5001TIP3    H239199  -0.505  -3.176   3.268  0.5396  0.3302 -0.3881
 5002TIP3   OH239200  -2.234   1.620   4.251  0.3033  0.1821 -0.3370
 5002TIP3    H139201  -2.318   1.576   4.264  0.0554  0.9873  0.9964
 5002TIP3    H239202  -2.213   1.657   4.337  1.9535  0.1262 -0.6834
 5003TIP3   OH239203   1.372   1.491   4.662 -0.3492  0.5187 -0.0426
 5003TIP3    H139204   1.356   1.425   4.595 -0.2598 -0.3569  0.7731
 5003TIP3    H239205   1.285   1.512   4.696 -0.3149  0.2613  0.2098
 5004TIP3   OH239206   1.892  -2.260   2.991 -0.0985  0.2454  0.4265
 5004TIP3    H139207   1.921  -2.303   2.911  1.1603 -0.9126  1.4702
 5004TIP3    H239208   1.900  -2.166   2.972 -2.6889  0.1419 -1.8139
 5005TIP3   OH239209  -2.409  -1.847   4.099 -0.0970 -0.2692 -0.4037
 5005TIP3    H139210  -2.353  -1.925   4.102  0.9790  0.4928  0.3531
 5005TIP3    H239211  -2.373  -1.790   4.168 -0.6604  1.0216 -1.1448
 5006TIP3   OH239212   3.319  -0.222   4.859  0.3720 -0.2798  0.2079
 5006TIP3    H139213   3.404  -0.179   4.845 -1.0877  2.8426  0.0585
 5006TIP3    H239214   3.298  -0.203   4.951 -0.2191 -0.9399  0.2171
 5007TIP3   OH239215   2.536   1.844   4.963 -0.1387 -0.0615  0.3171
 5007TIP3    H139216   2.493   1.769   5.004 -0.6780  0.4801  0.7498
 5007TIP3    H239217   2.533   1.913   5.029  1.0109  0.1254  0.1931
 5008TIP3   OH239218  -2.264  -2.360   4.602  0.3251  0.0498 -1.0356
 5008TIP3    H139219  -2.321  -2.377   4.527 -1.2099  0.6436 -0.0392
 5008TIP3    H239220  -2.280  -2.433   4.662  1.2241 -0.1921 -1.0632
 5009TIP3   OH239221   2.077   1.853   3.717  0.1937  0.4062 -0.2883
 5009TIP3    H139222   2.039   1.847   3.629 -0.1812  3.4127 -0.4318
 5009TIP3    H239223   2.132   1.775   3.725 -0.8676 -0.6657 -2.6228
 5010TIP3   OH239224   1.372  -1.281   5.660 -0.2301  0.2094  0.6528
 5010TIP3    H139225   1.380  -1.357   5.602 -2.1375  1.3651 -1.2820
 5010TIP3    H239226   1.310  -1.310   5.728 -1.8628  0.3042 -0.7212
 5011TIP3   OH239227  -1.855   0.264   2.555 -0.2034  0.4816 -0.1567
 5011TIP3    H139228  -1.951   0.262   2.561 -0.2632  2.0335 -0.2158
 5011TIP3    H239229  -1.837   0.258   2.461 -0.0692 -2.9594 -0.0297
 5012TIP3   OH239230  -1.771   3.315   5.013  0.0371 -0.2211 -0.0466
 5012TIP3    H139231  -1.782   3.289   5.105 -2.2175  1.2127  0.1754
 5012TIP3    H239232  -1.723   3.398   5.018 -0.9816  0.3818 -0.0635
 5013TIP3   OH239233   1.620   3.192   3.310 -0.1085 -0.6377 -0.2472
 5013TIP3    H139234   1.626   3.287   3.304 -0.0850 -0.6572 -0.5848
 5013TIP3    H239235   1.634   3.161   3.220 -1.2574 -0.8997 -0.3552
 5014TIP3   OH239236   2.202  -0.359   2.903  1.0235 -1.1101  0.3441
 5014TIP3    H139237   2.171  -0.298   2.836  0.0332 -1.4594  0.4662
 5014TIP3    H239238   2.174  -0.445   2.871  0.2484 -1.2443  1.3521
 5015TIP3   OH239239   1.789   2.250   3.389 -0.0791  0.6281 -0.9811
 5015TIP3    H139240   1.706   2.236   3.345 -0.4128  0.8587 -0.4309
 5015TIP3    H239241   1.825   2.329   3.348 -0.3602  0.8073 -0.8831
 5016TIP3   OH239242   2.976   0.108   3.102 -0.3750  0.4070 -0.7606
 5016TIP3    H139243   2.993   0.173   3.170 -3.8430 -0.8707  1.5453
 5016TIP3    H239244   2.907   0.147   3.048  0.4545  0.2803 -1.9560
 5017TIP3   OH239245   2.233  -2.858   2.855  0.0806  0.1155  0.2042
 5017TIP3    H139246   2.162  -2.793   2.851 -1.3873 -1.3730  0.6792
 5017TIP3    H239247   2.257  -2.873   2.764 -1.3825 -0.5159 -0.1122
 5018TIP3   OH239248  -0.497   3.133   2.976  0.2381 -0.6863  0.1888
 5018TIP3    H139249  -0.528   3.208   2.924  1.7907 -0.4539 -0.4577
 5018TIP3    H239250  -0.402   3.135   2.966  0.3739 -2.2070  0.9309
 5019TIP3   OH239251   1.605  -2.272   2.966 -0.0844  0.1188  0.3529
 5019TIP3    H139252   1.563  -2.224   3.038 -0.4899 -0.0596  0.2361
 5019TIP3    H239253   1.695  -2.286   2.996 -0.1438  0.3803  0.6631
 5020TIP3   OH239254   2.482   3.374   2.565 -0.1084 -0.1172 -0.5120
 5020TIP3    H139255   2.575   3.356   2.575 -0.3807 -1.1662  0.2995
 5020TIP3    H239256   2.470   3.460   2.606  0.3476 -0.4043  0.2367
 5021TIP3   OH239257   1.069  -0.373   5.166  0.3695 -0.3019  0.7894
 5021TIP3    H139258   1.060  -0.337   5.255 -3.8197  0.9915  0.0557
 5021TIP3    H239259   0.979  -0.388   5.138  1.6367 -5.1152 -1.6155
 5022TIP3   OH239260  -2.046   0.857   4.472  0.1635 -0.5022 -0.3207
 5022TIP3    H139261  -2.014   0.852   4.562 -1.1797  0.1627  0.2258
 5022TIP3    H239262  -2.105   0.782   4.463 -0.5869  0.0685 -0.2607
 5023TIP3   OH239263  -3.197  -1.501   4.354  0.0299 -0.3788  0.3678
 5023TIP3    H139264  -3.196  -1.414   4.314  0.6339 -1.6487 -2.6504
 5023TIP3    H239265  -3.289  -1.528   4.351 -0.4563  0.7415  2.9207
 5024TIP3   OH239266  -2.974  -1.005   3.577 -0.3945  0.2520  0.1813
 5024TIP3    H139267  -2.960  -0.951   3.500 -0.5708  0.2389  0.1388
 5024TIP3    H239268  -3.008  -0.944   3.643  2.5873  0.9336  1.2505
 5025TIP3   OH239269  -2.178  -2.343   3.804 -0.0033  0.0973  0.4160
 5025TIP3    H139270  -2.200  -2.400   3.877 -1.9261 -0.0957 -0.2743
 5025TIP3    H239271  -2.154  -2.260   3.845 -0.2121 -0.2636  1.2868
 5026TIP3   OH239272  -2.122   1.871   3.078 -0.3905  0.1005 -0.2012
 5026TIP3    H139273  -2.122   1.776   3.086  1.0925 -0.0309 -1.3897
 5026TIP3    H239274  -2.107   1.903   3.166 -0.5749 -0.7717  0.1574
 5027TIP3   OH239275  -1.496  -1.151   4.036 -0.1265  0.3752  0.0634
 5027TIP3    H139276  -1.540  -1.079   3.991 -1.1146  0.7910  1.6305
 5027TIP3    H239277  -1.513  -1.136   4.129  1.2196 -0.8688  0.5568
 5028TIP3   OH239278  -0.283   3.178   2.311 -0.3601  0.2031  0.4716
 5028TIP3    H139279  -0.292   3.126   2.232  0.1549 -1.4720  1.4682
 5028TIP3    H239280  -0.248   3.117   2.376 -1.6504  1.2720  2.2469
 5029TIP3   OH239281   0.002  -2.574   2.811 -0.1684 -0.8046  0.0219
 5029TIP3    H139282   0.076  -2.517   2.790 -1.6018  0.7922 -0.9642
 5029TIP3    H239283   0.023  -2.611   2.896  2.2201 -1.2184 -0.6925
 5030TIP3   OH239284   2.383  -2.234   2.362 -0.4228 -0.5415  0.2027
 5030TIP3    H139285   2.361  -2.194   2.278  0.0387 -0.3946  0.1481
 5030TIP3    H239286   2.389  -2.328   2.343 -0.4757 -0.5243  0.1013
 5031TIP3   OH239287  -1.309  -1.890   2.761  0.2259  0.5633  0.0150
 5031TIP3    H139288  -1.386  -1.862   2.711 -0.4719 -1.5974 -0.2230
 5031TIP3    H239289  -1.326  -1.860   2.850 -1.6262 -1.1025  0.2765
 5032TIP3   OH239290  -0.292  -0.123   2.353  0.0296 -0.7202  0.3156
 5032TIP3    H139291  -0.289  -0.218   2.358 -0.8934 -0.7962 -0.3648
 5032TIP3    H239292  -0.361  -0.104   2.289  1.9002  0.3555 -1.5116
 5033TIP3   OH239293  -1.712   3.242   3.090  0.4998 -0.6541  0.3965
 5033TIP3    H139294  -1.759   3.206   3.015 -0.3043  0.7332  0.1977
 5033TIP3    H239295  -1.773   3.234   3.163  1.0097 -1.3441  0.7587
 5034TIP3   OH239296   0.018  -1.756   2.854  0.8152 -0.3307 -0.2681
 5034TIP3    H139297   0.089  -1.807   2.817  0.4991 -1.4673  0.6316
 5034TIP3    H239298  -0.061  -1.807   2.834  0.1996  1.0540 -1.5138
 5035TIP3   OH239299  -1.923   0.021   5.275  0.3175 -0.0224 -0.0571
 5035TIP3    H139300  -1.839   0.003   5.317 -0.2437 -0.8100  0.7866
 5035TIP3    H239301  -1.970   0.076   5.338 -0.9881 -2.1655  0.9881
 5036TIP3   OH239302  -2.681   2.285   4.862 -0.3473 -0.0115  0.0039
 5036TIP3    H139303  -2.634   2.203   4.879  0.2508  0.1271 -0.8779
 5036TIP3    H239304  -2.631   2.351   4.909 -0.5007 -0.0637  0.2445
 5037TIP3   OH239305  -2.494   2.203   3.992 -0.0660 -0.1454 -0.4573
 5037TIP3    H139306  -2.523   2.182   4.081  0.0264  0.0261 -0.3859
 5037TIP3    H239307  -2.567   2.253   3.955  0.9932  2.2285  0.4786
 5038TIP3   OH239308   1.159  -2.001   4.558 -0.0351 -0.0568 -0.0723
 5038TIP3    H139309   1.142  -1.966   4.645 -0.8164 -1.0532  0.1911
 5038TIP3    H239310   1.146  -2.095   4.566 -1.3410 -0.0439 -1.5246
 5039TIP3   OH239311  -1.456  -2.129   5.429  0.3556  0.0407 -0.1501
 5039TIP3    H139312  -1.551  -2.141   5.430  0.1000  1.7623  2.1734
 5039TIP3    H239313  -1.421  -2.213   5.461 -0.5396  0.1502  1.1876
 5040TIP3   OH239314   0.564  -1.649   2.574 -0.0803  0.7912 -0.2648
 5040TIP3    H139315   0.554  -1.609   2.661  1.2313  0.2079  0.1781
 5040TIP3    H239316   0.627  -1.592   2.529  0.3295  0.3146 -0.3098
 5041TIP3   OH239317   2.060  -3.197   4.566  0.0514 -0.0371  0.2044
 5041TIP3    H139318   1.985  -3.139   4.557  1.1581  1.2116 -1.8157
 5041TIP3    H239319   2.028  -3.284   4.540 -0.4553  0.7201 -1.8548
 5042TIP3   OH239320   3.232   0.963   4.895  0.8545  0.4866  0.8325
 5042TIP3    H139321   3.267   1.051   4.911 -0.2263  1.4714 -1.6223
 5042TIP3    H239322   3.304   0.915   4.855  0.8210  0.9684  0.1809
 5043TIP3   OH239323   2.276   2.537   2.648 -0.1344  0.0290 -0.0719
 5043TIP3    H139324   2.280   2.460   2.591  1.0416  0.2358 -0.3073
 5043TIP3    H239325   2.211   2.594   2.606 -1.4961 -1.0800  0.4581
 5044TIP3   OH239326   1.521  -0.708   5.682 -0.7382 -0.3133 -0.0651
 5044TIP3    H139327   1.610  -0.737   5.703 -0.7960 -1.3810 -1.1997
 5044TIP3    H239328   1.473  -0.717   5.764  0.1276  0.0229  0.4961
 5045TIP3   OH239329   0.742   2.164   3.991 -0.9056 -0.2054  0.1233
 5045TIP3    H139330   0.722   2.090   3.933  1.6130 -0.0401 -1.0997
 5045TIP3    H239331   0.814   2.131   4.046 -0.6777  0.8958  0.4994
 5046TIP3   OH239332  -0.124   0.611   4.277 -0.2444 -0.1441  0.0739
 5046TIP3    H139333  -0.061   0.566   4.334 -0.3964 -0.1221  0.2603
 5046TIP3    H239334  -0.149   0.689   4.326  0.3548  0.3743 -0.4478
 5047TIP3   OH239335  -1.847   0.574   4.513 -0.0895  0.6866  0.2093
 5047TIP3    H139336  -1.804   0.491   4.534  0.3814  0.6906 -0.6840
 5047TIP3    H239337  -1.856   0.618   4.598  1.5518  0.6270  0.4489
 5048TIP3   OH239338   2.040  -1.613   4.477  0.0671  0.1522 -0.2761
 5048TIP3    H139339   2.115  -1.647   4.428 -0.9058 -0.4851 -1.3955
 5048TIP3    H239340   2.063  -1.523   4.497  1.5777 -0.3429  0.3624
 5049TIP3   OH239341  -0.965  -1.161   5.254 -0.3079  0.4265  0.4715
 5049TIP3    H139342  -0.884  -1.113   5.236  0.1025 -0.5202 -0.2765
 5049TIP3    H239343  -0.962  -1.179   5.348  1.0020 -0.7241  0.2426
 5050TIP3   OH239344   3.204   0.973   4.526 -0.3991  0.5692 -0.4140
 5050TIP3    H139345   3.248   0.890   4.508 -0.5519 -0.1310  2.0869
 5050TIP3    H239346   3.115   0.960   4.493 -0.1459  0.1085 -0.9287
 5051TIP3   OH239347   0.972   2.533   5.164  0.5114 -0.1523 -0.0924
 5051TIP3    H139348   0.974   2.498   5.253 -2.0650  0.1488  0.1504
 5051TIP3    H239349   0.948   2.459   5.109  1.3183 -0.1565 -0.4537
 5052TIP3   OH239350   1.525  -2.688   3.923 -0.1112 -0.0486  0.1330
 5052TIP3    H139351   1.617  -2.670   3.943  0.0580  1.4404 -1.7475
 5052TIP3    H239352   1.483  -2.602   3.923 -0.9231 -0.3963 -1.6340
 5053TIP3   OH239353  -1.861  -2.652   3.204  0.5787 -0.2505  0.5930
 5053TIP3    H139354  -1.891  -2.707   3.131  0.0667 -0.4506  0.9514
 5053TIP3    H239355  -1.907  -2.569   3.191  1.2927  0.0783  0.0963
 5054TIP3   OH239356  -0.388   1.596   4.860 -0.3456  0.3001  0.5642
 5054TIP3    H139357  -0.442   1.671   4.886 -0.8716  0.2928 -0.4564
 5054TIP3    H239358  -0.308   1.635   4.825 -0.1620  0.3480  1.0352
 5055TIP3   OH239359  -1.535   2.432   5.209 -0.3713  0.1657  0.0626
 5055TIP3    H139360  -1.615   2.441   5.262 -1.9401 -3.0276 -1.5131
 5055TIP3    H239361  -1.486   2.362   5.251 -0.0841 -0.2296 -0.9130
 5056TIP3   OH239362  -1.623   2.146   3.270  0.1231  0.2343 -0.1347
 5056TIP3    H139363  -1.543   2.140   3.322  0.1488 -0.6284 -0.2531
 5056TIP3    H239364  -1.691   2.109   3.327 -0.2521  1.2195  0.0735
 5057TIP3   OH239365  -1.771  -2.360   4.127  0.1779  0.1684 -0.0653
 5057TIP3    H139366  -1.718  -2.286   4.098  1.3389 -1.1389 -1.4136
 5057TIP3    H239367  -1.843  -2.320   4.177  1.3036  2.1124  0.0840
 5058TIP3   OH239368   0.703   2.191   4.575 -0.1788  0.3851  0.0725
 5058TIP3    H139369   0.651   2.265   4.545  0.3427  0.3028 -1.0628
 5058TIP3    H239370   0.676   2.179   4.666 -0.3288  1.9094  0.2531
 5059TIP3   OH239371  -0.653   1.683   3.000 -0.2615  0.3341  0.3594
 5059TIP3    H139372  -0.578   1.624   2.998 -1.1850 -0.8708 -0.3994
 5059TIP3    H239373  -0.673   1.699   2.907 -2.2238 -1.1232  0.4668
 5060TIP3   OH239374   1.271   1.504   4.151 -0.2066  0.3618 -0.2578
 5060TIP3    H139375   1.183   1.468   4.141  0.1992 -0.1789 -2.3651
 5060TIP3    H239376   1.266   1.589   4.107  0.1543  0.6354  0.2293
 5061TIP3   OH239377  -0.420  -1.751   3.755  0.1719 -0.2385 -0.0174
 5061TIP3    H139378  -0.505  -1.787   3.731 -0.2526  0.1981  0.7761
 5061TIP3    H239379  -0.367  -1.828   3.779 -0.3915 -0.4335  0.6468
 5062TIP3   OH239380   2.876  -2.459   4.526 -0.0908 -0.3864  0.6788
 5062TIP3    H139381   2.950  -2.519   4.532  0.5554  0.4465  1.3571
 5062TIP3    H239382   2.900  -2.386   4.584 -0.8690  0.5019 -0.0893
 5063TIP3   OH239383   1.021   3.187   3.909 -0.1555  0.6971 -0.0409
 5063TIP3    H139384   0.936   3.225   3.930 -0.8097 -1.1424  0.8617
 5063TIP3    H239385   1.077   3.210   3.983 -1.0328 -1.4490  1.3705
 5064TIP3   OH239386  -2.526  -0.689   3.742 -0.4015 -0.4753  0.3707
 5064TIP3    H139387  -2.569  -0.752   3.685 -1.3972  0.4191  0.0895
 5064TIP3    H239388  -2.522  -0.733   3.827 -2.5542 -0.3721  0.5984
 5065TIP3   OH239389   0.292   1.522   3.094  0.8905  0.0711  0.3887
 5065TIP3    H139390   0.353   1.448   3.095  1.6019  0.6099 -0.7282
 5065TIP3    H239391   0.246   1.517   3.178  3.5509  0.5181  1.9841
 5066TIP3   OH239392  -1.219  -0.046   3.386  0.6610 -0.1599 -0.2640
 5066TIP3    H139393  -1.193   0.036   3.344 -0.1279 -0.5769 -1.6655
 5066TIP3    H239394  -1.143  -0.103   3.376  1.1769  0.3538  0.6320
 5067TIP3   OH239395   3.230  -2.513   3.145  0.1164  0.0108 -0.2321
 5067TIP3    H139396   3.250  -2.553   3.230 -0.9661 -0.9927 -0.4289
 5067TIP3    H239397   3.187  -2.582   3.095  0.7718  0.5830 -1.6249
 5068TIP3   OH239398   0.571  -1.621   4.144  0.5752  0.5979 -0.2580
 5068TIP3    H139399   0.620  -1.591   4.221  0.0655  0.9705 -0.0769
 5068TIP3    H239400   0.636  -1.665   4.090  0.5608 -1.6391  1.3977
 5069TIP3   OH239401  -0.022   2.036   3.792  0.4338 -0.0396 -0.3113
 5069TIP3    H139402  -0.036   1.941   3.791 -1.1210  0.0332  3.0731
 5069TIP3    H239403  -0.070   2.068   3.716 -1.0837 -1.7477 -0.1291
 5070TIP3   OH239404  -1.969   2.236   3.198 -0.0395 -0.3075 -0.3984
 5070TIP3    H139405  -2.000   2.264   3.112  0.0931  0.3760 -0.2264
 5070TIP3    H239406  -1.880   2.272   3.204 -0.0707 -0.3028  0.0500
 5071TIP3   OH239407  -1.539   0.499   4.982 -0.1820 -0.0734 -0.3446
 5071TIP3    H139408  -1.465   0.529   5.035 -0.7862 -0.2190  0.6111
 5071TIP3    H239409  -1.585   0.437   5.039 -0.3113 -0.9838 -1.3995
 5072TIP3   OH239410   3.234   1.009   5.676  0.3698  0.1784 -0.2662
 5072TIP3    H139411   3.327   0.987   5.675  0.5073  0.3541 -3.6818
 5072TIP3    H239412   3.230   1.095   5.634 -1.2366  0.8707  1.2292
 5073TIP3   OH239413   1.045   3.066   5.319 -0.3369 -0.6454 -0.1983
 5073TIP3    H139414   0.970   3.103   5.272  0.0118 -0.9657 -1.0352
 5073TIP3    H239415   1.103   3.035   5.250  0.5886 -0.3607  0.4377
 5074TIP3   OH239416  -1.109   1.715   3.677  0.5239 -0.0813 -0.0441
 5074TIP3    H139417  -1.160   1.710   3.597  0.8894 -1.2241 -0.2194
 5074TIP3    H239418  -1.099   1.809   3.693  0.4763  0.1680 -1.3507
 5075TIP3   OH239419  -0.300   2.210   2.701  0.3753 -0.6882  0.4125
 5075TIP3    H139420  -0.364   2.281   2.707 -1.8007 -2.0720 -3.1022
 5075TIP3    H239421  -0.232   2.244   2.643 -0.7677 -1.3867 -1.4346
 5076TIP3   OH239422   1.582   2.804   5.858 -0.5157  0.0618  0.1381
 5076TIP3    H139423   1.510   2.828   5.915  0.0051 -1.2525  1.4273
 5076TIP3    H239424   1.646   2.874   5.868 -0.9573  0.4549  0.2003
 5077TIP3   OH239425   3.181  -2.325   4.686  0.0279 -0.0539  0.2917
 5077TIP3    H139426   3.173  -2.271   4.765 -0.6142  0.4072 -0.0829
 5077TIP3    H239427   3.138  -2.274   4.617 -0.1365 -0.8163 -0.1836
 5078TIP3   OH239428   2.741   0.622   5.554  0.2164  0.4036  0.6636
 5078TIP3    H139429   2.670   0.566   5.522  0.3991  0.6881 -0.2672
 5078TIP3    H239430   2.793   0.565   5.610  0.3194 -0.3385 -0.1639
 5079TIP3   OH239431   3.114  -3.215   4.301 -0.4652 -0.0959 -0.2143
 5079TIP3    H139432   3.178  -3.147   4.285 -1.4440  1.2606  1.3055
 5079TIP3    H239433   3.165  -3.288   4.336  0.3024  0.9513  0.9459
 5080TIP3   OH239434   0.132   2.193   4.936 -0.6711  0.4387 -0.8124
 5080TIP3    H139435   0.160   2.220   4.849 -1.4202 -1.5875 -1.7619
 5080TIP3    H239436   0.118   2.098   4.928 -1.2427  0.2776  1.3839
 5081TIP3   OH239437  -3.152  -1.716   3.175 -0.0951 -0.0265  0.7832
 5081TIP3    H139438  -3.200  -1.799   3.172 -0.6812  0.3310 -1.0027
 5081TIP3    H239439  -3.066  -1.740   3.212 -0.1907 -1.4649  0.1596
 5082TIP3   OH239440  -1.424   3.148   5.595  0.2552 -0.4834  0.5780
 5082TIP3    H139441  -1.420   3.090   5.520 -0.1708 -1.0338  0.9667
 5082TIP3    H239442  -1.339   3.193   5.596 -0.4077  0.9447 -1.3172
 5083TIP3   OH239443   2.860   1.771   2.986  0.5807 -0.4846  0.1978
 5083TIP3    H139444   2.945   1.791   3.025 -0.5623  1.8166  1.7702
 5083TIP3    H239445   2.812   1.853   2.991 -1.2166 -1.3067 -2.1214
 5084TIP3   OH239446  -2.085  -0.770   2.228  0.5609  0.1231  0.5471
 5084TIP3    H139447  -2.025  -0.740   2.160 -0.3646 -0.3011 -0.5027
 5084TIP3    H239448  -2.137  -0.693   2.250  1.0005  0.3118  0.9240
 5085TIP3   OH239449  -0.894   2.439   4.276  0.3918 -0.2284 -0.5642
 5085TIP3    H139450  -0.977   2.487   4.276  0.6147  0.2822  1.8054
 5085TIP3    H239451  -0.831   2.500   4.239 -0.0358 -0.1363 -1.1579
 5086TIP3   OH239452  -3.194  -2.478   2.107  0.3088  0.6297 -0.1405
 5086TIP3    H139453  -3.279  -2.510   2.138  0.5889  0.1864  0.1742
 5086TIP3    H239454  -3.185  -2.392   2.147  0.0882  0.6011 -0.0269
 5087TIP3   OH239455   2.988   1.178   3.637  0.1439  0.1198 -0.0716
 5087TIP3    H139456   2.919   1.163   3.701  0.9591 -0.6566  0.6580
 5087TIP3    H239457   3.012   1.270   3.648 -0.3204  0.2140  0.1374
 5088TIP3   OH239458  -1.994   2.623   3.192 -0.1133  0.5200 -0.4987
 5088TIP3    H139459  -1.996   2.603   3.099  1.5130  1.0761 -0.6844
 5088TIP3    H239460  -1.909   2.590   3.222 -1.1578 -0.8976  1.1091
 5089TIP3   OH239461  -2.459   0.402   4.492 -0.2301  0.5297 -0.0174
 5089TIP3    H139462  -2.524   0.336   4.467 -0.5916  0.2359  1.6117
 5089TIP3    H239463  -2.442   0.451   4.411 -1.0445 -0.6183 -0.9053
 5090TIP3   OH239464   3.160   0.284   2.808 -0.3161 -0.0173  0.0209
 5090TIP3    H139465   3.204   0.362   2.774  0.2812 -0.3826 -0.0670
 5090TIP3    H239466   3.078   0.279   2.758  0.6449 -0.6823 -1.5880
 5091TIP3   OH239467  -3.146  -0.736   4.384  0.4674 -0.3168 -0.6714
 5091TIP3    H139468  -3.188  -0.710   4.466  0.4234 -0.2171 -0.7266
 5091TIP3    H239469  -3.136  -0.831   4.392 -0.9777 -0.5400 -1.2126
 5092TIP3   OH239470   2.941  -1.826   4.192  0.1185 -0.5917  0.4543
 5092TIP3    H139471   3.002  -1.897   4.210  0.7424 -0.2640 -0.2663
 5092TIP3    H239472   2.854  -1.865   4.200  0.4041 -0.9785  1.8828
 5093TIP3   OH239473  -2.197   1.525   2.963 -0.1023  0.0371  0.2410
 5093TIP3    H139474  -2.180   1.461   2.894 -0.4087  1.1337 -0.9013
 5093TIP3    H239475  -2.147   1.603   2.937 -0.3252  0.5146  1.1872
 5094TIP3   OH239476  -0.888  -2.096   3.993  0.0849 -0.3624  0.4453
 5094TIP3    H139477  -0.964  -2.129   3.944 -0.0375 -0.1428  0.4872
 5094TIP3    H239478  -0.813  -2.123   3.941 -0.0847  0.8909 -0.4930
 5095TIP3   OH239479  -2.237   2.869   4.848  0.0017  0.1754 -0.3777
 5095TIP3    H139480  -2.322   2.851   4.807 -0.9264  0.6417  1.2421
 5095TIP3    H239481  -2.259   2.925   4.923  1.8764  1.2649 -0.5933
 5096TIP3   OH239482  -2.781   0.426   5.387 -0.1839  0.2253  0.0523
 5096TIP3    H139483  -2.826   0.435   5.303 -1.4953  0.1261  0.7316
 5096TIP3    H239484  -2.688   0.435   5.364 -0.3512 -1.6347 -1.6790
 5097TIP3   OH239485   1.396   0.823   2.565 -0.3360 -0.2861 -0.0576
 5097TIP3    H139486   1.462   0.851   2.502  0.4334 -2.2640 -0.1909
 5097TIP3    H239487   1.313   0.828   2.517  0.1804 -1.2721 -1.0996
 5098TIP3   OH239488   0.824   2.585   4.161  0.2597 -0.1255 -0.6241
 5098TIP3    H139489   0.783   2.634   4.232  0.8214 -1.1274  0.4125
 5098TIP3    H239490   0.751   2.561   4.104 -0.2396  0.4036 -0.2239
 5099TIP3   OH239491   0.435   0.028   5.532  0.2655 -0.2635  0.1037
 5099TIP3    H139492   0.423   0.071   5.447 -0.5844  0.2539  0.4808
 5099TIP3    H239493   0.380  -0.049   5.528  0.3232 -0.3071  0.1451
 5100TIP3   OH239494   0.330   0.201   4.978  0.0636 -0.1960  0.2356
 5100TIP3    H139495   0.254   0.203   4.920  0.9680  0.6965 -1.0020
 5100TIP3    H239496   0.403   0.176   4.921  0.8696 -0.0410  1.1627
 5101TIP3   OH239497  -0.042  -0.217   3.691 -0.1527  0.5052 -0.2521
 5101TIP3    H139498  -0.040  -0.197   3.598 -1.4456  0.5302 -0.2984
 5101TIP3    H239499  -0.118  -0.274   3.702 -0.0446  0.5306  0.7900
 5102TIP3   OH239500   2.444   2.542   3.228  0.4919 -0.0644 -0.5960
 5102TIP3    H139501   2.369   2.487   3.209  0.7237 -0.8101  0.5090
 5102TIP3    H239502   2.515   2.480   3.246  0.7696  0.5678  0.6441
 5103TIP3   OH239503  -0.552  -0.488   3.554  0.3247  0.1919 -0.7842
 5103TIP3    H139504  -0.526  -0.566   3.503  1.0955  0.3692 -0.6833
 5103TIP3    H239505  -0.581  -0.425   3.488  2.5434  0.8973 -1.1836
 5104TIP3   OH239506  -1.356  -3.127   5.638  0.5233 -0.1323 -0.6466
 5104TIP3    H139507  -1.327  -3.216   5.659 -1.7368 -1.1567 -1.5793
 5104TIP3    H239508  -1.434  -3.114   5.692  0.3888  0.9916 -1.0875
 5105TIP3   OH239509   0.413  -1.155   3.193 -0.1467  0.4316  0.2264
 5105TIP3    H139510   0.401  -1.217   3.122  0.9919  1.5884 -1.0449
 5105TIP3    H239511   0.507  -1.155   3.209 -0.1270  1.7715  0.2274
 5106TIP3   OH239512   3.045   2.408   4.123 -0.1138 -0.5176 -0.1833
 5106TIP3    H139513   3.021   2.330   4.173  0.9982  0.5790  2.1933
 5106TIP3    H239514   2.963   2.436   4.081 -1.2294 -1.2465  1.4158
 5107TIP3   OH239515  -2.405  -2.940   2.724 -0.0525  0.2221 -0.1468
 5107TIP3    H139516  -2.443  -2.994   2.655 -2.3943  0.1111  1.1367
 5107TIP3    H239517  -2.356  -3.002   2.778 -0.1871 -0.0914 -0.3785
 5108TIP3   OH239518  -2.028  -0.071   2.905  0.3046 -0.6392 -0.1706
 5108TIP3    H139519  -1.978   0.009   2.922 -1.5756  0.5953 -0.2011
 5108TIP3    H239520  -1.976  -0.119   2.841  1.6323  0.3809  0.1004
 5109TIP3   OH239521   2.650  -0.015   4.534  0.0380 -0.1014  0.3399
 5109TIP3    H139522   2.580  -0.030   4.470  0.4426 -1.7981  0.2577
 5109TIP3    H239523   2.679   0.074   4.517  0.1072 -0.4894 -1.8382
 5110TIP3   OH239524  -1.656  -2.851   3.483 -0.4064 -0.4700 -0.3391
 5110TIP3    H139525  -1.656  -2.926   3.424  0.3939 -0.4443 -0.3746
 5110TIP3    H239526  -1.567  -2.847   3.517 -0.8949 -0.6254  1.0489
 5111TIP3   OH239527   1.878  -1.779   4.289  0.0917  0.2763  0.1726
 5111TIP3    H139528   1.942  -1.733   4.343  0.2055  0.0043  0.2674
 5111TIP3    H239529   1.807  -1.803   4.349  1.2988 -2.1593  0.7341
 5112TIP3   OH239530   0.153  -0.527   4.947 -0.7586 -0.3710 -0.2061
 5112TIP3    H139531   0.152  -0.524   4.851  0.2580 -2.0865 -0.3152
 5112TIP3    H239532   0.169  -0.619   4.968  1.1409  0.2904  1.5786
 5113TIP3   OH239533  -2.554   1.846   4.178  0.4997 -0.0445 -0.6484
 5113TIP3    H139534  -2.546   1.939   4.197 -0.3338 -0.1211  0.1571
 5113TIP3    H239535  -2.515   1.836   4.092  1.0273  0.9679 -0.5439
 5114TIP3   OH239536  -1.141  -2.866   3.948 -0.3203  0.0209 -0.4264
 5114TIP3    H139537  -1.114  -2.943   3.999  0.1877  1.4328  1.5774
 5114TIP3    H239538  -1.068  -2.850   3.888  0.5998  0.2100  0.7020
 5115TIP3   OH239539  -0.039   3.338   2.565 -0.3184 -0.6008 -0.0475
 5115TIP3    H139540   0.017   3.415   2.575 -0.8234 -0.1510 -0.6029
 5115TIP3    H239541  -0.105   3.347   2.633 -0.4244 -0.4959 -0.1626
 5116TIP3   OH239542  -1.983   1.648   2.809  0.8575  0.2036 -0.2880
 5116TIP3    H139543  -1.951   1.561   2.832  0.1958  0.0901  0.2249
 5116TIP3    H239544  -2.026   1.636   2.725  1.2419  0.1442 -0.4772
 5117TIP3   OH239545  -3.326   0.301   5.108 -0.1966 -0.0170 -0.4645
 5117TIP3    H139546  -3.261   0.346   5.161  1.4639  0.8492 -3.0325
 5117TIP3    H239547  -3.340   0.218   5.152  1.5547  0.3859  0.9667
 5118TIP3   OH239548   0.309   2.410   4.908 -0.2817  0.1315 -0.2589
 5118TIP3    H139549   0.347   2.493   4.939  0.5603  0.6898 -2.4957
 5118TIP3    H239550   0.222   2.407   4.947  0.7103  0.6154  2.1750
 5119TIP3   OH239551   0.015  -0.255   4.761  0.7427 -0.0565  0.6730
 5119TIP3    H139552  -0.066  -0.204   4.768 -0.7210 -1.8577 -1.3589
 5119TIP3    H239553   0.006  -0.322   4.829  0.0239 -0.7918 -0.1109
 5120TIP3   OH239554  -2.578  -1.406   3.819 -0.2023 -0.5009  0.3904
 5120TIP3    H139555  -2.634  -1.332   3.843  0.1205 -0.2438  0.3663
 5120TIP3    H239556  -2.551  -1.388   3.729 -0.3249 -0.7751  0.2992
 5121TIP3   OH239557   2.833   1.502   3.415  0.1937 -0.4614  0.0671
 5121TIP3    H139558   2.781   1.577   3.388 -0.7103 -1.1399 -0.1461
 5121TIP3    H239559   2.801   1.480   3.502  1.1866  0.0311  0.5736
 5122TIP3   OH239560   2.902  -0.459   3.801  0.4819 -0.2244  0.5308
 5122TIP3    H139561   2.813  -0.435   3.777  0.7176  0.9373  0.7710
 5122TIP3    H239562   2.895  -0.497   3.889  0.2153 -0.1735  0.5299
 5123TIP3   OH239563  -0.282  -1.578   3.558 -0.2761  0.0981 -0.0687
 5123TIP3    H139564  -0.225  -1.612   3.489 -1.1292  0.4401 -0.9762
 5123TIP3    H239565  -0.315  -1.656   3.602  2.4165 -0.0854  1.8190
 5124TIP3   OH239566   2.405   0.505   2.371  0.0998 -0.1320 -0.3761
 5124TIP3    H139567   2.399   0.441   2.300  1.2112 -1.7711  0.9514
 5124TIP3    H239568   2.499   0.520   2.381 -0.1073  0.9393  0.0264
 5125TIP3   OH239569   0.687   2.324   5.233  0.9473  0.1370  0.1830
 5125TIP3    H139570   0.680   2.326   5.138 -0.0634 -0.3262  0.2444
 5125TIP3    H239571   0.597   2.326   5.265  1.2642  2.5385  1.1876
 5126TIP3   OH239572  -2.112  -1.794   3.991  0.0326  0.1380  0.2299
 5126TIP3    H139573  -2.123  -1.753   3.905  0.1281  0.5086  0.3905
 5126TIP3    H239574  -2.122  -1.887   3.974 -2.3715  0.3453  0.2039
 5127TIP3   OH239575  -1.567   2.947   5.753  0.4122  0.3511 -0.0161
 5127TIP3    H139576  -1.498   2.893   5.793  0.7338  1.4117  0.9353
 5127TIP3    H239577  -1.519   3.019   5.712 -0.0764  0.5000 -0.3306
 5128TIP3   OH239578   2.112   0.041   3.771 -0.0489 -0.0264  0.1143
 5128TIP3    H139579   2.043   0.068   3.832 -0.1927 -0.5959  0.2020
 5128TIP3    H239580   2.173   0.115   3.770  0.7193 -0.5693  2.0668
 5129TIP3   OH239581   2.784   0.297   4.615  0.1643 -0.9884  0.2488
 5129TIP3    H139582   2.872   0.266   4.595 -0.1170 -2.1334  0.6645
 5129TIP3    H239583   2.764   0.360   4.547  0.9500 -1.4195 -0.3983
 5130TIP3   OH239584  -2.539   2.038   3.060  0.2356  0.4680  0.3491
 5130TIP3    H139585  -2.522   2.046   3.153  0.4931 -0.2576  0.3732
 5130TIP3    H239586  -2.634   2.034   3.052  0.2394 -0.3651  0.6645
 5131TIP3   OH239587  -0.386  -2.170   5.311  0.2535  0.5911 -0.2915
 5131TIP3    H139588  -0.455  -2.225   5.350  2.0687 -0.0718  2.2526
 5131TIP3    H239589  -0.409  -2.081   5.338 -0.4292  0.5793 -0.8081
 5132TIP3   OH239590  -0.418  -2.367   4.166  0.7150 -0.6680 -0.5801
 5132TIP3    H139591  -0.503  -2.395   4.134  0.5317 -1.0034  0.1836
 5132TIP3    H239592  -0.394  -2.432   4.232  0.2377  0.9729  1.2982
 5133TIP3   OH239593  -3.047  -0.813   4.686 -0.1238 -0.2233 -0.4664
 5133TIP3    H139594  -3.142  -0.808   4.680 -0.0662  0.8923 -0.5042
 5133TIP3    H239595  -3.020  -0.854   4.603 -0.5376 -0.1221 -0.6539
 5134TIP3   OH239596   2.327  -2.730   4.567  0.0236 -0.3228  0.0681
 5134TIP3    H139597   2.257  -2.795   4.572 -1.0550  0.8507  0.7391
 5134TIP3    H239598   2.308  -2.680   4.487  1.2063 -1.1870 -0.7929
 5135TIP3   OH239599  -3.025   2.524   5.215 -0.4163 -0.3280 -0.7116
 5135TIP3    H139600  -3.047   2.617   5.213  0.6760  0.0924  2.1285
 5135TIP3    H239601  -3.013   2.500   5.123  1.6236  2.9521 -1.4638
 5136TIP3   OH239602   3.075   3.358   5.350 -0.4019  1.0738  1.0872
 5136TIP3    H139603   3.136   3.297   5.390  1.0943  1.8951  0.1237
 5136TIP3    H239604   3.130   3.422   5.305 -1.9718  1.4038 -0.4813
 5137TIP3   OH239605  -1.369  -2.967   4.264 -0.1478 -0.2036  0.0802
 5137TIP3    H139606  -1.303  -2.903   4.236  0.3984 -0.1455  1.4308
 5137TIP3    H239607  -1.343  -2.990   4.353  0.9528 -3.9630 -1.0303
 5138TIP3   OH239608   1.556  -0.953   4.753  0.1556 -0.5490  0.1662
 5138TIP3    H139609   1.534  -0.991   4.838  0.4771 -1.5061 -0.1552
 5138TIP3    H239610   1.557  -1.028   4.694  1.0273 -0.0619 -0.4590
 5139TIP3   OH239611  -2.802  -1.991   3.123  0.1098  0.3373 -0.5431
 5139TIP3    H139612  -2.814  -1.938   3.202 -1.7138 -0.0274 -0.5326
 5139TIP3    H239613  -2.876  -1.969   3.067  1.8977  1.3706 -2.6754
 5140TIP3   OH239614   0.459   1.186   5.528  0.0253  0.2242  0.3886
 5140TIP3    H139615   0.436   1.106   5.481  0.8279  0.1581  0.1052
 5140TIP3    H239616   0.391   1.248   5.504  0.0852  0.0040 -0.3732
 5141TIP3   OH239617  -1.864  -1.576   3.673 -0.0455  0.4323  0.5081
 5141TIP3    H139618  -1.850  -1.482   3.661  0.5508  0.1580 -1.2443
 5141TIP3    H239619  -1.836  -1.592   3.763 -0.6623  2.0030  1.0266
 5142TIP3   OH239620   0.591  -0.832   3.092 -0.7551 -0.3139  0.3911
 5142TIP3    H139621   0.641  -0.909   3.119 -1.6267 -1.5348 -1.2919
 5142TIP3    H239622   0.622  -0.762   3.149  0.4493 -1.7834  1.6195
 5143TIP3   OH239623  -0.172   1.750   3.219 -0.1707  0.1011  0.3934
 5143TIP3    H139624  -0.149   1.706   3.137 -0.4143 -1.0095  0.8910
 5143TIP3    H239625  -0.245   1.698   3.254 -1.6743  1.9667  0.1615
 5144TIP3   OH239626   2.721   1.518   5.075  0.0845  0.2897  0.4790
 5144TIP3    H139627   2.631   1.485   5.066  0.0111  0.3377  0.9950
 5144TIP3    H239628   2.723   1.556   5.162  0.5870  0.3656  0.4342
 5145TIP3   OH239629   0.400  -3.313   4.804 -0.1701  0.0124 -0.0327
 5145TIP3    H139630   0.412  -3.218   4.816 -0.1324  0.1166 -0.8195
 5145TIP3    H239631   0.327  -3.319   4.741  0.2834 -0.4608 -0.5179
 5146TIP3   OH239632  -1.206  -0.384   3.791 -0.1043  0.2561 -0.1622
 5146TIP3    H139633  -1.202  -0.302   3.840 -0.0451  0.4916 -0.5599
 5146TIP3    H239634  -1.230  -0.358   3.702 -1.1509 -0.2514 -0.0467
 5147TIP3   OH239635   2.240   2.943   3.305  0.0456  0.9197 -0.4015
 5147TIP3    H139636   2.302   2.883   3.262  0.5188  0.1615  1.2582
 5147TIP3    H239637   2.295   3.006   3.350 -0.4255  1.3085 -0.3656
 5148TIP3   OH239638  -0.535   1.794   5.045 -0.1819  0.8467 -0.1704
 5148TIP3    H139639  -0.551   1.887   5.062 -0.7010  0.3405  2.5439
 5148TIP3    H239640  -0.614   1.764   5.000 -0.5597  1.4767  0.0563
 5149TIP3   OH239641   0.149   2.696   3.188  0.7475  0.0682  0.5550
 5149TIP3    H139642   0.141   2.729   3.099 -1.1781  1.9450  1.3558
 5149TIP3    H239643   0.191   2.766   3.237 -1.9278  0.8501  1.9383
 5150TIP3   OH239644   0.328   1.875   2.872  0.1923 -0.8639 -0.0756
 5150TIP3    H139645   0.358   1.921   2.793  0.3018 -0.5997  0.1157
 5150TIP3    H239646   0.339   1.940   2.942  1.8259 -1.6846  0.4776
 5151TIP3   OH239647   3.324   2.156   3.308 -0.2140 -0.1128  0.0195
 5151TIP3    H139648   3.397   2.194   3.258 -2.0585  1.6353 -1.4828
 5151TIP3    H239649   3.360   2.143   3.396  2.1156 -0.0190 -0.8235
 5152TIP3   OH239650  -2.708  -2.670   5.187  0.3954 -0.7172 -0.5394
 5152TIP3    H139651  -2.750  -2.600   5.137  0.5671  0.1797  0.5273
 5152TIP3    H239652  -2.626  -2.632   5.218  0.4081 -1.3292  0.2122
 5153TIP3   OH239653  -1.827   0.436   3.190  0.5127  1.0213  0.0730
 5153TIP3    H139654  -1.826   0.513   3.248 -0.2380  0.1839  1.2661
 5153TIP3    H239655  -1.791   0.366   3.244  0.9287  0.4694 -0.9102
 5154TIP3   OH239656  -1.443   0.534   3.667  0.3162  0.8418 -0.5961
 5154TIP3    H139657  -1.531   0.545   3.702 -0.1296  0.8738 -1.6901
 5154TIP3    H239658  -1.445   0.579   3.583  1.3314  0.6923 -0.7160
 5155TIP3   OH239659   1.957  -0.743   5.316  0.3016  0.1927 -0.5352
 5155TIP3    H139660   1.917  -0.827   5.340 -1.4754  0.8596 -0.9526
 5155TIP3    H239661   2.003  -0.761   5.234  0.3783 -0.4948 -0.3494
 5156TIP3   OH239662  -1.830  -2.189   5.196 -0.1595 -0.1187  0.0983
 5156TIP3    H139663  -1.899  -2.129   5.226  0.5097  0.9326 -0.4165
 5156TIP3    H239664  -1.764  -2.185   5.265 -0.1767 -0.3769  0.1300
 5157TIP3   OH239665   2.728   1.899   3.654 -0.5778  0.4018 -0.0217
 5157TIP3    H139666   2.703   1.936   3.570  0.2195  0.0146 -0.4377
 5157TIP3    H239667   2.718   1.971   3.716 -1.8826  0.4895 -0.3057
 5158TIP3   OH239668  -0.704   2.777   5.052 -0.5530  0.4291  0.1732
 5158TIP3    H139669  -0.769   2.777   5.122  1.1482 -1.6159  1.8707
 5158TIP3    H239670  -0.620   2.786   5.096  0.5481 -0.2447 -1.6719
 5159TIP3   OH239671  -0.026  -1.125   4.717 -0.3826  0.5322  0.1904
 5159TIP3    H139672  -0.034  -1.197   4.779  0.4575  1.6270  1.6209
 5159TIP3    H239673   0.054  -1.145   4.668 -0.6876  0.0080 -0.1089
 5160TIP3   OH239674   1.290   1.004   5.876 -0.1655 -0.4885 -0.2256
 5160TIP3    H139675   1.322   1.022   5.965 -0.6303 -1.4750  0.1514
 5160TIP3    H239676   1.340   0.928   5.847  0.7862  0.4739 -1.2751
 5161TIP3   OH239677  -2.946  -0.166   4.179 -0.4660  0.6107  0.4727
 5161TIP3    H139678  -2.852  -0.175   4.190  0.0071  2.8771 -0.9933
 5161TIP3    H239679  -2.974  -0.114   4.254 -0.1640  1.5714 -0.0499
 5162TIP3   OH239680  -0.537   0.074   5.574 -0.0963 -0.4378 -0.0136
 5162TIP3    H139681  -0.493   0.147   5.617 -0.5864 -1.4837  2.4072
 5162TIP3    H239682  -0.624   0.109   5.552  0.1349  0.0917 -0.1102
 5163TIP3   OH239683   1.714  -0.076   3.881  0.2126  0.4520  0.2698
 5163TIP3    H139684   1.713  -0.149   3.943 -0.0498  1.2368  1.2253
 5163TIP3    H239685   1.665  -0.108   3.805  1.1408 -0.7768  0.1523
 5164TIP3   OH239686  -2.416  -0.608   4.960  0.0483 -0.2990 -0.5944
 5164TIP3    H139687  -2.335  -0.577   5.000  0.0894  0.5614 -1.3239
 5164TIP3    H239688  -2.388  -0.676   4.899  0.0097 -1.4268  0.6070
 5165TIP3   OH239689  -0.172  -1.605   4.206 -0.2285  0.2004  0.3969
 5165TIP3    H139690  -0.154  -1.634   4.296  1.0790 -0.7899 -0.1528
 5165TIP3    H239691  -0.210  -1.682   4.164 -2.3246  1.1223  0.4782
 5166TIP3   OH239692   1.500  -0.921   5.506  0.0034  0.5021  0.1062
 5166TIP3    H139693   1.501  -0.839   5.556 -0.3286  0.0416  0.8734
 5166TIP3    H239694   1.407  -0.938   5.490  0.0246 -0.1634  0.6731
 5167TIP3   OH239695   0.462   1.836   5.527 -0.0535 -0.3759  0.1358
 5167TIP3    H139696   0.514   1.757   5.510 -0.8938 -0.7799 -0.6026
 5167TIP3    H239697   0.513   1.907   5.489  0.0251 -0.7537 -0.4663
 5168TIP3   OH239698  -2.428   2.175   3.713 -0.3744  0.3458 -0.2635
 5168TIP3    H139699  -2.453   2.201   3.802  0.4892 -1.3315  0.5128
 5168TIP3    H239700  -2.448   2.082   3.708 -3.0687  0.9237 -2.8493
 5169TIP3   OH239701   1.144   1.465   3.238 -0.1994  0.3250  0.4664
 5169TIP3    H139702   1.152   1.546   3.187  0.9799 -0.5016 -0.7165
 5169TIP3    H239703   1.112   1.494   3.323 -0.6902  1.9295 -0.2282
 5170TIP3   OH239704  -3.075   1.537   4.213 -0.3705 -0.3656  0.0491
 5170TIP3    H139705  -3.038   1.463   4.261 -2.7688 -2.3312 -0.8940
 5170TIP3    H239706  -3.031   1.614   4.249  2.1881 -2.1944  1.1522
 5171TIP3   OH239707   0.006  -0.149   3.388 -0.4654 -0.4274  0.2681
 5171TIP3    H139708   0.042  -0.072   3.344 -0.5776 -0.7628 -0.4221
 5171TIP3    H239709  -0.088  -0.146   3.369 -0.3602 -1.1619 -0.4595
 5172TIP3   OH239710   0.874  -1.981   5.624  0.3765 -0.0584 -0.1776
 5172TIP3    H139711   0.920  -2.065   5.632  0.5518  0.1980  1.9886
 5172TIP3    H239712   0.906  -1.929   5.697 -1.7577  0.9078  0.1367
 5173TIP3   OH239713   2.026   1.836   3.440 -0.6029  0.4254  0.0027
 5173TIP3    H139714   1.964   1.779   3.394  0.1110 -0.3649 -0.0156
 5173TIP3    H239715   2.024   1.918   3.391 -0.0726 -0.3049 -1.2948
 5174TIP3   OH239716  -1.438  -0.300   4.086 -0.0291 -0.0130  0.0985
 5174TIP3    H139717  -1.347  -0.274   4.074  0.0356 -0.0541  0.5032
 5174TIP3    H239718  -1.489  -0.227   4.051  0.1351 -1.0964 -2.6655
 5175TIP3   OH239719   1.656  -2.441   4.610  0.2462 -0.4625 -0.0477
 5175TIP3    H139720   1.742  -2.424   4.571  1.3527  0.4637  2.5988
 5175TIP3    H239721   1.600  -2.373   4.572  1.2685  0.4230 -0.0604
 5176TIP3   OH239722  -2.826   1.883   3.946  0.8137  0.2207  0.0568
 5176TIP3    H139723  -2.778   1.825   4.006  0.8939  1.9808  1.7939
 5176TIP3    H239724  -2.810   1.971   3.980 -2.0588  1.0338 -0.4142
 5177TIP3   OH239725  -0.334   0.589   5.584 -0.3563 -0.2320  0.3681
 5177TIP3    H139726  -0.322   0.539   5.503  0.4875  0.3042  0.1543
 5177TIP3    H239727  -0.337   0.523   5.653 -0.5043 -0.6556 -0.0399
 5178TIP3   OH239728  -2.602  -0.388   4.998 -0.1383 -0.5464 -0.0132
 5178TIP3    H139729  -2.529  -0.440   5.032  0.7605  2.3274  2.9950
 5178TIP3    H239730  -2.677  -0.414   5.052 -0.0970 -0.0376  0.3025
 5179TIP3   OH239731  -3.010  -1.682   4.324  0.0415  0.1373 -0.1323
 5179TIP3    H139732  -3.048  -1.769   4.311  0.0636  0.2287 -0.8311
 5179TIP3    H239733  -3.085  -1.623   4.324  0.1686  0.3276 -1.5975
 5180TIP3   OH239734  -1.872  -2.902   3.931  0.3253  0.3950 -0.0332
 5180TIP3    H139735  -1.872  -2.996   3.951 -0.6423  0.6219  1.1849
 5180TIP3    H239736  -1.833  -2.896   3.844  1.5396 -1.0216  0.3554
 5181TIP3   OH239737   0.185  -1.585   5.839 -0.1827  0.1136  0.2326
 5181TIP3    H139738   0.276  -1.602   5.816 -0.6677 -1.2315 -0.8910
 5181TIP3    H239739   0.145  -1.672   5.843 -1.6176  0.7168 -0.1973
 5182TIP3   OH239740  -2.496  -2.549   4.967  0.9844 -0.2210  0.4289
 5182TIP3    H139741  -2.453  -2.568   4.884 -1.0086 -2.7723 -0.1569
 5182TIP3    H239742  -2.578  -2.506   4.943  1.3598  1.0359  1.2725
 5183TIP3   OH239743   2.162  -2.165   3.626 -0.8502 -0.2246  0.0010
 5183TIP3    H139744   2.095  -2.143   3.690 -0.9894 -0.3530 -0.0989
 5183TIP3    H239745   2.242  -2.178   3.677 -1.0522 -0.7204  0.1854
 5184TIP3   OH239746  -2.018   2.575   5.360  0.3255  0.4174  0.8225
 5184TIP3    H139747  -2.061   2.515   5.300  0.4856 -0.0145  1.1337
 5184TIP3    H239748  -2.087   2.604   5.420  0.5590 -0.7227  1.6822
 5185TIP3   OH239749  -0.555   2.651   3.663  0.0093 -0.0352 -0.2710
 5185TIP3    H139750  -0.597   2.569   3.692  0.3351  0.5579  2.0958
 5185TIP3    H239751  -0.467   2.625   3.636 -0.7604 -0.8171 -2.2450
 5186TIP3   OH239752  -2.840  -1.851   5.356  0.0976  0.1050 -0.4502
 5186TIP3    H139753  -2.777  -1.921   5.335  1.7809  0.3680  2.9598
 5186TIP3    H239754  -2.900  -1.850   5.282  1.8660 -2.7907 -2.1392
 5187TIP3   OH239755  -0.123  -0.688   5.013 -0.0613  0.2003 -0.1305
 5187TIP3    H139756  -0.112  -0.678   5.108 -1.0153 -0.0411  0.0122
 5187TIP3    H239757  -0.037  -0.717   4.983  0.5616  1.2979  0.5069
 5188TIP3   OH239758  -2.519   3.336   4.406  0.3216 -0.0843  0.1125
 5188TIP3    H139759  -2.470   3.389   4.469 -0.0147  1.1909 -0.6552
 5188TIP3    H239760  -2.565   3.271   4.459  3.1308 -1.6373  0.8287
 5189TIP3   OH239761  -0.261   1.327   3.183 -0.3002 -0.1538  0.2827
 5189TIP3    H139762  -0.278   1.246   3.231  0.4961 -0.4610  0.0606
 5189TIP3    H239763  -0.348   1.362   3.162 -0.6456 -0.7920  0.6422
 5190TIP3   OH239764  -3.072   1.682   2.859  0.7733 -0.0620  0.6140
 5190TIP3    H139765  -3.002   1.743   2.883  0.1511  1.0380 -0.2894
 5190TIP3    H239766  -3.031   1.623   2.796  0.8946  0.5717  0.0924
 5191TIP3   OH239767   0.465  -0.438   5.447 -0.3521  0.1627 -0.8968
 5191TIP3    H139768   0.449  -0.532   5.452 -1.1812  0.3411  0.1585
 5191TIP3    H239769   0.547  -0.425   5.494 -1.9193  0.3196  2.0480
 5192TIP3   OH239770  -0.492  -3.128   4.086 -0.1980 -0.1664  0.7576
 5192TIP3    H139771  -0.456  -3.100   4.170  0.1469  2.6855 -0.2161
 5192TIP3    H239772  -0.569  -3.073   4.073  0.9177  1.0093 -1.6465
 5193TIP3   OH239773  -0.637   0.467   4.459 -0.5397 -0.0270  0.1566
 5193TIP3    H139774  -0.560   0.480   4.404 -2.0412  3.5208 -1.4659
 5193TIP3    H239775  -0.608   0.407   4.528  3.2999  0.2837 -0.9593
 5194TIP3   OH239776   2.085   1.502   4.642 -0.1347 -0.1751  0.4850
 5194TIP3    H139777   2.083   1.481   4.549  1.5030  0.5256  0.2534
 5194TIP3    H239778   2.043   1.427   4.684 -1.1313 -0.3891 -0.8223
 5195TIP3   OH239779  -0.965   2.053   3.988  0.2028 -0.5606  0.5185
 5195TIP3    H139780  -0.921   1.984   4.037 -0.1159 -0.6412  0.6932
 5195TIP3    H239781  -0.920   2.134   4.013 -0.1586 -0.5578  1.1945
 5196TIP3   OH239782   1.037   2.530   5.433  0.4589  0.1372 -0.2573
 5196TIP3    H139783   0.965   2.492   5.482  1.6239  1.2507  2.4921
 5196TIP3    H239784   1.109   2.468   5.443  0.6528  0.2632 -0.8018
 5197TIP3   OH239785  -1.932   1.313   2.616 -0.2035 -0.4015 -0.5956
 5197TIP3    H139786  -1.921   1.366   2.538  2.9267  1.0171  0.6558
 5197TIP3    H239787  -1.901   1.226   2.591  1.0214  0.1087 -0.8995
 5198TIP3   OH239788   3.197  -1.142   3.350 -0.5438 -0.3076  0.5337
 5198TIP3    H139789   3.193  -1.236   3.368 -0.2172  0.0669  2.9178
 5198TIP3    H239790   3.277  -1.130   3.300 -0.2071 -1.2170  0.8374
 5199TIP3   OH239791  -1.992   1.462   2.014 -0.3403  0.7809 -0.7172
 5199TIP3    H139792  -1.899   1.456   2.037 -0.2008  0.3272 -1.3472
 5199TIP3    H239793  -2.015   1.373   1.987 -1.4881  0.3939  1.3353
 5200TIP3   OH239794   3.128   2.165   3.127 -0.1888 -0.1410 -0.3008
 5200TIP3    H139795   3.129   2.076   3.094 -0.9921 -0.2051 -0.1899
 5200TIP3    H239796   3.179   2.162   3.208  1.5357 -0.0425 -1.3457
 5201TIP3   OH239797  -1.425   1.022   3.716 -0.0864 -0.1977 -0.2035
 5201TIP3    H139798  -1.330   1.009   3.723 -0.4226 -2.6522  0.9854
 5201TIP3    H239799  -1.438   1.050   3.626  1.5663 -2.6773 -1.3350
 5202TIP3   OH239800   1.017  -0.062   3.564  0.1081 -0.3470  0.3866
 5202TIP3    H139801   1.055  -0.004   3.629 -0.2265 -2.2617  2.4279
 5202TIP3    H239802   0.937  -0.017   3.535  0.8977  1.0889  0.3519
 5203TIP3   OH239803  -1.666   2.332   5.537  0.2995 -0.1662  0.5290
 5203TIP3    H139804  -1.605   2.384   5.589  1.3123 -0.1291 -0.6379
 5203TIP3    H239805  -1.700   2.393   5.471  2.1974 -1.0870 -1.4444
 5204TIP3   OH239806   3.348  -1.521   3.765  0.5217 -0.5963  0.3789
 5204TIP3    H139807   3.263  -1.537   3.806  1.0040  0.9983  2.1899
 5204TIP3    H239808   3.337  -1.438   3.718  1.0685 -0.3130  0.7249
 5205TIP3   OH239809   1.231  -0.362   3.883  0.0013 -0.2483 -0.2739
 5205TIP3    H139810   1.167  -0.338   3.817  0.6823 -0.9442 -1.2183
 5205TIP3    H239811   1.309  -0.313   3.860  0.1889 -0.3558  0.1289
 5206TIP3   OH239812  -1.954   1.554   4.055 -0.4458  0.4919 -0.0990
 5206TIP3    H139813  -1.972   1.497   4.130  3.0504 -0.8968 -0.1447
 5206TIP3    H239814  -1.940   1.495   3.982 -0.5880  1.6453 -1.0934
 5207TIP3   OH239815  -0.260  -0.623   5.890  0.1933 -0.5305 -0.1170
 5207TIP3    H139816  -0.335  -0.624   5.949  0.1217 -1.6424 -0.1980
 5207TIP3    H239817  -0.243  -0.531   5.873  1.0135 -0.0946  2.6592
 5208TIP3   OH239818  -0.489   0.869   2.861  0.1726 -0.1781 -0.6399
 5208TIP3    H139819  -0.584   0.878   2.868  0.1891 -0.3616 -0.1597
 5208TIP3    H239820  -0.468   0.902   2.773 -0.2794  0.2853 -0.5781
 5209TIP3   OH239821   2.765  -1.566   4.377  0.1767 -0.4543 -0.4420
 5209TIP3    H139822   2.801  -1.554   4.289 -0.5814 -0.2628 -0.7283
 5209TIP3    H239823   2.671  -1.578   4.363  0.2638 -2.0906  0.1981
 5210TIP3   OH239824   0.693   0.646   5.061 -0.3135  0.1472  0.3740
 5210TIP3    H139825   0.766   0.592   5.090  0.3918  0.5332 -0.6506
 5210TIP3    H239826   0.639   0.588   5.007 -0.4622  0.0214  0.6552
 5211TIP3   OH239827   1.563   1.617   3.268 -0.4419 -0.1685  0.4604
 5211TIP3    H139828   1.516   1.534   3.254  0.1622 -0.6245  1.0727
 5211TIP3    H239829   1.558   1.632   3.362  1.5483 -0.7949  0.7108
 5212TIP3   OH239830  -2.008  -3.154   4.122 -0.3522 -0.2075  0.0250
 5212TIP3    H139831  -1.990  -3.081   4.181  0.8081 -0.4762  0.0351
 5212TIP3    H239832  -1.970  -3.230   4.165  0.0165 -0.5098 -0.8016
 5213TIP3   OH239833  -1.582  -3.017   4.073 -0.3007 -0.1190  0.3297
 5213TIP3    H139834  -1.500  -2.999   4.120  0.4808 -0.3100 -0.9174
 5213TIP3    H239835  -1.580  -2.958   3.998 -1.1195 -0.4058  0.0746
 5214TIP3   OH239836  -2.785   1.205   3.921 -0.7858  0.6694  0.2064
 5214TIP3    H139837  -2.855   1.227   3.860  0.1720  1.5475 -0.6165
 5214TIP3    H239838  -2.793   1.270   3.991 -0.1397  1.4463 -0.4324
 5215TIP3   OH239839  -3.323  -1.679   4.636  0.7969  0.1078  0.4509
 5215TIP3    H139840  -3.300  -1.766   4.604  0.0972 -0.2793  0.9854
 5215TIP3    H239841  -3.362  -1.694   4.722  0.4854  0.9232  0.4610
 5216TIP3   OH239842   1.330   2.730   4.782 -0.3093  0.6309 -0.2673
 5216TIP3    H139843   1.301   2.811   4.823 -0.3026  0.9500 -0.8727
 5216TIP3    H239844   1.274   2.721   4.705 -1.7808 -1.0792  0.9126
 5217TIP3   OH239845   0.081   2.752   4.121 -0.1644  0.5449  0.1135
 5217TIP3    H139846   0.098   2.778   4.031 -0.4565  0.6649  0.0904
 5217TIP3    H239847   0.013   2.812   4.151  0.0450  0.6098  0.4660
 5218TIP3   OH239848   2.528  -2.356   4.769  0.0970  0.0700  0.6460
 5218TIP3    H139849   2.563  -2.370   4.681 -0.6616  0.2878  0.3061
 5218TIP3    H239850   2.471  -2.431   4.784  0.3589 -0.0546  1.0205
 5219TIP3   OH239851  -1.793   1.397   4.459  0.5047  0.7350 -0.0337
 5219TIP3    H139852  -1.863   1.388   4.394 -0.3890 -0.8497  1.0697
 5219TIP3    H239853  -1.773   1.491   4.460 -0.2837  0.9555 -1.7201
 5220TIP3   OH239854  -0.540  -0.410   5.299  0.5905 -0.3208 -0.2000
 5220TIP3    H139855  -0.510  -0.383   5.212  0.4456  2.8767  0.6197
 5220TIP3    H239856  -0.633  -0.429   5.289  1.1868 -3.1279 -1.2850
 5221TIP3   OH239857  -1.432   1.039   3.443 -0.1642 -0.1817 -0.3689
 5221TIP3    H139858  -1.369   0.970   3.421  0.2008 -0.3998  1.2162
 5221TIP3    H239859  -1.404   1.115   3.391  0.5080 -0.7124 -0.8004
 5222TIP3   OH239860  -0.036  -0.657   3.317 -0.0756 -0.6938 -0.1150
 5222TIP3    H139861  -0.036  -0.752   3.320 -1.5075 -0.7118 -0.0626
 5222TIP3    H239862   0.007  -0.635   3.234  0.1239 -1.3946 -0.1967
 5223TIP3   OH239863  -0.331   1.963   4.894 -0.1041 -0.0865  0.1267
 5223TIP3    H139864  -0.321   1.934   4.803 -2.0949  1.4346 -0.6713
 5223TIP3    H239865  -0.426   1.963   4.908  0.1634 -0.5400  2.3421
 5224TIP3   OH239866   1.853  -1.184   4.800  0.0431  0.0618 -0.5642
 5224TIP3    H139867   1.775  -1.146   4.758 -1.8842 -0.0306  2.5989
 5224TIP3    H239868   1.837  -1.278   4.798 -1.0969  0.1260  1.9274
 5225TIP3   OH239869  -2.426   2.299   4.603  0.2925  0.1188  0.4573
 5225TIP3    H139870  -2.406   2.313   4.511  1.6656  1.2432  0.8902
 5225TIP3    H239871  -2.357   2.241   4.634  0.2007  0.2493  0.9147
 5226TIP3   OH239872  -2.948   0.234   4.436 -0.0835  0.4642  1.0354
 5226TIP3    H139873  -2.955   0.330   4.442  2.7410  0.7929  0.6026
 5226TIP3    H239874  -2.927   0.206   4.525  0.5031  0.4551  0.9038
 5227TIP3   OH239875  -2.703  -2.052   4.111 -0.4762 -0.3727 -0.6210
 5227TIP3    H139876  -2.634  -2.043   4.045  0.4078  0.0154  0.3360
 5227TIP3    H239877  -2.738  -1.964   4.122 -0.7485 -0.4701 -0.6955
 5228TIP3   OH239878   2.508   1.992   2.784 -0.7462 -0.0188 -0.1352
 5228TIP3    H139879   2.463   2.076   2.790 -2.1949 -0.7810 -0.0082
 5228TIP3    H239880   2.448   1.930   2.823  0.5004 -1.0642  0.1903
 5229TIP3   OH239881  -2.321   0.648   3.705  0.0519 -0.6044 -0.1277
 5229TIP3    H139882  -2.388   0.691   3.758  1.7347  0.2833  1.4281
 5229TIP3    H239883  -2.301   0.568   3.753 -1.7089 -2.2613 -2.0053
 5230TIP3   OH239884   2.164  -1.499   4.880  0.5319 -0.1075  0.2519
 5230TIP3    H139885   2.145  -1.469   4.791  2.3105 -0.6280 -0.3563
 5230TIP3    H239886   2.167  -1.594   4.872 -0.4252 -0.2242  1.1393
 5231TIP3   OH239887  -1.023  -3.059   2.265 -0.5587  0.0883  0.1181
 5231TIP3    H139888  -1.114  -3.045   2.239 -0.5815 -1.3410 -0.7121
 5231TIP3    H239889  -0.972  -3.002   2.208 -0.6764 -2.2930 -2.6139
 5232TIP3   OH239890   2.928   0.292   3.332 -0.0212 -0.3970 -0.2523
 5232TIP3    H139891   2.833   0.295   3.336 -0.1470  2.9037 -2.2681
 5232TIP3    H239892   2.957   0.340   3.410 -0.0979  0.0226 -0.4764
 5233TIP3   OH239893  -2.242   2.534   3.287 -0.3119 -0.1741  0.5068
 5233TIP3    H139894  -2.151   2.550   3.263  0.2482 -0.3725  2.3588
 5233TIP3    H239895  -2.272   2.618   3.324  0.1850 -0.9747  2.9124
 5234TIP3   OH239896  -3.160  -2.608   3.270  0.2651  0.1629 -0.0082
 5234TIP3    H139897  -3.135  -2.519   3.291 -0.6040  0.0860  1.4807
 5234TIP3    H239898  -3.233  -2.599   3.209  1.5698  0.4091 -1.6051
 5235TIP3   OH239899   3.227   0.132   3.651  0.0451 -0.2732  0.1464
 5235TIP3    H139900   3.167   0.062   3.674  0.5089 -0.8060 -0.2314
 5235TIP3    H239901   3.178   0.187   3.590 -0.5988  0.1985  1.0651
 5236TIP3   OH239902   2.812  -1.619   3.820  0.4095 -0.2696  0.2011
 5236TIP3    H139903   2.810  -1.534   3.776 -0.0662  0.5670  1.7705
 5236TIP3    H239904   2.874  -1.606   3.892 -1.0159 -0.6755  1.5430
 5237TIP3   OH239905  -1.939   2.851   5.924  0.1664 -0.0402  0.1099
 5237TIP3    H139906  -1.959   2.812   5.839 -2.3769 -1.8950  1.4177
 5237TIP3    H239907  -1.880   2.788   5.966  1.0441  0.6461 -0.0505
 5238TIP3   OH239908   3.217   3.151   5.086  0.1674  0.1579 -0.1894
 5238TIP3    H139909   3.159   3.077   5.104  0.4914  0.3051  1.5901
 5238TIP3    H239910   3.299   3.128   5.128  0.5392  1.1659 -0.3369
 5239TIP3   OH239911  -0.577   1.298   3.072  0.0555  0.2113 -0.0842
 5239TIP3    H139912  -0.629   1.347   3.135  1.1219  0.1384  0.8871
 5239TIP3    H239913  -0.538   1.366   3.016  1.1358  0.4788  0.9505
 5240TIP3   OH239914   0.751   1.548   4.868 -0.0063  0.2692 -0.7750
 5240TIP3    H139915   0.832   1.542   4.918 -1.0452 -0.7172  0.8983
 5240TIP3    H239916   0.760   1.482   4.799 -0.4955 -1.9736  1.1853
 5241TIP3   OH239917   2.772  -1.373   5.119  0.2235  0.2561 -0.3073
 5241TIP3    H139918   2.803  -1.368   5.209 -1.7711  0.1849  0.4486
 5241TIP3    H239919   2.783  -1.465   5.095  0.0269  0.1058  0.1615
 5242TIP3   OH239920  -1.856   1.111   4.550 -0.7962 -0.6826  0.0659
 5242TIP3    H139921  -1.917   1.126   4.478 -0.2316 -0.6317 -0.4021
 5242TIP3    H239922  -1.784   1.171   4.534 -0.3051 -1.2153  0.2520
 5243TIP3   OH239923  -2.772  -1.011   4.667  0.0089 -0.0902 -0.1422
 5243TIP3    H139924  -2.849  -0.958   4.646  0.6111  0.5728 -0.7623
 5243TIP3    H239925  -2.701  -0.947   4.676  0.2306 -0.5627  1.7813
 5244TIP3   OH239926   0.277   0.622   3.307 -0.1758  0.3509 -0.0605
 5244TIP3    H139927   0.200   0.663   3.267 -0.2278  0.8261  0.5129
 5244TIP3    H239928   0.307   0.559   3.241  0.1037  1.5330 -1.0982
 5245TIP3   OH239929  -2.759   2.226   4.309  0.2663  0.2857 -0.1265
 5245TIP3    H139930  -2.734   2.317   4.293 -1.2279  0.7560  0.0144
 5245TIP3    H239931  -2.800   2.227   4.395  0.1800 -0.5167 -0.1526
 5246TIP3   OH239932  -0.023   0.528   5.159 -0.4911  0.2698 -0.0589
 5246TIP3    H139933   0.006   0.509   5.069 -0.0744 -0.8542  0.3012
 5246TIP3    H239934   0.009   0.617   5.176  1.4623 -0.3703 -0.2081
 5247TIP3   OH239935   1.202  -1.198   3.208 -0.0984  0.6741  0.6619
 5247TIP3    H139936   1.236  -1.224   3.294  1.0399  2.0060  0.6572
 5247TIP3    H239937   1.180  -1.105   3.218 -3.3195  0.0308  0.4838
 5248TIP3   OH239938  -2.515   2.546   4.747  0.1111 -0.1167  0.2400
 5248TIP3    H139939  -2.510   2.551   4.842 -1.3234 -1.7629  0.4486
 5248TIP3    H239940  -2.507   2.452   4.727 -0.6104  0.0934 -1.1752
 5249TIP3   OH239941  -2.458  -3.016   5.709 -0.2506 -0.5187 -0.4146
 5249TIP3    H139942  -2.441  -2.926   5.736 -0.4418 -0.2866 -1.0673
 5249TIP3    H239943  -2.444  -3.017   5.615 -0.3593 -1.1457 -0.4310
 5250TIP3   OH239944  -2.660   0.257   4.351  0.5502  0.0526  0.1007
 5250TIP3    H139945  -2.754   0.238   4.350  0.4519  0.4972  0.7407
 5250TIP3    H239946  -2.651   0.339   4.303  0.6007  0.0921  0.1792
 5251TIP3   OH239947   0.304   3.041   3.872 -0.0526 -0.2101  0.2177
 5251TIP3    H139948   0.335   3.121   3.831  0.2884 -0.6876 -0.4827
 5251TIP3    H239949   0.215   3.030   3.839 -0.8976  0.9790  1.9623
 5252TIP3   OH239950  -0.697  -1.151   2.084  1.0995 -0.3529 -0.1056
 5252TIP3    H139951  -0.740  -1.077   2.126 -0.6140 -0.9678 -0.6500
 5252TIP3    H239952  -0.683  -1.123   1.994  1.4653 -0.2877 -0.0261
 5253TIP3   OH239953   0.647  -2.094   3.146 -0.3412  0.0010 -0.1517
 5253TIP3    H139954   0.560  -2.089   3.106 -0.2236 -1.2923 -0.6190
 5253TIP3    H239955   0.686  -2.008   3.130 -2.3732  1.4561  2.1272
 5254TIP3   OH239956   1.052  -2.858   4.723 -0.0315 -0.5390 -0.6186
 5254TIP3    H139957   0.958  -2.844   4.729 -0.0794 -1.0109 -0.2386
 5254TIP3    H239958   1.062  -2.949   4.696  0.3237 -1.1222  1.3078
 5255TIP3   OH239959   1.471   3.000   3.399  0.1509  0.1176  0.2317
 5255TIP3    H139960   1.487   3.092   3.378  1.1043 -0.0205  0.3148
 5255TIP3    H239961   1.459   2.958   3.313 -1.5008  0.5068  0.2344
 5256TIP3   OH239962   1.597   1.328   3.530  0.0209  0.1179 -0.4732
 5256TIP3    H139963   1.675   1.352   3.580 -0.0492  0.4181 -0.5049
 5256TIP3    H239964   1.623   1.337   3.438  0.4366 -1.3340 -0.5211
 5257TIP3   OH239965  -0.663   2.885   3.508  0.5389  0.2849 -0.2464
 5257TIP3    H139966  -0.642   2.794   3.529  0.3788  0.0665 -0.9815
 5257TIP3    H239967  -0.685   2.883   3.415 -1.6253  0.6859  0.2071
 5258TIP3   OH239968  -1.713  -1.640   2.648 -0.3714  0.0486 -0.3420
 5258TIP3    H139969  -1.709  -1.601   2.560 -0.5459  0.9941  0.0578
 5258TIP3    H239970  -1.805  -1.631   2.673 -0.0378  1.1822  0.5418
 5259TIP3   OH239971  -3.315   2.628   5.483 -0.3575  0.0485  0.0576
 5259TIP3    H139972  -3.273   2.663   5.562  0.5398  1.0433 -0.8325
 5259TIP3    H239973  -3.405   2.610   5.510  0.1583 -0.4449  1.5263
 5260TIP3   OH239974  -3.098   0.574   5.636 -0.6457 -0.6831  0.1972
 5260TIP3    H139975  -3.054   0.634   5.696 -1.3966  0.5601 -0.4526
 5260TIP3    H239976  -3.059   0.489   5.655  1.4444  0.2217  0.2010
 5261TIP3   OH239977   1.926   0.625   3.296  0.2412 -0.2868 -0.0594
 5261TIP3    H139978   2.020   0.614   3.282  0.7508  1.5272  1.5893
 5261TIP3    H239979   1.908   0.716   3.274 -1.0292 -0.4508  0.1889
 5262TIP3   OH239980   1.186   1.080   5.625 -0.5678 -0.0033  0.4463
 5262TIP3    H139981   1.174   0.996   5.581  1.7488  0.0458 -0.4304
 5262TIP3    H239982   1.221   1.057   5.711 -1.4256  0.0299  0.8113
 5263TIP3   OH239983  -0.854   1.586   2.426 -0.2820  0.3025  0.8877
 5263TIP3    H139984  -0.896   1.630   2.353 -0.0729  0.6933  1.0009
 5263TIP3    H239985  -0.924   1.572   2.490 -0.5526 -0.4270  0.4334
 5264TIP3   OH239986   2.366  -1.311   3.786  0.6730 -0.5859  0.5558
 5264TIP3    H139987   2.336  -1.357   3.707 -0.3287  3.1048 -1.4133
 5264TIP3    H239988   2.457  -1.340   3.796  0.5849 -1.8077 -1.4334
 5265TIP3   OH239989  -0.720  -1.691   4.603 -0.0382 -0.1779 -0.2316
 5265TIP3    H139990  -0.708  -1.630   4.531 -0.0313  0.6596  0.4674
 5265TIP3    H239991  -0.677  -1.772   4.574  0.0328  0.1715 -1.1212
 5266TIP3   OH239992   0.532  -2.956   4.142 -0.1841 -0.1887  0.3282
 5266TIP3    H139993   0.536  -2.862   4.161 -0.9598  0.0625 -0.6550
 5266TIP3    H239994   0.445  -2.969   4.105 -0.2211 -1.3726  0.8073
 5267TIP3   OH239995   0.301   0.571   4.748 -0.6443  0.7571 -0.3529
 5267TIP3    H139996   0.364   0.598   4.815 -0.8910  0.6948 -0.0939
 5267TIP3    H239997   0.339   0.491   4.711 -0.2646  1.0637 -0.6272
 5268TIP3   OH239998   3.196   2.169   2.330  0.0325  0.1427  0.5484
 5268TIP3    H139999   3.184   2.211   2.415 -1.0121  1.1073 -0.0396
 5268TIP3    H240000   3.273   2.213   2.293 -0.8322  1.3394  0.0930
 5269TIP3   OH240001   3.364  -1.298   2.829 -0.9152 -0.2983  0.4829
 5269TIP3    H140002   3.382  -1.390   2.850  2.3865 -0.2310 -1.4245
 5269TIP3    H240003   3.344  -1.299   2.735 -0.5662  0.9738  0.3816
 5270TIP3   OH240004  -2.624  -1.188   2.400  0.0168 -0.0926  0.0770
 5270TIP3    H140005  -2.580  -1.229   2.325 -1.0949  0.3106 -0.8298
 5270TIP3    H240006  -2.595  -1.239   2.476  0.3156 -1.2098 -0.7602
 5271TIP3   OH240007   3.162  -0.152   4.121  0.1765 -0.1699 -0.0596
 5271TIP3    H140008   3.235  -0.214   4.120 -0.4348 -0.9457 -2.1934
 5271TIP3    H240009   3.089  -0.202   4.157  0.4106  0.2777  1.0669
 5272TIP3   OH240010   0.613  -1.003   1.776  0.0310  0.0591 -0.1176
 5272TIP3    H140011   0.686  -0.977   1.831  0.0796  2.4182 -1.1900
 5272TIP3    H240012   0.537  -0.961   1.815 -0.3730 -0.4935 -0.3009
 5273TIP3   OH240013   2.262   2.048   5.522  0.1877 -0.0434  0.0115
 5273TIP3    H140014   2.351   2.020   5.500  0.5696  1.2092 -0.1226
 5273TIP3    H240015   2.245   2.123   5.464 -0.0020  1.2796  1.6919
 5274TIP3   OH240016  -3.032  -2.050   2.970 -0.9327 -0.0736  0.2287
 5274TIP3    H140017  -3.006  -2.081   2.883 -0.3210 -0.7752  0.6545
 5274TIP3    H240018  -3.103  -2.109   2.997 -0.5467 -0.3884  0.5597
 5275TIP3   OH240019  -0.477   1.186   4.155 -0.0846  0.1424 -0.1811
 5275TIP3    H140020  -0.492   1.280   4.168 -0.6970 -0.1433  1.3248
 5275TIP3    H240021  -0.499   1.171   4.063 -1.9557  1.1027  0.0689
 5276TIP3   OH240022  -2.344  -0.656   4.506 -0.6084 -0.2018 -0.9502
 5276TIP3    H140023  -2.348  -0.602   4.426  0.9518  0.3450 -0.6865
 5276TIP3    H240024  -2.354  -0.593   4.577  1.8242 -0.1243 -0.6151
 5277TIP3   OH240025   0.346   2.984   5.757  0.1195 -0.7684 -0.7182
 5277TIP3    H140026   0.370   3.043   5.686  0.5087 -1.7047 -1.3893
 5277TIP3    H240027   0.255   3.007   5.777  0.0628 -0.3592 -1.3893
 5278TIP3   OH240028  -3.014  -0.010   1.618  0.2189  0.1170  0.7772
 5278TIP3    H140029  -3.043  -0.025   1.708 -4.5346  0.3853 -0.4693
 5278TIP3    H240030  -3.046  -0.086   1.569 -0.2938  1.4919 -1.1660
 5279TIP3   OH240031   1.040  -0.184   5.860 -0.3647 -0.0854  0.8580
 5279TIP3    H140032   1.123  -0.136   5.852  1.1068 -2.4788  1.0188
 5279TIP3    H240033   0.980  -0.121   5.899  0.8765  2.2542 -0.7257
 5280TIP3   OH240034   1.231   2.997   4.836 -0.9551  0.2294  0.3548
 5280TIP3    H140035   1.173   3.066   4.868  1.2499  1.3303  2.3498
 5280TIP3    H240036   1.307   3.043   4.800 -1.0954 -1.1503 -1.9138
 5281TIP3   OH240037  -0.905  -0.517   2.923  0.7234 -0.2909  0.4318
 5281TIP3    H140038  -0.965  -0.500   2.851 -0.1803 -0.0776  1.2178
 5281TIP3    H240039  -0.892  -0.612   2.922  0.8455 -0.2688 -0.1079
 5282TIP3   OH240040   0.277   1.861   4.060  0.0954 -0.4185  0.3322
 5282TIP3    H140041   0.330   1.936   4.033  1.9829 -1.7484  0.1585
 5282TIP3    H240042   0.280   1.801   3.986  0.4112 -1.5706  1.2410
 5283TIP3   OH240043  -0.252  -2.503   3.534 -0.2027  1.0658  0.0301
 5283TIP3    H140044  -0.321  -2.569   3.543  2.2029 -1.5371  0.8140
 5283TIP3    H240045  -0.243  -2.490   3.440  1.0027 -1.8263 -0.3460
 5284TIP3   OH240046   0.885  -0.509   4.767 -0.3509 -0.4018  0.2727
 5284TIP3    H140047   0.978  -0.510   4.788 -0.6250 -0.8064  1.5751
 5284TIP3    H240048   0.879  -0.463   4.684  1.0392 -0.6154  0.0376
 5285TIP3   OH240049   2.147   2.176   2.833  0.2039 -0.1090  0.4941
 5285TIP3    H140050   2.089   2.221   2.771 -0.2318 -2.4221 -0.9083
 5285TIP3    H240051   2.234   2.184   2.795  0.3395  0.6670  0.9526
 5286TIP3   OH240052   0.426   1.497   4.422 -0.0164 -0.2471  0.0364
 5286TIP3    H140053   0.487   1.563   4.389 -2.8929  2.2340 -0.7030
 5286TIP3    H240054   0.393   1.454   4.343 -1.1858  0.3262  0.1970
 5287TIP3   OH240055  -0.688  -1.912   3.647 -0.7136 -0.2751  0.5276
 5287TIP3    H140056  -0.688  -1.956   3.562  1.3923  0.1973  0.2414
 5287TIP3    H240057  -0.694  -1.984   3.711  1.0389 -0.9045  0.0340
 5288TIP3   OH240058  -0.940  -2.512   4.359 -0.1220  0.1103  0.1644
 5288TIP3    H140059  -0.901  -2.532   4.444 -0.3180 -1.2589 -0.0457
 5288TIP3    H240060  -0.910  -2.424   4.339  2.2597 -0.5772  0.3682
 5289TIP3   OH240061  -0.089  -2.995   3.663  0.6014  0.3208  0.3266
 5289TIP3    H140062  -0.109  -2.902   3.670  0.1175  0.2956 -0.6122
 5289TIP3    H240063  -0.003  -2.999   3.621 -0.6515  0.3291 -2.4066
 5290TIP3   OH240064   3.124  -0.498   2.022  0.2872 -0.4233 -0.3011
 5290TIP3    H140065   3.214  -0.475   1.996  0.9029 -1.2293  1.0155
 5290TIP3    H240066   3.082  -0.413   2.036  0.4537  0.0040 -2.0622
 5291TIP3   OH240067  -1.377   2.596   4.790  0.1001  0.2735 -0.0699
 5291TIP3    H140068  -1.348   2.530   4.854 -1.4609 -0.5404 -0.1483
 5291TIP3    H240069  -1.340   2.567   4.707 -0.4430 -0.4526 -0.0746
 5292TIP3   OH240070   1.108  -1.556   3.403  0.0922 -0.0218  0.0859
 5292TIP3    H140071   1.132  -1.612   3.477  1.3690 -1.4405 -1.3187
 5292TIP3    H240072   1.162  -1.478   3.413  0.6676 -0.4479  0.3468
 5293TIP3   OH240073  -1.993   1.888   4.859 -0.0964  0.0060 -0.6448
 5293TIP3    H140074  -1.903   1.885   4.893 -0.1673  1.0577 -0.3438
 5293TIP3    H240075  -2.009   1.799   4.829  0.2665 -0.7914  1.3195
 5294TIP3   OH240076  -1.586  -3.200   2.868 -0.3383 -0.0446  0.3773
 5294TIP3    H140077  -1.554  -3.230   2.783  0.9093  0.9059  0.4803
 5294TIP3    H240078  -1.681  -3.192   2.856 -0.1334  0.5814 -1.0905
 5295TIP3   OH240079   0.864  -2.767   5.121 -0.4012 -0.0709 -0.1265
 5295TIP3    H140080   0.787  -2.714   5.139  0.1576  1.1648 -1.1992
 5295TIP3    H240081   0.938  -2.713   5.150  0.0894 -1.2827  1.0057
 5296TIP3   OH240082  -2.108   0.265   5.429  0.3693  0.0760  0.5883
 5296TIP3    H140083  -2.116   0.191   5.489  0.0538  2.0694  3.1958
 5296TIP3    H240084  -2.197   0.300   5.421  0.6977  0.8853  0.3729
 5297TIP3   OH240085  -2.833  -0.731   5.839 -0.6318  1.0328 -0.0460
 5297TIP3    H140086  -2.844  -0.659   5.777  1.4915  1.0972 -0.4005
 5297TIP3    H240087  -2.795  -0.689   5.917 -1.2192  0.5929  0.4890
 5298TIP3   OH240088  -2.558  -1.195   5.765  0.2104  0.0502 -0.3908
 5298TIP3    H140089  -2.538  -1.275   5.716  0.9481 -0.0694  0.0928
 5298TIP3    H240090  -2.511  -1.126   5.718 -1.9261  0.5579 -1.9327
 5299TIP3   OH240091   0.218   0.155   5.705  0.1766  0.9903  0.1087
 5299TIP3    H140092   0.246   0.239   5.741  1.3516  1.4446 -1.7432
 5299TIP3    H240093   0.297   0.119   5.665  0.0325 -1.6564  1.9632
 5300TIP3   OH240094  -0.845  -1.006   3.228 -0.1323  0.1873  0.0631
 5300TIP3    H140095  -0.938  -1.016   3.208 -0.0142 -0.7671 -0.0657
 5300TIP3    H240096  -0.828  -0.913   3.217 -1.0314  0.3419 -0.0973
 5301TIP3   OH240097   3.063  -1.969   2.637 -0.0294  0.6266  0.3604
 5301TIP3    H140098   3.025  -2.040   2.586  0.2421  0.7698 -0.0466
 5301TIP3    H240099   3.155  -1.993   2.647  0.0511  0.8920  0.2664
 5302TIP3   OH240100   1.415  -0.838   3.060 -0.3972 -0.2454 -0.0593
 5302TIP3    H140101   1.440  -0.776   3.128  0.7301 -0.9810  0.2263
 5302TIP3    H240102   1.324  -0.860   3.080 -0.9419  1.5692 -0.3915
 5303TIP3   OH240103  -1.293  -3.025   2.217  0.3878 -0.2080  0.3290
 5303TIP3    H140104  -1.376  -3.062   2.189 -0.1070  0.6228  0.6638
 5303TIP3    H240105  -1.294  -2.935   2.184  1.7751 -0.5875 -0.8960
 5304TIP3   OH240106   0.131  -0.549   3.780 -0.4369 -0.0893  0.1401
 5304TIP3    H140107   0.035  -0.546   3.787 -0.5492 -1.5956 -0.3088
 5304TIP3    H240108   0.162  -0.530   3.868 -1.0754  1.9603 -0.0329
 5305TIP3   OH240109  -1.521   2.698   3.867  0.2030 -0.5837 -0.0994
 5305TIP3    H140110  -1.437   2.742   3.858  0.8016 -1.6879 -0.1422
 5305TIP3    H240111  -1.574   2.757   3.920  1.6545 -0.7254  1.5708
 5306TIP3   OH240112   1.012  -1.819   5.786  0.0458  0.4576  0.1116
 5306TIP3    H140113   1.069  -1.758   5.832  1.8357 -1.5802  0.7426
 5306TIP3    H240114   1.070  -1.868   5.728 -1.4386 -0.2239 -0.8610
 5307TIP3   OH240115   3.285   0.065   4.018  0.2086  0.3195  0.0363
 5307TIP3    H140116   3.226   0.007   4.068  0.6756  0.3219  0.6080
 5307TIP3    H240117   3.333   0.006   3.961 -0.2603  0.3033 -0.3474
 5308TIP3   OH240118  -0.877   0.549   2.839 -0.4546  0.5307  0.3097
 5308TIP3    H140119  -0.859   0.631   2.886 -0.6928  0.5126  0.4391
 5308TIP3    H240120  -0.926   0.576   2.762 -0.7861  0.4855  0.5019
 5309TIP3   OH240121  -2.110  -2.856   4.501  0.1317 -0.0892  0.0110
 5309TIP3    H140122  -2.167  -2.812   4.438  0.3480 -0.4680 -0.4484
 5309TIP3    H240123  -2.171  -2.892   4.566 -0.0941  0.2155 -0.0253
 5310TIP3   OH240124  -3.202   1.075   5.643 -0.1966 -0.2107  0.4427
 5310TIP3    H140125  -3.120   1.059   5.691  0.5614 -0.6775 -0.9496
 5310TIP3    H240126  -3.201   1.169   5.626 -0.1384 -0.1548  0.7409
 5311TIP3   OH240127  -1.733   1.134   4.831  0.3484 -0.7365  0.0167
 5311TIP3    H140128  -1.766   1.178   4.910  0.5735 -0.7302  0.1068
 5311TIP3    H240129  -1.808   1.134   4.771  1.1742  2.7548 -1.3013
 5312TIP3   OH240130   3.135  -0.325   4.700  0.1562 -0.0387  0.4647
 5312TIP3    H140131   3.221  -0.308   4.738 -0.0832  1.7099  0.3139
 5312TIP3    H240132   3.074  -0.277   4.757 -0.4273  0.8901 -0.9072
 5313TIP3   OH240133   2.646  -0.165   4.877 -0.0946  0.6749 -0.0924
 5313TIP3    H140134   2.668  -0.256   4.894  1.4476  1.1184  0.4930
 5313TIP3    H240135   2.635  -0.126   4.964 -2.8151  0.6284 -0.3354
 5314TIP3   OH240136   1.510  -1.209   3.973 -0.4442 -0.0912 -0.4869
 5314TIP3    H140137   1.531  -1.287   3.921 -0.9363  0.9678 -2.3670
 5314TIP3    H240138   1.513  -1.137   3.911  1.0598  1.6067  1.4201
 5315TIP3   OH240139  -0.259  -0.427   2.922 -0.0710 -0.1016 -0.4144
 5315TIP3    H140140  -0.267  -0.410   2.829 -0.4529 -1.3464 -0.6385
 5315TIP3    H240141  -0.286  -0.519   2.932 -0.6099  0.1824  0.9975
 5316TIP3   OH240142  -1.603  -2.416   5.600  0.3780 -0.3051  0.3208
 5316TIP3    H140143  -1.630  -2.339   5.651 -0.6805 -1.0040  0.8412
 5316TIP3    H240144  -1.507  -2.411   5.599  0.3521  0.6325  0.9545
 5317TIP3   OH240145  -2.375   1.875   5.107  0.2153  0.3639  0.3697
 5317TIP3    H140146  -2.375   1.800   5.167 -0.1582  0.3426  0.3461
 5317TIP3    H240147  -2.468   1.890   5.088  0.3854 -0.4816 -1.2788
 5318TIP3   OH240148   1.738  -0.300   4.296 -0.1740  0.6951  0.2855
 5318TIP3    H140149   1.738  -0.206   4.277  1.0382  1.0820  1.8898
 5318TIP3    H240150   1.708  -0.341   4.215 -1.7061  2.5018 -0.1392
 5319TIP3   OH240151  -0.880  -0.122   5.866  0.1714 -0.5434 -0.1385
 5319TIP3    H140152  -0.796  -0.137   5.908  0.2620  1.7353  0.6150
 5319TIP3    H240153  -0.858  -0.101   5.775  0.5144  0.8278  0.2441
 5320TIP3   OH240154  -3.047   2.945   2.700  0.2034  0.3866  0.7152
 5320TIP3    H140155  -3.134   2.962   2.664  1.0981  0.0443 -1.8011
 5320TIP3    H240156  -3.027   2.855   2.673  0.7955 -0.0407  2.4766
 5321TIP3   OH240157  -1.442   1.611   3.299  0.0373  0.4703 -0.5350
 5321TIP3    H140158  -1.360   1.593   3.253  0.8328 -2.4166  1.7056
 5321TIP3    H240159  -1.498   1.536   3.279 -0.1217 -0.1540  1.8797
 5322TIP3   OH240160   3.362   1.575   5.696 -0.5648 -0.0086  0.0562
 5322TIP3    H140161   3.309   1.497   5.683 -1.6091  0.3746  1.7897
 5322TIP3    H240162   3.302   1.641   5.730 -0.1727  2.2762 -3.2299
 5323TIP3   OH240163   2.669  -2.724   2.541 -0.3549  0.1429 -0.1567
 5323TIP3    H140164   2.587  -2.677   2.525  0.0590  0.6318 -0.9248
 5323TIP3    H240165   2.733  -2.680   2.484  0.5042 -0.0536  0.6377
 5324TIP3   OH240166   1.919  -2.625   3.450  0.2287 -0.2536  0.0432
 5324TIP3    H140167   1.836  -2.622   3.402  0.0583  1.5541  0.3784
 5324TIP3    H240168   1.913  -2.704   3.504 -1.4686  0.0782  0.3991
 5325TIP3   OH240169   3.342  -1.269   3.606 -0.3888  0.3591  0.0087
 5325TIP3    H140170   3.383  -1.184   3.625 -1.7096  0.9415  0.3448
 5325TIP3    H240171   3.399  -1.309   3.540 -0.1832  1.8655 -0.7671
 5326TIP3   OH240172  -3.283   0.321   2.956 -0.1926 -0.0686  0.0927
 5326TIP3    H140173  -3.354   0.384   2.958 -1.8042 -1.6773 -1.7553
 5326TIP3    H240174  -3.325   0.236   2.972  1.2293 -1.1072 -1.3223
 5327TIP3   OH240175  -2.692   0.986   3.733  0.2896 -0.6523  0.0986
 5327TIP3    H140176  -2.748   0.917   3.767 -0.8063  0.0696 -0.1860
 5327TIP3    H240177  -2.725   1.066   3.773  0.4113 -0.0715 -0.9126
 5328TIP3   OH240178  -1.075   2.905   4.010 -0.4317 -0.1987  0.2775
 5328TIP3    H140179  -1.140   2.921   4.078 -0.5404  0.5706  0.0081
 5328TIP3    H240180  -0.995   2.882   4.057  0.3809  3.3320  0.8735
 5329TIP3   OH240181   3.014   0.022   2.670 -0.2963  0.1019 -0.3874
 5329TIP3    H140182   2.960  -0.045   2.629  0.7447 -0.4962 -0.8175
 5329TIP3    H240183   2.970   0.105   2.648 -1.3494 -0.4024 -0.2197
 5330TIP3   OH240184  -1.445   0.066   4.407 -0.2061 -0.1179  0.9941
 5330TIP3    H140185  -1.431   0.143   4.352 -2.2295 -1.2689 -1.3445
 5330TIP3    H240186  -1.405  -0.006   4.357 -0.1254 -0.8930  2.1380
 5331TIP3   OH240187  -1.897   0.960   3.001  0.0543  0.0162  0.0759
 5331TIP3    H140188  -1.812   0.964   2.957 -1.1537  1.0236 -2.3615
 5331TIP3    H240189  -1.887   1.017   3.077  1.2748  0.9793 -0.7654
 5332TIP3   OH240190   0.917   0.464   5.651 -0.0521 -0.2694 -0.5309
 5332TIP3    H140191   0.871   0.539   5.690  0.8627  0.1182 -0.1607
 5332TIP3    H240192   0.880   0.456   5.563  1.7309  2.4256 -1.6771
 5333TIP3   OH240193   1.241   3.177   3.255 -0.3530 -0.5760 -0.7028
 5333TIP3    H140194   1.173   3.162   3.321 -0.7213  0.0947 -0.9133
 5333TIP3    H240195   1.261   3.090   3.220 -0.5236 -0.8722 -0.0680
 5334TIP3   OH240196   1.633  -1.487   5.845 -0.2726 -0.0896 -0.3402
 5334TIP3    H140197   1.556  -1.510   5.793  0.5118  0.2226 -1.6762
 5334TIP3    H240198   1.654  -1.567   5.893 -0.4973 -0.6697 -1.1814
 5335TIP3   OH240199  -3.332   0.957   3.557 -0.4047  0.5848 -0.4849
 5335TIP3    H140200  -3.252   0.967   3.609  0.2026 -1.5312 -0.9149
 5335TIP3    H240201  -3.329   1.031   3.495 -0.0916  1.9467  1.0764
 5336TIP3   OH240202  -2.569   1.218   4.637  1.0200 -0.3488  0.1872
 5336TIP3    H140203  -2.583   1.270   4.716  1.5212 -0.9760  0.7011
 5336TIP3    H240204  -2.481   1.241   4.608  0.9739 -0.3860  0.0183
 5337TIP3   OH240205   2.408   0.592   4.188  0.0027 -0.1991  0.4465
 5337TIP3    H140206   2.425   0.497   4.188  0.4147 -0.1354  1.1002
 5337TIP3    H240207   2.432   0.620   4.276  1.2605  0.7563 -0.1672
 5338TIP3   OH240208   0.978   1.591   5.492 -0.2243 -0.1715  0.3349
 5338TIP3    H140209   0.909   1.562   5.433  0.7476  0.1101 -1.0024
 5338TIP3    H240210   0.950   1.678   5.520  0.3852  0.7135 -1.6277
 5339TIP3   OH240211   1.696   2.584   4.502  1.1286 -0.4634 -0.3783
 5339TIP3    H140212   1.667   2.625   4.583  1.8396 -0.8520  0.0868
 5339TIP3    H240213   1.625   2.600   4.440 -0.0485 -1.3331  0.6872
 5340TIP3   OH240214   2.429  -2.860   3.524  0.1199 -0.5774  0.2907
 5340TIP3    H140215   2.340  -2.894   3.534  0.1857 -0.7780  0.2081
 5340TIP3    H240216   2.420  -2.787   3.463 -0.2042  0.3086  1.3445
 5341TIP3   OH240217  -3.316  -1.250   2.301  0.0837  0.0615  0.6860
 5341TIP3    H140218  -3.401  -1.215   2.276 -0.2701 -0.7052  0.8005
 5341TIP3    H240219  -3.257  -1.224   2.230 -0.1716  0.8660  0.7617
 5342TIP3   OH240220   2.099   0.017   5.655 -0.0552  0.2754 -0.1567
 5342TIP3    H140221   2.014   0.062   5.656  0.6611  1.6844  0.2502
 5342TIP3    H240222   2.163   0.087   5.669  1.1241 -0.8963  0.4899
 5343TIP3   OH240223  -1.952   2.216   2.897 -0.2461 -0.3454  0.2449
 5343TIP3    H140224  -1.928   2.196   2.807  4.1052 -1.9124  1.4742
 5343TIP3    H240225  -1.965   2.130   2.937  0.7252  0.1275  1.6625
 5344TIP3   OH240226   1.588  -2.598   5.831 -0.4589  0.7222 -0.5282
 5344TIP3    H140227   1.665  -2.565   5.879  0.2947  0.9084 -1.8259
 5344TIP3    H240228   1.575  -2.687   5.865  1.4128  0.0284 -1.4848
 5345TIP3   OH240229  -0.493  -0.808   2.408  0.0592 -0.1324  0.0654
 5345TIP3    H140230  -0.574  -0.834   2.365 -0.2574 -1.0945  1.1904
 5345TIP3    H240231  -0.467  -0.727   2.363  0.9282 -2.1293 -3.3742
 5346TIP3   OH240232  -2.694   0.965   2.214  0.9790 -0.1731 -0.0065
 5346TIP3    H140233  -2.656   1.053   2.211  1.8494 -0.5423 -0.2451
 5346TIP3    H240234  -2.676   0.929   2.127 -0.3955 -0.1800 -0.3025
 5347TIP3   OH240235   0.258   0.781   3.966  0.0356  0.0206  0.5981
 5347TIP3    H140236   0.304   0.816   3.890 -1.5808  2.1713  0.5134
 5347TIP3    H240237   0.320   0.790   4.038  1.1925 -1.0315 -0.2239
 5348TIP3   OH240238  -1.251   0.414   2.949  0.1621 -0.2078 -0.2751
 5348TIP3    H140239  -1.251   0.503   2.914 -1.0940  0.4766  1.3428
 5348TIP3    H240240  -1.319   0.368   2.900  0.3438 -0.0845 -0.6444
 5349TIP3   OH240241   1.375   1.596   5.364 -0.4850 -0.4375 -0.3423
 5349TIP3    H140242   1.455   1.551   5.391  1.3992  2.5802 -0.4101
 5349TIP3    H240243   1.305   1.550   5.410  1.2635 -3.0675 -0.1016
 5350TIP3   OH240244  -2.264   2.113   3.021 -0.0974 -0.1004 -0.4059
 5350TIP3    H140245  -2.220   2.068   3.092  0.7323  0.3631 -0.6078
 5350TIP3    H240246  -2.351   2.074   3.017 -0.5504  0.6237  1.5770
 5351TIP3   OH240247   1.340  -1.834   3.832 -0.0468  0.3366 -0.0564
 5351TIP3    H140248   1.280  -1.904   3.806 -0.4168  0.5788  0.1539
 5351TIP3    H240249   1.426  -1.876   3.832 -0.2127 -0.0083 -0.3576
 5352TIP3   OH240250  -0.648   1.439   4.663  0.6764 -0.0032 -0.1494
 5352TIP3    H140251  -0.611   1.423   4.576  0.0547  1.6900 -0.7522
 5352TIP3    H240252  -0.707   1.514   4.652  2.0153  1.5135  2.0821
 5353TIP3   OH240253  -2.251  -2.069   4.147  0.6970 -0.4806 -0.8159
 5353TIP3    H140254  -2.286  -2.157   4.166  1.7200 -1.0515 -1.4701
 5353TIP3    H240255  -2.226  -2.035   4.233  0.2975 -0.8309 -0.5528
 5354TIP3   OH240256  -2.633  -0.180   2.744  0.4131  0.0858  0.0923
 5354TIP3    H140257  -2.671  -0.111   2.689  1.8211  0.2045 -0.7775
 5354TIP3    H240258  -2.702  -0.245   2.751  0.1031  0.1821 -1.6390
 5355TIP3   OH240259   0.301   2.156   4.665 -0.3832 -0.6064  0.4519
 5355TIP3    H140260   0.277   2.247   4.645  1.3437 -0.0611  0.7538
 5355TIP3    H240261   0.394   2.150   4.643 -0.7797 -2.7231 -0.9412
 5356TIP3   OH240262   0.914  -2.778   3.675  0.0704  0.0926 -0.2171
 5356TIP3    H140263   0.920  -2.811   3.585  2.0965  1.8553 -0.7963
 5356TIP3    H240264   0.821  -2.758   3.687 -0.8769 -3.3835 -0.6332
 5357TIP3   OH240265  -1.392  -0.650   3.508 -0.1982  0.3080 -0.0921
 5357TIP3    H140266  -1.433  -0.587   3.449 -0.0580  0.4815 -0.0047
 5357TIP3    H240267  -1.298  -0.633   3.500  0.0915 -1.7384 -2.2136
 5358TIP3   OH240268   0.880   1.500   3.733  0.2014 -0.0517  0.5683
 5358TIP3    H140269   0.907   1.493   3.825 -0.9810  0.9256  1.0141
 5358TIP3    H240270   0.923   1.578   3.700 -0.0404  0.0675  0.5334
 5359TIP3   OH240271   2.781   2.635   3.106  0.3531  0.2750  0.3503
 5359TIP3    H140272   2.866   2.592   3.119  0.4751  0.0690 -1.0063
 5359TIP3    H240273   2.723   2.565   3.075  0.3303  0.9040 -1.0806
 5360TIP3   OH240274  -2.948  -3.235   3.574  0.0259 -0.2529 -0.7091
 5360TIP3    H140275  -2.931  -3.278   3.658 -0.5662  0.2994 -0.2918
 5360TIP3    H240276  -2.892  -3.157   3.575 -1.0235  0.5414 -0.1628
 5361TIP3   OH240277   1.441   3.071   2.418 -0.0632  0.1720 -0.3417
 5361TIP3    H140278   1.429   2.978   2.396 -1.9944  0.6879 -1.7381
 5361TIP3    H240279   1.507   3.102   2.356  0.7588 -0.2976  0.2791
 5362TIP3   OH240280  -1.758   1.718   4.752 -0.4954  0.0327  0.0818
 5362TIP3    H140281  -1.725   1.641   4.705 -2.4582  0.9114 -3.0245
 5362TIP3    H240282  -1.853   1.715   4.741 -0.7515  2.1165  1.1888
 5363TIP3   OH240283  -1.493  -1.887   3.662 -0.0154  0.1251  0.0905
 5363TIP3    H140284  -1.546  -1.965   3.681  3.1554 -2.0041  0.9634
 5363TIP3    H240285  -1.506  -1.830   3.738  1.1221 -1.6690  1.7103
 5364TIP3   OH240286   1.560  -2.145   3.999  0.3815 -0.5364  0.2066
 5364TIP3    H140287   1.595  -2.121   4.085  0.4103  1.0197 -0.2064
 5364TIP3    H240288   1.623  -2.109   3.936 -1.2905  1.2984 -0.5237
 5365TIP3   OH240289   3.105   2.472   4.813  0.1150  0.4677  0.0966
 5365TIP3    H140290   3.143   2.543   4.761  0.5657 -0.3543 -0.7497
 5365TIP3    H240291   3.046   2.515   4.875  0.6603  1.5927 -0.1485
 5366TIP3   OH240292  -0.385   0.879   2.605  0.3891  0.5363  0.0136
 5366TIP3    H140293  -0.292   0.897   2.607  0.7572 -1.1710  0.3133
 5366TIP3    H240294  -0.413   0.907   2.518  1.1204  1.2986  0.0157
 5367TIP3   OH240295  -0.122  -0.080   4.544 -0.2904 -0.2119  1.0706
 5367TIP3    H140296  -0.175  -0.159   4.559  1.0684 -1.1474  1.1369
 5367TIP3    H240297  -0.091  -0.089   4.454 -1.2375  0.9532  0.6156
 5368TIP3   OH240298  -1.846   1.731   3.319 -0.1485 -0.2504 -0.0925
 5368TIP3    H140299  -1.935   1.703   3.340 -0.1140 -2.1487 -2.0873
 5368TIP3    H240300  -1.790   1.673   3.370  0.0386  1.7682  2.1437
 5369TIP3   OH240301  -0.961   2.928   3.632  0.5520 -0.0194  0.1248
 5369TIP3    H140302  -0.884   2.948   3.579  2.4159  2.3421  3.3834
 5369TIP3    H240303  -0.983   2.837   3.610  3.8931 -0.5936 -1.4031
 5370TIP3   OH240304   2.626   0.439   5.388  0.1636  0.8008 -0.2149
 5370TIP3    H140305   2.703   0.394   5.354 -1.4178 -1.6738 -0.8781
 5370TIP3    H240306   2.586   0.480   5.312  1.2131  2.8022  0.2687
 5371TIP3   OH240307   2.532   2.228   5.567 -0.4442 -0.1745  0.2081
 5371TIP3    H140308   2.533   2.271   5.481  0.0485  1.2258  0.8705
 5371TIP3    H240309   2.473   2.154   5.557  0.4273 -0.6750 -1.6315
 5372TIP3   OH240310   1.087  -1.102   3.505  0.3882  0.0307  0.3676
 5372TIP3    H140311   1.182  -1.089   3.510  0.2383  2.0014 -0.6030
 5372TIP3    H240312   1.062  -1.129   3.593  2.0034 -1.9970  0.2725
 5373TIP3   OH240313  -2.562   1.365   5.194 -0.2258  0.0072 -0.1922
 5373TIP3    H140314  -2.535   1.346   5.283  1.8365 -0.9722 -0.9563
 5373TIP3    H240315  -2.587   1.458   5.195 -1.8550 -0.3883  1.6991
 5374TIP3   OH240316   0.380   3.181   3.118  0.6722 -0.7133 -0.1686
 5374TIP3    H140317   0.371   3.126   3.040  0.8061 -1.1048  0.0896
 5374TIP3    H240318   0.294   3.222   3.128  0.5375 -0.9617 -0.2968
 5375TIP3   OH240319  -0.990  -1.075   4.963  0.4358  0.4400  0.1902
 5375TIP3    H140320  -0.972  -1.063   4.869  1.1911  0.1825  0.2966
 5375TIP3    H240321  -0.926  -1.020   5.007 -0.9558  1.8442  0.5474
 5376TIP3   OH240322  -2.936  -0.038   3.853  0.1847 -0.0291  0.0880
 5376TIP3    H140323  -2.975   0.043   3.822  0.2409  0.2680  0.7644
 5376TIP3    H240324  -2.920  -0.022   3.946  0.1462 -0.8346  0.2363
 5377TIP3   OH240325   3.012   2.235   4.345 -0.1807 -0.0663  0.2120
 5377TIP3    H140326   3.042   2.273   4.428  2.2082 -2.5052  0.6218
 5377TIP3    H240327   2.943   2.173   4.370  1.0447 -1.3442  0.5461
 5378TIP3   OH240328   0.124  -1.084   3.931  0.3753 -0.2071 -0.1637
 5378TIP3    H140329   0.158  -1.028   3.861 -0.8898  1.0261  0.1585
 5378TIP3    H240330   0.127  -1.029   4.010  0.1247 -0.9760  0.3990
 5379TIP3   OH240331   2.745   0.595   4.108  0.1666 -0.0643  0.3717
 5379TIP3    H140332   2.807   0.546   4.054 -1.4693 -2.4643  0.5008
 5379TIP3    H240333   2.696   0.648   4.046 -0.5441 -1.4872 -0.3327
 5380TIP3   OH240334  -2.115  -0.427   5.477 -0.5556  0.4904  0.3251
 5380TIP3    H140335  -2.117  -0.523   5.478  2.2070  0.2934 -1.3319
 5380TIP3    H240336  -2.198  -0.402   5.437 -1.7627 -1.1018  1.6475
 5381TIP3   OH240337  -0.499  -2.479   2.865 -0.1897  0.1235  0.0942
 5381TIP3    H140338  -0.443  -2.547   2.828 -0.5205 -0.2756  0.3354
 5381TIP3    H240339  -0.460  -2.461   2.951  1.0976  1.6549 -0.7478
 5382TIP3   OH240340   0.982  -3.008   3.061 -0.3568 -0.4299  0.0815
 5382TIP3    H140341   1.003  -3.094   3.026  0.6076  0.2641 -1.1401
 5382TIP3    H240342   0.971  -2.953   2.984  1.6076  1.1148  0.8004
 5383TIP3   OH240343  -2.246  -1.664   3.183  0.0530 -0.8021 -0.0115
 5383TIP3    H140344  -2.303  -1.718   3.239  0.1830 -1.0093 -0.0789
 5383TIP3    H240345  -2.163  -1.660   3.230 -0.2322  0.0874  0.4269
 5384TIP3   OH240346   0.611   1.548   2.932 -0.2137 -0.0308  0.1338
 5384TIP3    H140347   0.571   1.566   2.847 -0.0153 -0.4861 -0.0623
 5384TIP3    H240348   0.705   1.546   2.913 -0.1232  0.6063  0.5069
 5385TIP3   OH240349  -1.158   1.724   5.625 -0.1545  0.4449 -0.1859
 5385TIP3    H140350  -1.186   1.785   5.556  1.7585  0.4978 -0.9643
 5385TIP3    H240351  -1.144   1.642   5.579 -2.1815 -0.5104  0.7708
 5386TIP3   OH240352   1.658   3.196   2.265 -0.6370 -0.4390  0.2615
 5386TIP3    H140353   1.707   3.120   2.296 -0.3612 -0.0428  0.8047
 5386TIP3    H240354   1.682   3.204   2.173  0.5122 -0.0998  0.5823
 5387TIP3   OH240355   2.262   2.232   5.343 -0.4926  0.3472  0.6056
 5387TIP3    H140356   2.295   2.207   5.257  0.8242 -1.1047  1.5036
 5387TIP3    H240357   2.322   2.301   5.373 -1.4693  1.4931  0.0410
 5388TIP3   OH240358  -0.243  -2.865   4.453 -0.3205 -0.3563 -0.0130
 5388TIP3    H140359  -0.282  -2.789   4.497  0.7809 -1.1147  2.4581
 5388TIP3    H240360  -0.152  -2.841   4.439 -0.3718 -0.5961 -0.7887
 5389TIP3   OH240361  -2.256  -0.288   3.774 -0.3839 -0.1811 -0.5618
 5389TIP3    H140362  -2.343  -0.251   3.760 -0.2796 -0.0602 -0.8994
 5389TIP3    H240363  -2.248  -0.296   3.869 -1.2886 -1.4255 -0.5624
 5390TIP3   OH240364  -1.958   0.904   5.384  0.1262  0.0121  0.1421
 5390TIP3    H140365  -1.970   0.839   5.315  0.2721  0.7458 -0.6046
 5390TIP3    H240366  -2.041   0.905   5.432  0.2015 -0.8686  0.3051
 5391TIP3   OH240367   1.329  -2.637  -3.376  0.2799 -0.2600  1.2957
 5391TIP3    H140368   1.273  -2.714  -3.387 -1.0566  0.9021 -0.6024
 5391TIP3    H240369   1.387  -2.638  -3.452  1.4033 -0.2881  2.1377
 5392TIP3   OH240370   3.291   3.297  -5.532 -0.5313  0.4027  0.4318
 5392TIP3    H140371   3.289   3.388  -5.560  1.0589  0.6863  1.1060
 5392TIP3    H240372   3.240   3.250  -5.598  0.3842  1.5072 -1.1195
 5393TIP3   OH240373  -3.114  -2.008  -3.853  0.0501 -0.5221 -0.2089
 5393TIP3    H140374  -3.106  -1.922  -3.813 -1.2604 -1.1749  1.5986
 5393TIP3    H240375  -3.110  -1.992  -3.947  1.2214  1.3230  0.1143
 5394TIP3   OH240376  -2.834  -3.327  -3.516 -0.3928  0.2421 -0.4689
 5394TIP3    H140377  -2.889  -3.280  -3.452  0.0200  0.9719 -0.6325
 5394TIP3    H240378  -2.897  -3.363  -3.579 -0.7343  0.4598 -0.2596
 5395TIP3   OH240379  -1.566   1.760  -4.927 -0.6616  0.0246  0.0267
 5395TIP3    H140380  -1.630   1.826  -4.955 -0.7317 -0.6063 -1.3946
 5395TIP3    H240381  -1.606   1.719  -4.851 -2.7783 -1.4187 -1.7211
 5396TIP3   OH240382  -0.818   2.787  -4.252  0.7143  0.2685 -0.4671
 5396TIP3    H140383  -0.773   2.708  -4.222  0.0034 -0.4098 -1.1454
 5396TIP3    H240384  -0.750   2.854  -4.254  1.5689 -0.5880 -0.8940
 5397TIP3   OH240385   0.391   0.222  -4.787  0.1034 -0.2932 -0.5141
 5397TIP3    H140386   0.344   0.166  -4.725 -0.4046 -0.4310 -1.0126
 5397TIP3    H240387   0.342   0.305  -4.786  0.5941  0.0012 -0.1060
 5398TIP3   OH240388   2.900   1.197  -2.822 -0.4007  0.5883 -0.1741
 5398TIP3    H140389   2.841   1.261  -2.862 -0.0310 -0.6140 -2.8040
 5398TIP3    H240390   2.845   1.150  -2.759 -0.6468  3.4763  2.0211
 5399TIP3   OH240391   0.715  -0.266  -4.513 -0.1718  0.0665 -0.3813
 5399TIP3    H140392   0.745  -0.188  -4.466  2.8664  0.2961 -2.4548
 5399TIP3    H240393   0.663  -0.232  -4.585 -0.3493  0.0532 -0.2600
 5400TIP3   OH240394   0.562   2.755  -3.264  0.2861  0.1238 -0.0780
 5400TIP3    H140395   0.580   2.722  -3.176  2.0916  2.0989  0.3670
 5400TIP3    H240396   0.501   2.691  -3.301  1.2839 -2.0264  1.7333
 5401TIP3   OH240397  -0.873   1.574  -3.607  0.1682 -0.2198 -0.1989
 5401TIP3    H140398  -0.842   1.642  -3.666  3.4350 -0.9832  0.4190
 5401TIP3    H240399  -0.832   1.494  -3.639 -1.1362 -1.3673  0.8610
 5402TIP3   OH240400   0.289  -2.165  -5.694  0.2520 -0.0206 -0.4102
 5402TIP3    H140401   0.318  -2.245  -5.737  0.9092  1.0427 -2.0409
 5402TIP3    H240402   0.215  -2.134  -5.746  0.4953  0.8349 -0.2620
 5403TIP3   OH240403   0.297   2.933  -4.095 -0.5967 -0.2642  0.4803
 5403TIP3    H140404   0.202   2.941  -4.090 -0.5220  0.6686  0.5270
 5403TIP3    H240405   0.316   2.923  -4.188 -0.7204 -0.1653  0.4439
 5404TIP3   OH240406   2.968  -1.340  -2.473  0.5100  0.0903 -0.4085
 5404TIP3    H140407   2.928  -1.379  -2.551 -0.1131  1.6559 -0.8967
 5404TIP3    H240408   2.952  -1.405  -2.404 -1.1812 -0.1940 -1.0198
 5405TIP3   OH240409   0.621   2.689  -2.524  0.1544 -0.3189 -0.4201
 5405TIP3    H140410   0.591   2.655  -2.439 -0.7726  1.2346 -0.0886
 5405TIP3    H240411   0.596   2.621  -2.587 -0.1960 -0.9787  0.4058
 5406TIP3   OH240412  -1.628   2.079  -3.030 -0.0644  0.4993  0.0151
 5406TIP3    H140413  -1.672   2.014  -2.975  1.2575 -0.3317  0.1316
 5406TIP3    H240414  -1.639   2.047  -3.119 -0.0986  0.5469  0.0020
 5407TIP3   OH240415  -0.471  -3.239  -3.257  0.0144 -0.7720 -0.3348
 5407TIP3    H140416  -0.480  -3.148  -3.227 -0.9683 -0.4054 -1.6567
 5407TIP3    H240417  -0.561  -3.270  -3.266  0.3439 -1.8871  0.0611
 5408TIP3   OH240418  -2.065   0.248  -2.790  0.0233 -0.1443 -0.0629
 5408TIP3    H140419  -2.003   0.320  -2.772 -0.4255  0.3370 -0.4233
 5408TIP3    H240420  -2.044   0.182  -2.723  0.6917  0.1586  0.0401
 5409TIP3   OH240421   0.922  -0.937  -3.913  0.3532 -0.0317  0.2497
 5409TIP3    H140422   0.879  -0.971  -3.835  0.0362 -0.9197 -0.2993
 5409TIP3    H240423   0.986  -0.875  -3.880 -0.0891 -0.0673  1.1877
 5410TIP3   OH240424   1.443   0.126  -3.883  0.0466 -0.4742 -0.4206
 5410TIP3    H140425   1.363   0.173  -3.858 -0.8170 -1.1892 -1.7125
 5410TIP3    H240426   1.416   0.069  -3.955  1.6367 -1.0653 -0.5955
 5411TIP3   OH240427  -1.933  -1.667  -3.401 -0.7467 -0.0846 -0.5844
 5411TIP3    H140428  -1.927  -1.761  -3.386  0.1204  0.1424  0.5971
 5411TIP3    H240429  -1.898  -1.655  -3.489  1.1620 -0.6522  0.0498
 5412TIP3   OH240430   3.209  -2.731  -4.441 -0.3589 -0.6797  0.5146
 5412TIP3    H140431   3.288  -2.720  -4.494 -0.6403 -0.8738  0.0430
 5412TIP3    H240432   3.138  -2.738  -4.505 -0.6882 -1.0595  0.9104
 5413TIP3   OH240433   1.044  -2.237  -5.241 -0.0082 -0.1415 -0.1847
 5413TIP3    H140434   0.971  -2.221  -5.301  0.6191  0.6556 -0.7595
 5413TIP3    H240435   1.117  -2.188  -5.278  0.6129 -0.2818  0.8043
 5414TIP3   OH240436   0.485  -1.995  -3.937 -0.2550  0.1860  0.3868
 5414TIP3    H140437   0.501  -2.089  -3.928  1.7793  0.3968 -0.4492
 5414TIP3    H240438   0.427  -1.987  -4.013  0.5813 -0.3493 -0.3251
 5415TIP3   OH240439  -0.191  -1.737  -6.159  0.2176 -0.1992  0.2793
 5415TIP3    H140440  -0.203  -1.826  -6.125  1.3907 -0.3145  0.4069
 5415TIP3    H240441  -0.105  -1.739  -6.201 -0.2560  0.5573 -0.7552
 5416TIP3   OH240442  -3.136  -3.192  -4.155 -0.2130 -0.2641 -0.2561
 5416TIP3    H140443  -3.051  -3.192  -4.110 -0.2627  0.9575 -0.1183
 5416TIP3    H240444  -3.190  -3.251  -4.103 -0.1879  0.9148  1.1948
 5417TIP3   OH240445   1.815  -0.389  -5.086  0.0627 -0.7502  0.0454
 5417TIP3    H140446   1.725  -0.411  -5.062  0.6388 -0.0869  3.1742
 5417TIP3    H240447   1.829  -0.301  -5.051  1.5875 -0.3053 -1.5197
 5418TIP3   OH240448  -2.724   1.334  -3.204 -0.3803  0.3810 -0.5492
 5418TIP3    H140449  -2.762   1.251  -3.233 -1.1006  0.3942  0.3412
 5418TIP3    H240450  -2.637   1.310  -3.171 -0.5309  0.0057 -0.4189
 5419TIP3   OH240451  -2.045   3.030  -5.325  0.2632 -0.5620  0.2894
 5419TIP3    H140452  -2.094   3.007  -5.246 -1.3336 -1.1150 -0.8060
 5419TIP3    H240453  -1.970   2.970  -5.324 -1.0677 -2.3349  0.1479
 5420TIP3   OH240454   2.850   3.318  -5.401 -0.1380 -0.3179 -0.5065
 5420TIP3    H140455   2.842   3.275  -5.486  0.8362 -0.2189 -0.6622
 5420TIP3    H240456   2.830   3.410  -5.419  0.8873 -0.1360 -0.8195
 5421TIP3   OH240457   2.431  -0.231  -5.567 -0.1700 -0.5867  0.3530
 5421TIP3    H140458   2.339  -0.203  -5.571  0.5086  1.7308 -1.1339
 5421TIP3    H240459   2.457  -0.216  -5.476 -0.8363  0.2575  0.4150
 5422TIP3   OH240460   1.296  -1.069  -4.333 -0.2770 -0.1679 -0.2983
 5422TIP3    H140461   1.278  -1.163  -4.338  1.4741 -0.4764 -2.2577
 5422TIP3    H240462   1.234  -1.030  -4.395 -1.3769  0.0831  0.9143
 5423TIP3   OH240463  -0.825  -1.137  -5.662 -0.3528  0.2453  0.0049
 5423TIP3    H140464  -0.866  -1.186  -5.733  0.6411 -1.2576  0.4240
 5423TIP3    H240465  -0.781  -1.064  -5.705  1.0737 -1.1846 -1.0728
 5424TIP3   OH240466   1.460   0.230  -5.298  0.1136  0.0859  0.6833
 5424TIP3    H140467   1.467   0.173  -5.221 -1.4802  1.7603  2.1891
 5424TIP3    H240468   1.370   0.217  -5.329 -0.3898  1.9099  1.2446
 5425TIP3   OH240469   0.336  -0.445  -3.687  0.4287  0.4603  0.2614
 5425TIP3    H140470   0.307  -0.521  -3.738  1.3884 -0.0545  0.4650
 5425TIP3    H240471   0.269  -0.434  -3.620  0.8684 -0.9678  0.9911
 5426TIP3   OH240472   1.312   1.462  -4.125 -0.2387 -0.1861  0.1828
 5426TIP3    H140473   1.286   1.516  -4.050 -1.4107 -0.4645 -0.0079
 5426TIP3    H240474   1.351   1.384  -4.086 -0.5166 -0.1719  0.4893
 5427TIP3   OH240475   1.893  -2.141  -4.040 -0.6427 -0.5637  0.5451
 5427TIP3    H140476   1.919  -2.056  -4.006 -0.0385 -1.0132  1.2289
 5427TIP3    H240477   1.858  -2.188  -3.965 -0.3837 -1.1473  0.3044
 5428TIP3   OH240478   3.226  -0.916  -4.533 -0.3670 -0.2237  0.4217
 5428TIP3    H140479   3.204  -0.995  -4.582  1.3763 -0.0620 -0.7278
 5428TIP3    H240480   3.167  -0.849  -4.567 -0.7165 -0.6430  0.1914
 5429TIP3   OH240481  -0.947  -0.530  -3.298 -0.5209  0.1192  0.1895
 5429TIP3    H140482  -0.892  -0.600  -3.332 -0.8721 -0.6590  1.1742
 5429TIP3    H240483  -1.036  -0.564  -3.306 -0.7740  0.8383 -0.1701
 5430TIP3   OH240484  -3.236  -0.673  -4.226 -0.1177  0.1383  0.0831
 5430TIP3    H140485  -3.172  -0.609  -4.256 -0.9611  1.1141  0.3022
 5430TIP3    H240486  -3.205  -0.702  -4.140  0.6331 -0.2860 -0.3220
 5431TIP3   OH240487   0.676   1.637  -3.682 -0.5291 -0.3524 -0.8714
 5431TIP3    H140488   0.752   1.581  -3.667  0.7661  1.0557 -1.9127
 5431TIP3    H240489   0.677   1.654  -3.776 -0.4066  2.0277 -0.5042
 5432TIP3   OH240490  -3.148   1.359  -4.565 -0.5899 -0.6934 -0.2690
 5432TIP3    H140491  -3.100   1.438  -4.538 -0.0925 -1.2384  0.4716
 5432TIP3    H240492  -3.240   1.383  -4.554 -0.5217  0.2995 -1.5356
 5433TIP3   OH240493  -0.369   3.357  -5.134  0.2430  0.0882  0.2939
 5433TIP3    H140494  -0.381   3.282  -5.076  1.1051 -0.0423  0.3137
 5433TIP3    H240495  -0.458   3.386  -5.155 -0.0930 -0.7591  0.5174
 5434TIP3   OH240496  -0.933   3.056  -3.260 -0.4454 -0.5745  0.0340
 5434TIP3    H140497  -0.950   2.963  -3.247 -0.2546 -0.3988  1.8671
 5434TIP3    H240498  -0.842   3.061  -3.289  0.3268 -0.8955  2.1801
 5435TIP3   OH240499   0.452   2.042  -5.035 -0.0694  0.2391  0.0208
 5435TIP3    H140500   0.532   1.999  -5.004  0.8019  1.6704 -0.1672
 5435TIP3    H240501   0.391   2.033  -4.962  0.5468 -0.1258  0.5041
 5436TIP3   OH240502  -2.881   2.106  -4.302 -0.2061  0.1599 -0.3253
 5436TIP3    H140503  -2.905   2.186  -4.256  0.6453 -0.6875  1.7158
 5436TIP3    H240504  -2.884   2.038  -4.235  0.0360 -1.3624 -1.7872
 5437TIP3   OH240505   2.108  -2.726  -4.977  0.2828 -0.3188 -0.2686
 5437TIP3    H140506   2.017  -2.742  -4.950  0.0678 -2.0729 -1.7664
 5437TIP3    H240507   2.160  -2.776  -4.914  0.2327  0.7419  0.6329
 5438TIP3   OH240508  -0.690   3.210  -3.465 -0.5113  0.4129 -0.2712
 5438TIP3    H140509  -0.741   3.145  -3.512 -1.3615 -0.8947  2.2644
 5438TIP3    H240510  -0.600   3.176  -3.466 -0.5743  0.2613 -0.7140
 5439TIP3   OH240511   3.280   0.336  -5.333  0.2353  0.0669  0.0858
 5439TIP3    H140512   3.190   0.363  -5.314 -0.5599 -0.8385 -2.0596
 5439TIP3    H240513   3.280   0.318  -5.427  3.1047  1.5930 -0.3136
 5440TIP3   OH240514   0.522  -3.132  -4.849  0.3878 -0.1546 -0.4487
 5440TIP3    H140515   0.494  -3.175  -4.929 -0.4800 -1.4826  0.5268
 5440TIP3    H240516   0.469  -3.172  -4.780  0.6796  1.3749  0.7213
 5441TIP3   OH240517  -2.142  -3.176  -2.546  0.5192 -0.3070  0.4224
 5441TIP3    H140518  -2.117  -3.192  -2.455 -1.3868 -1.1707  0.8312
 5441TIP3    H240519  -2.200  -3.100  -2.542  0.0501 -0.6340  0.0111
 5442TIP3   OH240520   2.928   2.932  -2.840 -0.5361 -0.2602  0.2047
 5442TIP3    H140521   2.977   2.868  -2.892 -1.0646 -0.8517  0.4249
 5442TIP3    H240522   2.849   2.950  -2.892  0.6450  1.9913 -0.9974
 5443TIP3   OH240523  -0.879  -2.642  -2.848 -0.1634  0.1986 -0.4195
 5443TIP3    H140524  -0.890  -2.570  -2.786  1.6562 -0.0252  0.2428
 5443TIP3    H240525  -0.888  -2.721  -2.794  2.1682  0.0048 -0.2163
 5444TIP3   OH240526  -2.748  -2.405  -3.713  0.3449  0.0833 -0.1620
 5444TIP3    H140527  -2.688  -2.422  -3.640 -0.8321  0.4135  0.9131
 5444TIP3    H240528  -2.733  -2.313  -3.736 -0.2256  0.3602  0.5602
 5445TIP3   OH240529  -1.367   0.666  -4.323  0.1627 -0.4246  0.2594
 5445TIP3    H140530  -1.306   0.607  -4.366  0.5615 -0.2496  0.5827
 5445TIP3    H240531  -1.439   0.610  -4.295 -1.1127 -0.2742 -2.3875
 5446TIP3   OH240532   1.651  -0.157  -4.487  0.4777 -0.1987  0.5656
 5446TIP3    H140533   1.664  -0.197  -4.573 -0.5974 -1.1124  0.8045
 5446TIP3    H240534   1.726  -0.188  -4.435  0.5205 -0.5709  0.2841
 5447TIP3   OH240535   1.591  -2.641  -2.752  0.5676  0.3671 -0.2318
 5447TIP3    H140536   1.511  -2.655  -2.803  1.1661 -1.0603 -0.8177
 5447TIP3    H240537   1.561  -2.597  -2.673 -0.6685  0.7143 -0.8750
 5448TIP3   OH240538   3.094  -0.222  -5.080 -0.7706  0.1669 -0.1274
 5448TIP3    H140539   3.051  -0.265  -5.154  1.3048 -3.1187  0.4005
 5448TIP3    H240540   3.030  -0.227  -5.009 -0.9805 -1.0889 -0.3951
 5449TIP3   OH240541   0.255  -3.258  -5.684  0.9069  0.1225  0.2256
 5449TIP3    H140542   0.217  -3.201  -5.750 -0.7248  0.1272  1.1147
 5449TIP3    H240543   0.180  -3.296  -5.639  1.9716 -0.9229  1.1902
 5450TIP3   OH240544   3.090  -0.919  -5.224 -0.5277  0.0774 -0.5253
 5450TIP3    H140545   3.177  -0.881  -5.212 -0.2988 -0.8681  1.1191
 5450TIP3    H240546   3.102  -0.984  -5.293  0.8080 -2.0074  1.5007
 5451TIP3   OH240547  -1.629  -0.843  -5.270  0.1633  0.0818  0.5092
 5451TIP3    H140548  -1.580  -0.763  -5.253 -1.3137  0.8148  1.5133
 5451TIP3    H240549  -1.617  -0.860  -5.364 -0.8130  2.4153 -0.1045
 5452TIP3   OH240550   3.244   3.307  -1.850 -0.2336 -0.4199 -0.1114
 5452TIP3    H140551   3.278   3.246  -1.785 -0.5069  0.5858  1.0300
 5452TIP3    H240552   3.179   3.359  -1.801 -0.8102  0.0260 -1.3257
 5453TIP3   OH240553   1.703   3.141  -3.051 -0.2039  0.1227 -0.0044
 5453TIP3    H140554   1.666   3.142  -2.962  2.1263 -0.6691  1.0418
 5453TIP3    H240555   1.771   3.208  -3.049 -0.4480  0.4242 -1.3576
 5454TIP3   OH240556  -0.850   1.797  -5.371 -0.3654  0.0627  0.3365
 5454TIP3    H140557  -0.772   1.772  -5.322 -0.3115  0.8079  0.6488
 5454TIP3    H240558  -0.856   1.734  -5.442  1.1506  0.6508 -0.3424
 5455TIP3   OH240559  -0.665  -1.329  -4.517  0.0837  0.7516 -1.2153
 5455TIP3    H140560  -0.658  -1.286  -4.603 -2.3431 -0.8900 -2.3556
 5455TIP3    H240561  -0.640  -1.419  -4.534 -0.4873  0.3879 -0.1946
 5456TIP3   OH240562  -1.917  -2.847  -4.862 -0.5300 -0.2161 -0.2033
 5456TIP3    H140563  -1.850  -2.913  -4.849  0.3564  1.0961  2.7718
 5456TIP3    H240564  -1.884  -2.770  -4.816 -3.2207  1.0922 -0.2715
 5457TIP3   OH240565  -2.473   0.332  -4.025 -0.5729  0.6527 -0.7583
 5457TIP3    H140566  -2.406   0.394  -3.996 -0.1374  0.4886 -1.4097
 5457TIP3    H240567  -2.554   0.365  -3.985  0.1236 -0.0762  1.4435
 5458TIP3   OH240568  -0.173   2.380  -5.237  0.4385 -0.2888  0.1834
 5458TIP3    H140569  -0.202   2.430  -5.314  0.2128 -0.5848  0.0743
 5458TIP3    H240570  -0.252   2.372  -5.183 -0.1209 -2.4794 -0.8623
 5459TIP3   OH240571   3.059   1.292  -5.765 -0.4564 -0.2143 -0.2938
 5459TIP3    H140572   3.135   1.340  -5.732 -1.4857  0.5455  1.0619
 5459TIP3    H240573   3.097   1.222  -5.819  1.2238 -0.1231  0.6901
 5460TIP3   OH240574   2.226  -1.602  -2.974  0.2895 -0.3496  0.1292
 5460TIP3    H140575   2.247  -1.694  -2.986  0.8200 -0.3359  0.8516
 5460TIP3    H240576   2.168  -1.600  -2.897 -1.3947 -0.2599 -1.0834
 5461TIP3   OH240577  -1.142  -1.792  -3.321  0.2850 -0.4363 -0.1306
 5461TIP3    H140578  -1.050  -1.776  -3.340 -0.1932  2.6642 -0.4048
 5461TIP3    H240579  -1.152  -1.773  -3.228 -0.0738 -0.9062 -0.0660
 5462TIP3   OH240580  -0.354  -1.148  -5.152 -0.1519 -0.4803  0.8669
 5462TIP3    H140581  -0.261  -1.165  -5.167 -0.1595  0.0740  0.1209
 5462TIP3    H240582  -0.393  -1.151  -5.239 -1.0171 -1.6699  1.2723
 5463TIP3   OH240583   0.104   2.865  -5.180 -0.3800  0.5442  0.5845
 5463TIP3    H140584   0.077   2.783  -5.221  0.1505  0.8600 -0.4340
 5463TIP3    H240585   0.039   2.880  -5.111 -0.1153 -1.0381  1.2073
 5464TIP3   OH240586   0.835   0.921  -3.613  0.3451  0.0855  0.5995
 5464TIP3    H140587   0.919   0.889  -3.644  1.1202  0.7150  1.9744
 5464TIP3    H240588   0.820   0.875  -3.530 -0.2307  0.6361  0.8086
 5465TIP3   OH240589  -2.994   2.275  -2.096 -0.0909 -0.0866 -0.0548
 5465TIP3    H140590  -3.057   2.229  -2.151  0.9047  0.3082 -1.5743
 5465TIP3    H240591  -2.910   2.263  -2.140  1.2900 -2.0973  2.8171
 5466TIP3   OH240592   0.656  -1.999  -4.884 -0.0398 -0.1229  0.8914
 5466TIP3    H140593   0.751  -2.014  -4.877  0.0468  0.0006  0.0556
 5466TIP3    H240594   0.647  -1.904  -4.873 -0.0791 -0.1444  1.0513
 5467TIP3   OH240595   1.307  -1.251  -3.318 -0.1588  0.2906 -1.3900
 5467TIP3    H140596   1.375  -1.219  -3.260  0.0173 -0.5398 -1.1263
 5467TIP3    H240597   1.228  -1.251  -3.264 -0.0180 -0.3721 -1.1731
 5468TIP3   OH240598   2.004  -1.239  -3.311  0.2513 -0.3645  0.0468
 5468TIP3    H140599   2.009  -1.332  -3.289 -0.0775 -0.2192  0.7547
 5468TIP3    H240600   2.080  -1.200  -3.268  1.2424 -0.5210 -1.4686
 5469TIP3   OH240601   2.017  -0.453  -3.918 -0.5450  0.1807  0.3352
 5469TIP3    H140602   1.967  -0.372  -3.919 -0.6261  0.1403  1.0260
 5469TIP3    H240603   1.957  -0.519  -3.955 -0.5128  0.4051 -0.1315
 5470TIP3   OH240604  -1.191  -1.468  -3.461  0.3304  0.0921  0.2592
 5470TIP3    H140605  -1.121  -1.493  -3.521  0.0717  0.7944 -0.3458
 5470TIP3    H240606  -1.247  -1.546  -3.455 -0.2230  0.3427 -1.2400
 5471TIP3   OH240607  -1.106  -2.190  -2.662 -0.4525  0.0964  0.2233
 5471TIP3    H140608  -1.120  -2.119  -2.599 -0.8732 -0.6814  1.0190
 5471TIP3    H240609  -1.088  -2.267  -2.609 -0.0227 -0.4150 -0.6324
 5472TIP3   OH240610  -2.886   0.689  -4.560 -0.3902  0.1589 -0.0727
 5472TIP3    H140611  -2.835   0.613  -4.589 -1.7274 -0.6162 -0.4576
 5472TIP3    H240612  -2.965   0.687  -4.613 -0.9159  1.2528  0.6254
 5473TIP3   OH240613  -2.610  -3.048  -5.498 -0.3310 -0.0942  1.0161
 5473TIP3    H140614  -2.673  -3.035  -5.569 -0.1103 -0.3343  0.7754
 5473TIP3    H240615  -2.533  -3.085  -5.540 -0.2653 -0.4163  1.4120
 5474TIP3   OH240616  -0.263   2.983  -5.373  0.1485 -0.1013 -0.3409
 5474TIP3    H140617  -0.303   3.058  -5.416  0.4413  0.3942  0.2308
 5474TIP3    H240618  -0.319   2.909  -5.396 -2.6099  0.9172  2.3895
 5475TIP3   OH240619   0.252  -2.224  -5.292 -0.1285  0.4856  0.1849
 5475TIP3    H140620   0.280  -2.175  -5.215  1.3081 -2.0233  1.3658
 5475TIP3    H240621   0.192  -2.290  -5.259 -1.9291  1.2585 -1.3494
 5476TIP3   OH240622   0.610   1.655  -3.397  0.1277 -0.1881 -0.6149
 5476TIP3    H140623   0.644   1.722  -3.337 -0.5444 -0.5579  0.2076
 5476TIP3    H240624   0.630   1.688  -3.484  2.4410 -0.3040 -0.1930
 5477TIP3   OH240625   2.808   0.329  -4.281  0.3770  0.2682 -0.4874
 5477TIP3    H140626   2.829   0.264  -4.348  0.2457 -0.1743 -0.1035
 5477TIP3    H240627   2.713   0.340  -4.287  0.1839 -0.7470  0.4975
 5478TIP3   OH240628  -3.110  -3.209  -2.626  0.3151  0.3114 -0.4506
 5478TIP3    H140629  -3.107  -3.231  -2.719 -0.3050  1.5827 -0.8018
 5478TIP3    H240630  -3.131  -3.115  -2.625  2.6815  0.8947  0.9194
 5479TIP3   OH240631  -2.006  -1.660  -4.307 -0.0064 -0.1149  0.1288
 5479TIP3    H140632  -2.009  -1.689  -4.398 -3.0410  0.8394 -0.2124
 5479TIP3    H240633  -1.966  -1.733  -4.259 -0.6616 -1.7106 -1.6386
 5480TIP3   OH240634  -0.672  -2.844  -5.854 -0.3284 -0.2975 -1.3211
 5480TIP3    H140635  -0.653  -2.924  -5.903  0.4975 -0.5318 -0.6437
 5480TIP3    H240636  -0.596  -2.788  -5.871  0.3162 -0.6654  0.2667
 5481TIP3   OH240637  -2.673  -1.646  -5.473 -0.7884  0.1277 -0.4366
 5481TIP3    H140638  -2.734  -1.634  -5.401  0.1080 -1.0162  0.5676
 5481TIP3    H240639  -2.712  -1.716  -5.526 -0.3873 -0.6122  0.2108
 5482TIP3   OH240640  -2.168   2.846  -3.682 -0.1074 -0.1253 -0.4295
 5482TIP3    H140641  -2.092   2.796  -3.651  0.5290  1.4214  0.6300
 5482TIP3    H240642  -2.220   2.861  -3.603 -0.1446  1.1037 -0.6749
 5483TIP3   OH240643  -1.606  -1.096  -5.486 -0.3552  0.2235 -0.2352
 5483TIP3    H140644  -1.695  -1.132  -5.493  0.0684 -0.7149 -0.9920
 5483TIP3    H240645  -1.611  -1.011  -5.529 -0.9978  0.3898  0.1589
 5484TIP3   OH240646   2.584  -2.090  -2.379  0.5604  0.9129  0.0912
 5484TIP3    H140647   2.517  -2.155  -2.398 -0.7130  2.3158 -0.4161
 5484TIP3    H240648   2.660  -2.117  -2.430 -0.1471  0.1597 -0.5814
 5485TIP3   OH240649  -1.093  -2.403  -4.618  0.2507 -0.4542  0.0696
 5485TIP3    H140650  -1.178  -2.361  -4.606  1.1229  1.3371  0.3140
 5485TIP3    H240651  -1.037  -2.334  -4.653  1.4605 -1.7606 -0.6685
 5486TIP3   OH240652  -0.230  -2.020  -5.584 -0.2416  0.4606  0.4992
 5486TIP3    H140653  -0.249  -2.089  -5.647 -0.4304  0.0937  0.9584
 5486TIP3    H240654  -0.301  -1.957  -5.595  0.4018  1.0352 -0.5463
 5487TIP3   OH240655  -0.048   2.612  -2.815  0.2347  0.1136  0.3122
 5487TIP3    H140656   0.030   2.558  -2.799 -0.0901 -0.9808 -1.5176
 5487TIP3    H240657  -0.118   2.550  -2.830 -0.5782  1.0731 -0.0066
 5488TIP3   OH240658   2.886   2.540  -5.736 -0.0206  0.0096  0.3199
 5488TIP3    H140659   2.829   2.610  -5.767  0.6074  0.8467  0.9939
 5488TIP3    H240660   2.975   2.575  -5.745  0.3872 -1.1729 -0.4718
 5489TIP3   OH240661   1.095  -3.049  -2.685 -0.1528  0.1826  0.1152
 5489TIP3    H140662   1.008  -3.055  -2.725 -0.5977  2.0364  0.6906
 5489TIP3    H240663   1.088  -2.976  -2.623  1.6871  0.0779  0.5148
 5490TIP3   OH240664   1.103   0.048  -4.509 -0.3256 -0.1554 -0.5346
 5490TIP3    H140665   1.121  -0.045  -4.523 -0.8245 -0.4232  0.4613
 5490TIP3    H240666   1.143   0.067  -4.424  0.4312  0.7403 -1.0734
 5491TIP3   OH240667  -2.796   2.982  -4.120 -0.2838  0.1007  0.2021
 5491TIP3    H140668  -2.721   2.988  -4.061 -0.1563  0.1073  0.0387
 5491TIP3    H240669  -2.760   2.944  -4.200 -0.8146 -1.7781  0.7882
 5492TIP3   OH240670   0.098   1.644  -3.942 -0.1924 -0.5921 -0.3420
 5492TIP3    H140671   0.012   1.663  -3.903  0.9853 -0.5219  2.4673
 5492TIP3    H240672   0.124   1.727  -3.982 -1.5901 -0.7451 -1.6669
 5493TIP3   OH240673  -2.028   0.145  -4.513 -0.6717 -0.4974 -0.1155
 5493TIP3    H140674  -2.032   0.074  -4.577 -2.0743 -1.0324  0.5291
 5493TIP3    H240675  -2.073   0.110  -4.436  0.4464  0.3524  0.9629
 5494TIP3   OH240676  -2.369   2.035  -3.545 -0.0927  0.1614 -0.5678
 5494TIP3    H140677  -2.399   1.945  -3.535 -1.7862  0.6507 -0.8963
 5494TIP3    H240678  -2.279   2.034  -3.513 -0.8520 -1.1230  1.7292
 5495TIP3   OH240679   1.786  -1.387  -2.233  0.2222 -0.6234  0.1512
 5495TIP3    H140680   1.848  -1.385  -2.306  2.0410  0.5026  1.6261
 5495TIP3    H240681   1.715  -1.442  -2.263  0.7247  0.0978 -2.6047
 5496TIP3   OH240682  -2.292   0.349  -2.913  0.2516  0.1318 -0.3268
 5496TIP3    H140683  -2.347   0.312  -2.845  1.3198 -0.1168  0.4221
 5496TIP3    H240684  -2.204   0.349  -2.876  0.7494  0.6208 -1.4522
 5497TIP3   OH240685  -0.287   0.192  -3.282 -0.4895  0.5008  0.2678
 5497TIP3    H140686  -0.381   0.173  -3.281 -0.4240 -0.0666 -1.2009
 5497TIP3    H240687  -0.248   0.113  -3.320  0.4763  1.1134 -0.0422
 5498TIP3   OH240688  -2.827  -3.044  -2.432  0.1856  0.2008 -0.0246
 5498TIP3    H140689  -2.803  -2.958  -2.467  0.6598 -0.1263 -0.5236
 5498TIP3    H240690  -2.745  -3.093  -2.432 -0.3610 -0.7605 -1.2165
 5499TIP3   OH240691   0.405  -1.574  -5.484 -0.2836 -0.0573  0.1626
 5499TIP3    H140692   0.340  -1.637  -5.453 -1.1444  0.7744  0.1083
 5499TIP3    H240693   0.396  -1.499  -5.424  0.4472  0.1752 -0.0082
 5500TIP3   OH240694  -1.103   2.184  -4.321  0.9056  0.9330 -0.3691
 5500TIP3    H140695  -1.124   2.166  -4.229 -0.9962  1.3664 -0.6698
 5500TIP3    H240696  -1.112   2.279  -4.329 -1.1425  0.6895 -1.4608
 5501TIP3   OH240697   1.797  -0.981  -4.943 -0.0667 -0.0454 -0.5252
 5501TIP3    H140698   1.814  -0.888  -4.955  0.4121 -0.0386  0.1894
 5501TIP3    H240699   1.849  -1.023  -5.011 -2.9740  0.3372 -3.2471
 5502TIP3   OH240700   2.535  -1.398  -5.445 -0.2445  0.2783 -0.0830
 5502TIP3    H140701   2.510  -1.312  -5.480 -1.4542  0.0258  0.1234
 5502TIP3    H240702   2.593  -1.435  -5.512 -2.1611 -0.0177 -1.6919
 5503TIP3   OH240703  -1.242  -2.273  -5.601 -0.0431  0.0985 -0.0983
 5503TIP3    H140704  -1.171  -2.215  -5.627 -0.0113  0.8676  1.6098
 5503TIP3    H240705  -1.218  -2.358  -5.638  0.3058  0.9429 -1.9679
 5504TIP3   OH240706  -2.011   0.814  -3.298  0.4872  0.3950 -0.2533
 5504TIP3    H140707  -2.079   0.816  -3.366 -0.4946  1.4293  0.7195
 5504TIP3    H240708  -2.019   0.899  -3.254  3.1982  1.0319 -0.8431
 5505TIP3   OH240709  -2.379  -3.227  -5.263 -0.1671 -0.5681  0.6188
 5505TIP3    H140710  -2.316  -3.159  -5.289 -0.2173  0.1383  2.2425
 5505TIP3    H240711  -2.452  -3.217  -5.324  1.1550 -1.2865 -1.1955
 5506TIP3   OH240712  -0.401   1.229  -3.126 -0.5581  0.2387 -0.4380
 5506TIP3    H140713  -0.427   1.291  -3.194 -1.6616  0.1703 -0.1006
 5506TIP3    H240714  -0.363   1.155  -3.174 -2.6400 -0.4608 -1.1375
 5507TIP3   OH240715   2.859   0.589  -4.006 -0.0655  0.0146 -0.2117
 5507TIP3    H140716   2.944   0.589  -4.049 -0.0413 -0.3251 -0.1626
 5507TIP3    H240717   2.800   0.544  -4.067 -0.4755  1.2568 -0.7631
 5508TIP3   OH240718   0.995  -2.530  -3.085 -0.2688 -0.4547 -0.0878
 5508TIP3    H140719   1.063  -2.596  -3.096  1.9382  2.0525 -3.2372
 5508TIP3    H240720   1.025  -2.477  -3.011  1.5384  0.8215 -1.6423
 5509TIP3   OH240721   1.432   3.155  -5.258  0.4119 -0.2375  0.1290
 5509TIP3    H140722   1.468   3.184  -5.342  1.2718 -2.9864 -0.5845
 5509TIP3    H240723   1.490   3.193  -5.193  0.1817  1.3365 -0.5502
 5510TIP3   OH240724   2.993  -3.018  -4.845  0.1037  0.3963  0.4723
 5510TIP3    H140725   3.008  -2.987  -4.756  3.0641 -1.8596  0.8943
 5510TIP3    H240726   3.001  -3.113  -4.839 -0.9608  0.0723 -2.0061
 5511TIP3   OH240727  -3.152  -1.296  -5.309 -0.6330 -0.0904 -0.4399
 5511TIP3    H140728  -3.240  -1.280  -5.344 -1.0701 -0.7859  0.3069
 5511TIP3    H240729  -3.161  -1.286  -5.214 -0.0234 -0.6691 -0.3103
 5512TIP3   OH240730   0.267   2.917  -5.395  0.4463  0.0891  0.4887
 5512TIP3    H140731   0.235   2.930  -5.306  0.2486  0.7680  0.3182
 5512TIP3    H240732   0.300   3.002  -5.422 -0.1463  0.0668 -0.3471
 5513TIP3   OH240733  -1.765   1.262  -4.305  0.3489  0.2005 -0.7166
 5513TIP3    H140734  -1.676   1.229  -4.292  0.1730  0.0923  0.2643
 5513TIP3    H240735  -1.812   1.188  -4.344 -0.3691 -1.2840  2.5846
 5514TIP3   OH240736  -2.515  -1.308  -4.645  0.3233  0.0957 -0.0509
 5514TIP3    H140737  -2.522  -1.280  -4.554  1.7240 -1.2085  0.5085
 5514TIP3    H240738  -2.512  -1.227  -4.695  2.1622  0.9343  1.3056
 5515TIP3   OH240739   1.571   1.822  -3.224  0.3089 -0.1060 -0.0673
 5515TIP3    H140740   1.610   1.742  -3.189 -1.8960 -1.1387  0.2362
 5515TIP3    H240741   1.572   1.810  -3.319  0.6632 -0.1703 -0.0533
 5516TIP3   OH240742  -1.608  -2.145  -4.563  0.1263  0.7482 -0.3653
 5516TIP3    H140743  -1.581  -2.232  -4.535  0.0950  1.1954  1.1388
 5516TIP3    H240744  -1.671  -2.161  -4.634  1.7182 -0.3637 -1.5898
 5517TIP3   OH240745  -1.861   1.061   2.499 -0.1822 -0.0871  0.1474
 5517TIP3    H140746  -1.804   1.042   2.425 -1.2447 -1.4824 -0.3538
 5517TIP3    H240747  -1.881   0.976   2.538  0.4457  0.6130  2.1544
 5518TIP3   OH240748  -1.546  -0.642  -4.958 -0.7299 -0.3522 -0.3704
 5518TIP3    H140749  -1.525  -0.715  -4.900  0.2462 -1.3390 -1.9047
 5518TIP3    H240750  -1.497  -0.567  -4.923  0.0928 -1.0099 -0.1057
 5519TIP3   OH240751   1.667  -2.090  -3.191  0.5875  0.2015  0.4675
 5519TIP3    H140752   1.710  -2.151  -3.250  0.6616  0.5447  0.1587
 5519TIP3    H240753   1.583  -2.071  -3.232  1.1920  1.4841 -0.2393
 5520TIP3   OH240754  -2.260  -2.787  -3.221  0.2028  0.2775  0.4585
 5520TIP3    H140755  -2.284  -2.791  -3.313 -0.2185 -0.4846  0.5994
 5520TIP3    H240756  -2.164  -2.786  -3.221  0.2600 -1.6905  0.0639
 5521TIP3   OH240757  -1.239   2.229  -5.385 -0.0464  0.3036  0.1192
 5521TIP3    H140758  -1.148   2.215  -5.412  0.0654  0.3800  0.4590
 5521TIP3    H240759  -1.238   2.313  -5.340 -0.1645  0.0122  0.6820
 5522TIP3   OH240760   2.145   2.373  -4.408 -0.3624  0.1512 -0.0300
 5522TIP3    H140761   2.194   2.403  -4.485 -1.4987 -2.0240 -1.7238
 5522TIP3    H240762   2.055   2.399  -4.425 -0.6168 -0.2999  0.5980
 5523TIP3   OH240763   2.621   0.756  -3.952  0.1695  0.1046 -0.2243
 5523TIP3    H140764   2.591   0.721  -3.869 -0.5732  1.0279 -0.0802
 5523TIP3    H240765   2.708   0.719  -3.964  0.6959  0.7131  1.4443
 5524TIP3   OH240766  -0.804   2.329  -4.215 -0.3806 -0.0286 -0.0990
 5524TIP3    H140767  -0.830   2.238  -4.230 -2.1552  0.6287 -1.3611
 5524TIP3    H240768  -0.792   2.336  -4.120 -2.2314 -1.0899  0.2476
 5525TIP3   OH240769   0.843  -2.234  -5.420  0.6766 -0.3472  0.0961
 5525TIP3    H140770   0.828  -2.328  -5.436  0.8894 -0.2085 -0.9572
 5525TIP3    H240771   0.911  -2.210  -5.482 -1.8835  1.3198 -2.2999
 5526TIP3   OH240772   2.534   0.001  -3.990  0.1329 -0.1383 -0.3128
 5526TIP3    H140773   2.545  -0.078  -3.936 -0.8649 -0.1076 -0.0530
 5526TIP3    H240774   2.602  -0.007  -4.058  0.6950 -0.7127  0.3000
 5527TIP3   OH240775  -3.272  -0.823  -3.163  0.0001  0.1411  0.5144
 5527TIP3    H140776  -3.251  -0.898  -3.108 -1.7888 -0.6573  0.1641
 5527TIP3    H240777  -3.321  -0.764  -3.106 -0.1398  0.2243  0.3099
 5528TIP3   OH240778   3.087   1.494  -4.786  0.2800  0.4418  0.3105
 5528TIP3    H140779   3.114   1.585  -4.796 -0.1143  0.5528  0.2611
 5528TIP3    H240780   3.145   1.445  -4.844 -0.6950  0.8618 -1.0651
 5529TIP3   OH240781  -1.649   1.045   5.178 -0.6997 -0.3567  0.2898
 5529TIP3    H140782  -1.583   1.062   5.245  0.1777  1.2601 -0.9168
 5529TIP3    H240783  -1.601   1.049   5.095 -2.6756  4.3424 -0.9595
 5530TIP3   OH240784  -1.795   0.366  -3.689  0.2022  0.1424 -0.2002
 5530TIP3    H140785  -1.701   0.355  -3.704  0.4091 -0.0076  1.0632
 5530TIP3    H240786  -1.834   0.366  -3.777  1.2725 -0.8316 -0.7048
 5531TIP3   OH240787   2.865   1.374  -2.493  0.2332  0.1048 -0.0391
 5531TIP3    H140788   2.874   1.279  -2.501  1.2323  0.3378 -3.1577
 5531TIP3    H240789   2.955   1.406  -2.492 -0.0925  1.0721 -0.5057
 5532TIP3   OH240790   2.873   2.121  -2.584  0.2674 -1.3766  0.2937
 5532TIP3    H140791   2.922   2.201  -2.604  1.1602 -2.1049 -0.5966
 5532TIP3    H240792   2.824   2.141  -2.505 -0.9600  0.6462 -0.9026
 5533TIP3   OH240793  -1.647  -0.086  -3.657 -0.1532 -0.3856 -0.6330
 5533TIP3    H140794  -1.682  -0.091  -3.568 -1.3749  0.6092 -1.0282
 5533TIP3    H240795  -1.708  -0.029  -3.704  1.2760  0.3135 -1.7331
 5534TIP3   OH240796  -0.723  -2.696  -3.545  0.1705  0.3527  0.1121
 5534TIP3    H140797  -0.681  -2.637  -3.607  1.3337 -0.6311 -0.0631
 5534TIP3    H240798  -0.795  -2.735  -3.595  0.4094  0.3994 -0.2740
 5535TIP3   OH240799   1.811   1.475  -4.963 -0.6126 -0.2358  0.3359
 5535TIP3    H140800   1.753   1.510  -4.895 -1.1920  1.0671 -0.7589
 5535TIP3    H240801   1.851   1.553  -5.001 -0.7503 -0.8722 -1.1768
 5536TIP3   OH240802   0.072  -2.183  -4.271  0.3066  0.1661 -0.6831
 5536TIP3    H140803   0.026  -2.113  -4.317  0.2315 -0.4285 -1.5462
 5536TIP3    H240804   0.114  -2.234  -4.341 -0.4703 -1.2388 -0.1684
 5537TIP3   OH240805  -2.026   0.957  -5.101  0.4005 -0.1360 -0.1635
 5537TIP3    H140806  -2.039   0.862  -5.101 -0.4213 -0.0328 -0.6860
 5537TIP3    H240807  -2.113   0.992  -5.086 -0.0325  0.6125 -3.7574
 5538TIP3   OH240808   1.803  -1.355  -3.557  0.1232 -0.1087  0.4295
 5538TIP3    H140809   1.882  -1.372  -3.608  0.4929 -2.4670  1.6691
 5538TIP3    H240810   1.731  -1.389  -3.611  0.0038  1.2255 -0.3011
 5539TIP3   OH240811  -2.129   3.150  -3.017  0.1623 -0.0433  0.2566
 5539TIP3    H140812  -2.079   3.107  -2.947  1.1886 -0.1314 -0.5072
 5539TIP3    H240813  -2.094   3.239  -3.019 -1.0870  0.4842  0.9991
 5540TIP3   OH240814   1.907  -2.244  -3.068 -0.0696  0.1985  0.5142
 5540TIP3    H140815   1.892  -2.155  -3.034 -0.6716  0.7020 -0.9770
 5540TIP3    H240816   1.997  -2.264  -3.043 -0.0946  1.0258  1.3233
 5541TIP3   OH240817   3.330   2.106  -4.088  0.6568  0.1840 -0.0315
 5541TIP3    H140818   3.372   2.133  -4.006 -1.0465  1.5599  0.4426
 5541TIP3    H240819   3.241   2.081  -4.063  0.3003  0.0244 -1.3775
 5542TIP3   OH240820   0.775  -2.827  -2.985 -0.5622  0.7113  0.3055
 5542TIP3    H140821   0.808  -2.796  -2.901  0.6209  1.6151 -0.4682
 5542TIP3    H240822   0.690  -2.785  -2.995 -0.2064  1.5131  0.5498
 5543TIP3   OH240823  -1.259   1.829  -3.601  0.1867 -0.2584  0.4267
 5543TIP3    H140824  -1.332   1.803  -3.545 -0.6007  0.1129 -0.3796
 5543TIP3    H240825  -1.212   1.895  -3.550 -2.0299  2.0367 -0.2550
 5544TIP3   OH240826   1.332  -2.568  -4.889  0.5502 -0.2216  0.0640
 5544TIP3    H140827   1.246  -2.543  -4.924  1.0019  2.0973  0.4178
 5544TIP3    H240828   1.382  -2.596  -4.966 -0.1375 -0.4124 -0.3235
 5545TIP3   OH240829  -0.004  -3.198  -4.061  0.4460  0.5097 -0.2104
 5545TIP3    H140830  -0.063  -3.192  -4.136 -0.9191  0.8145  0.8411
 5545TIP3    H240831   0.008  -3.107  -4.032  0.9892  0.3987 -0.0727
 5546TIP3   OH240832  -1.746  -2.696  -4.702 -0.4660 -0.0477  0.3036
 5546TIP3    H140833  -1.679  -2.640  -4.742 -0.7295 -0.1196 -0.2461
 5546TIP3    H240834  -1.759  -2.658  -4.615  1.5512 -1.0764  1.1150
 5547TIP3   OH240835  -3.287  -0.010  -3.573  0.2633  0.1665  0.0199
 5547TIP3    H140836  -3.292  -0.068  -3.650  2.3250  0.7218 -0.6189
 5547TIP3    H240837  -3.257  -0.067  -3.502 -1.4036 -0.2961  0.3903
 5548TIP3   OH240838   1.329   0.588  -4.768  0.4859  0.0990 -0.3130
 5548TIP3    H140839   1.407   0.644  -4.772 -1.3557  2.8298 -4.2619
 5548TIP3    H240840   1.282   0.618  -4.690  2.6559 -0.7658  1.4406
 5549TIP3   OH240841   1.377   2.191  -4.009 -0.1939 -0.2795 -0.0699
 5549TIP3    H140842   1.302   2.188  -4.068 -0.6498 -0.1780  0.4993
 5549TIP3    H240843   1.440   2.248  -4.054  0.1591 -1.5355 -1.2355
 5550TIP3   OH240844   0.083  -1.752  -6.242  0.0041 -0.5798  0.1403
 5550TIP3    H140845   0.138  -1.679  -6.212 -2.0566  0.2777  2.1100
 5550TIP3    H240846   0.146  -1.815  -6.277  2.2736  0.4458  2.0039
 5551TIP3   OH240847  -0.541  -2.973  -3.171 -0.1807  0.0130  0.0534
 5551TIP3    H140848  -0.598  -2.913  -3.123  0.5002  2.1825 -1.6825
 5551TIP3    H240849  -0.472  -2.995  -3.109  0.7772  2.8727  0.1347
 5552TIP3   OH240850  -0.200   0.491  -3.956  0.3539 -0.2146 -0.0534
 5552TIP3    H140851  -0.132   0.509  -4.021 -0.6022 -0.6757 -1.2231
 5552TIP3    H240852  -0.280   0.525  -3.994 -0.1805 -0.1651  1.0658
 5553TIP3   OH240853  -2.401   0.847  -4.195 -0.3372 -0.8561  0.2568
 5553TIP3    H140854  -2.408   0.849  -4.291 -0.3444 -0.3088  0.2609
 5553TIP3    H240855  -2.430   0.935  -4.168  0.4428 -0.7248  0.7012
 5554TIP3   OH240856   0.424  -2.541  -2.669  0.1078 -0.0967  0.3301
 5554TIP3    H140857   0.520  -2.544  -2.673  0.1793  0.9308  0.9246
 5554TIP3    H240858   0.404  -2.565  -2.578 -0.2682 -1.3534 -0.0639
 5555TIP3   OH240859   1.671   1.672  -4.820  0.0218 -0.2418 -0.2375
 5555TIP3    H140860   1.641   1.690  -4.730  1.6750 -2.3831  0.8540
 5555TIP3    H240861   1.627   1.738  -4.874 -3.1201 -0.4842  1.7538
 5556TIP3   OH240862   1.051  -2.336  -3.548 -0.1482  0.5184 -0.3832
 5556TIP3    H140863   1.103  -2.382  -3.614 -0.6513  1.2918 -1.3456
 5556TIP3    H240864   0.962  -2.336  -3.584 -0.1976  2.0576 -0.3151
 5557TIP3   OH240865  -2.425  -2.820  -4.312 -0.3648 -0.7328  0.1598
 5557TIP3    H140866  -2.449  -2.858  -4.396 -0.7478 -1.1911  0.4665
 5557TIP3    H240867  -2.337  -2.853  -4.294 -0.8647 -1.8646  0.6312
 5558TIP3   OH240868   2.184   1.551  -3.578  0.4438 -0.1819  0.4305
 5558TIP3    H140869   2.110   1.491  -3.573  1.2466 -1.3450 -0.9998
 5558TIP3    H240870   2.254   1.500  -3.618  2.5624  0.3809  3.1008
 5559TIP3   OH240871   2.745   0.731  -4.864  0.4943  0.1335 -0.9293
 5559TIP3    H140872   2.718   0.821  -4.881  0.3793 -0.1334 -2.2194
 5559TIP3    H240873   2.839   0.737  -4.846  0.1569  0.7195  0.8551
 5560TIP3   OH240874   2.439   1.921  -2.657 -0.6204  0.4578 -0.9637
 5560TIP3    H140875   2.532   1.906  -2.671 -0.6489 -2.2120  1.0715
 5560TIP3    H240876   2.432   1.949  -2.566 -1.8118  1.0553 -1.2179
 5561TIP3   OH240877  -2.701   2.761  -3.846  0.3725  0.6693 -0.1627
 5561TIP3    H140878  -2.712   2.721  -3.932  1.5876 -2.5142  1.0296
 5561TIP3    H240879  -2.751   2.704  -3.787  1.2733  1.5491  1.5124
 5562TIP3   OH240880   2.210   0.570  -3.332  0.0990 -0.1672 -0.2690
 5562TIP3    H140881   2.208   0.491  -3.387 -2.6136 -1.0225  0.9095
 5562TIP3    H240882   2.260   0.544  -3.255 -0.0700 -0.4699 -0.2600
 5563TIP3   OH240883   2.770  -1.297  -2.224  0.5451 -0.4768 -0.5052
 5563TIP3    H140884   2.804  -1.385  -2.241  0.6130 -0.6281  0.3737
 5563TIP3    H240885   2.739  -1.301  -2.133  1.5364  0.7094 -0.0940
 5564TIP3   OH240886   2.590   0.060  -5.443 -0.2307  0.4404 -0.2931
 5564TIP3    H140887   2.538   0.107  -5.378 -0.8050 -2.3490  1.4276
 5564TIP3    H240888   2.538   0.064  -5.523 -1.9135 -0.0541  0.7126
 5565TIP3   OH240889  -2.098   1.976  -5.409  0.2662 -0.1410  0.1177
 5565TIP3    H140890  -2.113   1.993  -5.502  0.5336 -0.0928  0.0816
 5565TIP3    H240891  -2.169   1.919  -5.383  0.9034 -1.2055 -0.4304
 5566TIP3   OH240892  -2.755  -1.270  -5.206  0.1614  0.4956 -0.4192
 5566TIP3    H140893  -2.742  -1.364  -5.216  0.1318  0.7115 -4.2426
 5566TIP3    H240894  -2.835  -1.261  -5.155  0.5458 -1.5054  0.6186
 5567TIP3   OH240895   3.354  -1.837  -5.559 -0.4001 -0.2753 -0.3378
 5567TIP3    H140896   3.277  -1.797  -5.600 -0.4241 -0.8052 -0.8331
 5567TIP3    H240897   3.318  -1.889  -5.487 -0.4649 -0.1985 -0.3148
 5568TIP3   OH240898  -1.854   0.208  -3.454 -0.5978 -0.1679  0.3126
 5568TIP3    H140899  -1.794   0.272  -3.492  0.5026 -1.0775  0.4625
 5568TIP3    H240900  -1.941   0.247  -3.465 -0.1755  0.3191 -1.6595
 5569TIP3   OH240901  -1.062  -1.300  -4.763 -0.4232  0.1487  0.7337
 5569TIP3    H140902  -0.976  -1.330  -4.792 -0.1754  0.1575  1.4476
 5569TIP3    H240903  -1.095  -1.247  -4.836 -0.1978 -0.5601  0.1063
 5570TIP3   OH240904  -3.230   0.142  -5.281 -0.1622 -0.9954  0.1411
 5570TIP3    H140905  -3.306   0.195  -5.304 -1.3023 -3.6602 -2.8643
 5570TIP3    H240906  -3.266   0.063  -5.243  1.3767 -0.8356  2.1095
 5571TIP3   OH240907  -2.666  -3.258  -4.738 -0.1609  0.2258  0.2558
 5571TIP3    H140908  -2.752  -3.290  -4.711  0.3813  0.8579  3.0604
 5571TIP3    H240909  -2.684  -3.174  -4.780 -0.9037  0.5074  1.1146
 5572TIP3   OH240910   3.262   1.427  -5.367 -0.0645  0.4207 -0.2450
 5572TIP3    H140911   3.206   1.412  -5.291 -0.5996 -2.9916 -1.1374
 5572TIP3    H240912   3.223   1.503  -5.411 -2.6959 -0.4636  0.3623
 5573TIP3   OH240913   1.173  -2.538  -5.468 -0.2002  0.3493 -0.4484
 5573TIP3    H140914   1.161  -2.516  -5.561  2.3141  0.7456 -0.7480
 5573TIP3    H240915   1.191  -2.454  -5.426 -1.1580  0.1457  0.4032
 5574TIP3   OH240916   2.735   2.932  -3.036  0.1240  0.2034  0.3126
 5574TIP3    H140917   2.658   2.875  -3.045  1.0712 -0.9680 -0.7340
 5574TIP3    H240918   2.785   2.918  -3.116  2.1268 -0.1421  1.5586
 5575TIP3   OH240919   2.705   1.942  -2.740 -0.0665  1.1650  0.4182
 5575TIP3    H140920   2.719   2.031  -2.707 -0.6868  1.3453  0.2123
 5575TIP3    H240921   2.767   1.934  -2.813 -1.7104  2.3531 -1.2062
 5576TIP3   OH240922  -1.897   1.721  -4.576  0.1932 -0.3449  0.2486
 5576TIP3    H140923  -1.892   1.799  -4.631  0.0706  0.2518  1.0539
 5576TIP3    H240924  -1.990   1.712  -4.555  0.1616 -0.9133 -0.1181
 5577TIP3   OH240925  -2.548   2.196  -3.659 -0.1953  0.1832 -0.2382
 5577TIP3    H140926  -2.480   2.130  -3.648 -0.8446 -0.9893 -2.6640
 5577TIP3    H240927  -2.514   2.255  -3.726 -1.7833 -0.8214 -2.0064
 5578TIP3   OH240928   0.387   0.794  -3.467  0.1833  0.1941  0.2026
 5578TIP3    H140929   0.403   0.845  -3.547 -3.9303 -1.9735 -2.3169
 5578TIP3    H240930   0.436   0.713  -3.480  0.1994  0.1875  0.3019
 5579TIP3   OH240931  -1.478  -2.993  -3.192 -0.3283  0.0268  0.1732
 5579TIP3    H140932  -1.520  -2.906  -3.190  2.1373  1.3420 -0.8741
 5579TIP3    H240933  -1.386  -2.975  -3.212  0.2521 -2.8736 -0.2109
 5580TIP3   OH240934  -1.614   0.800  -4.668 -0.3313 -0.0651  0.7932
 5580TIP3    H140935  -1.627   0.710  -4.638  0.0499 -0.1627  0.6628
 5580TIP3    H240936  -1.695   0.822  -4.714 -0.3112 -0.4419  0.5765
 5581TIP3   OH240937   2.518  -2.742  -3.945 -0.1652 -0.4256  0.4398
 5581TIP3    H140938   2.487  -2.677  -3.882  0.4397 -1.4341  1.8248
 5581TIP3    H240939   2.597  -2.778  -3.906  0.1829 -1.1524 -0.8689
 5582TIP3   OH240940   1.982  -1.479  -3.027  0.4821  0.8170 -0.5518
 5582TIP3    H140941   2.064  -1.523  -3.006 -1.4972 -1.7860  2.6717
 5582TIP3    H240942   1.980  -1.402  -2.970 -0.4224 -0.6434  1.4714
 5583TIP3   OH240943   2.221   0.310  -4.434 -0.6665 -1.0671  0.4599
 5583TIP3    H140944   2.160   0.311  -4.508  0.0142 -0.0571 -0.1006
 5583TIP3    H240945   2.184   0.372  -4.371 -0.4488 -0.7749  0.3026
 5584TIP3   OH240946  -1.230   1.600  -2.979 -0.8482 -0.0338 -0.2958
 5584TIP3    H140947  -1.226   1.608  -3.074 -0.7406  0.2940 -0.2659
 5584TIP3    H240948  -1.261   1.686  -2.949 -2.3220 -0.5862 -0.1272
 5585TIP3   OH240949  -1.433   3.376  -4.398  0.8005 -0.0232  0.8442
 5585TIP3    H140950  -1.377   3.444  -4.362  0.2375  0.6028  0.5529
 5585TIP3    H240951  -1.380   3.336  -4.467  0.9278  0.4933  0.6402
 5586TIP3   OH240952   0.847   2.106  -5.122 -0.5965 -0.2882  0.1127
 5586TIP3    H140953   0.930   2.064  -5.100 -0.8349 -0.1025  1.4420
 5586TIP3    H240954   0.781   2.058  -5.072 -1.1774  0.1232 -0.2447
 5587TIP3   OH240955  -1.257   0.356  -3.814 -0.3870 -0.1190  0.6688
 5587TIP3    H140956  -1.308   0.313  -3.882  0.6917 -0.3852  0.0064
 5587TIP3    H240957  -1.167   0.358  -3.848 -0.0424  0.8435  1.5531
 5588TIP3   OH240958   0.509   0.808  -4.124 -0.0095  0.5659  0.2951
 5588TIP3    H140959   0.458   0.821  -4.044  0.4974  1.0314  0.5572
 5588TIP3    H240960   0.452   0.759  -4.182 -1.6889  3.0515 -0.3298
 5589TIP3   OH240961  -2.579   0.619  -4.787  0.0765 -0.6268 -0.2245
 5589TIP3    H140962  -2.535   0.571  -4.717 -0.1870 -0.6330 -0.0628
 5589TIP3    H240963  -2.634   0.554  -4.830  0.3924 -0.6696 -0.5669
 5590TIP3   OH240964   0.007   0.679  -3.172 -0.1932 -0.2855  0.0221
 5590TIP3    H140965   0.023   0.587  -3.152  0.1897  0.1885  2.1063
 5590TIP3    H240966   0.018   0.724  -3.089 -0.6431  1.6292 -0.8976
 5591TIP3   OH240967   3.090  -0.668  -4.588  0.1334 -0.4255 -0.1877
 5591TIP3    H140968   3.153  -0.596  -4.584  0.7163 -0.9829  1.3232
 5591TIP3    H240969   3.015  -0.631  -4.635  0.3497  1.2389  0.6802
 5592TIP3   OH240970   2.990  -2.806  -4.218  0.3131  0.5015  0.3208
 5592TIP3    H140971   3.051  -2.733  -4.214  0.3435  0.4503  0.9034
 5592TIP3    H240972   3.043  -2.880  -4.249 -0.1645  1.1675 -2.2504
 5593TIP3   OH240973   1.995  -1.855  -4.021  0.1387 -0.2225 -0.5237
 5593TIP3    H140974   1.903  -1.839  -3.998  0.3144 -1.0965  0.9133
 5593TIP3    H240975   2.043  -1.789  -3.972  0.2958  0.3629 -1.4318
 5594TIP3   OH240976   2.625   2.261  -4.954  0.0084  0.3189  0.2458
 5594TIP3    H140977   2.612   2.223  -5.041  0.1570 -0.9225  0.7382
 5594TIP3    H240978   2.711   2.228  -4.926 -0.6091 -0.4209  1.3893
 5595TIP3   OH240979  -1.634   2.042  -5.007  0.1189  0.2538  0.0888
 5595TIP3    H140980  -1.556   2.090  -5.034  0.6753  0.7183  2.3037
 5595TIP3    H240981  -1.682   2.104  -4.952 -0.3403 -0.9518  1.0922
 5596TIP3   OH240982   2.895  -2.479  -2.838  0.1054 -0.2824  0.0345
 5596TIP3    H140983   2.969  -2.506  -2.785  0.0126 -1.7543 -0.5367
 5596TIP3    H240984   2.926  -2.486  -2.928  0.0722  1.6017 -0.1630
 5597TIP3   OH240985  -0.646   1.973  -3.586  0.2021 -0.5971  0.1811
 5597TIP3    H140986  -0.642   1.930  -3.672 -2.1787 -0.4551 -0.0663
 5597TIP3    H240987  -0.649   1.901  -3.523 -0.9001 -0.7755 -0.0556
 5598TIP3   OH240988  -0.057   2.850  -3.800 -0.6272 -0.1724 -0.3320
 5598TIP3    H140989   0.005   2.789  -3.761 -1.2900 -0.9468 -0.4560
 5598TIP3    H240990  -0.143   2.809  -3.786 -0.9475 -0.1502 -1.9833
 5599TIP3   OH240991  -1.567  -2.706  -3.037  0.8626  0.6091 -0.3588
 5599TIP3    H140992  -1.481  -2.697  -2.996 -0.1326  1.3980  1.7158
 5599TIP3    H240993  -1.628  -2.664  -2.975 -0.9450  0.6053 -2.0323
 5600TIP3   OH240994  -2.113  -3.222  -3.140  0.0374 -0.0709 -0.2226
 5600TIP3    H140995  -2.059  -3.236  -3.218 -0.7611 -1.0042 -0.6274
 5600TIP3    H240996  -2.099  -3.130  -3.118 -0.0862  0.3476 -1.7480
 5601TIP3   OH240997   0.757   3.000  -2.679 -0.0070 -0.0799 -0.6453
 5601TIP3    H140998   0.792   2.931  -2.622  0.2680 -0.9535 -1.8327
 5601TIP3    H240999   0.674   3.025  -2.638 -0.8850 -2.2057 -0.9588
 5602TIP3   OH241000   1.127   0.923  -5.030 -0.8757  0.1429  0.0020
 5602TIP3    H141001   1.076   0.848  -5.061 -0.1592 -0.5737  0.5124
 5602TIP3    H241002   1.102   0.933  -4.938 -2.2486  1.6327 -0.4923
 5603TIP3   OH241003  -1.497   1.117  -4.474  0.5151 -0.6810 -0.4979
 5603TIP3    H141004  -1.411   1.075  -4.480 -0.1186 -1.9721 -1.1431
 5603TIP3    H241005  -1.520   1.110  -4.381  1.1991 -0.1065 -0.2767
 5604TIP3   OH241006  -0.618  -2.449  -2.593  0.4102  0.6011  0.7276
 5604TIP3    H141007  -0.579  -2.531  -2.563 -1.0298 -0.6484 -0.6557
 5604TIP3    H241008  -0.547  -2.405  -2.641  0.5038 -1.0911 -0.7816
 5605TIP3   OH241009   3.361   1.648  -3.301 -0.1035  0.2767 -0.1840
 5605TIP3    H141010   3.309   1.709  -3.353  1.6593  3.2428  1.2732
 5605TIP3    H241011   3.449   1.686  -3.301  1.5987 -3.2569 -0.5743
 5606TIP3   OH241012  -0.014   3.310  -5.816  0.4216 -0.5330 -0.7121
 5606TIP3    H141013  -0.088   3.250  -5.810 -1.1623  1.3813  0.1633
 5606TIP3    H241014   0.057   3.266  -5.770 -0.8331 -1.5134  0.3608
 5607TIP3   OH241015   1.521  -1.388  -4.238  0.1433  0.7230 -0.0991
 5607TIP3    H141016   1.548  -1.449  -4.307 -1.3536  0.7804 -0.7690
 5607TIP3    H241017   1.539  -1.301  -4.275  0.4094  0.7377  0.0588
 5608TIP3   OH241018   1.264   3.155  -4.512  0.4373 -0.5503  0.3418
 5608TIP3    H141019   1.211   3.104  -4.573  0.9541  0.9955 -1.4686
 5608TIP3    H241020   1.352   3.118  -4.520  0.1295 -1.6760  1.7241
 5609TIP3   OH241021  -1.185   3.058  -4.034  0.4990  0.0084 -0.1390
 5609TIP3    H141022  -1.147   2.980  -4.075  0.6650 -0.0907  0.2011
 5609TIP3    H241023  -1.200   3.032  -3.943 -1.0705 -0.1940 -0.4277
 5610TIP3   OH241024   3.348  -0.753  -5.156  0.0061 -0.1044 -0.4370
 5610TIP3    H141025   3.411  -0.683  -5.140  1.9833 -1.8736 -0.0764
 5610TIP3    H241026   3.323  -0.742  -5.248  0.5944  0.8216 -0.5012
 5611TIP3   OH241027   3.298  -0.354  -2.163 -0.5287 -0.0633 -0.1778
 5611TIP3    H141028   3.272  -0.262  -2.174 -1.5355 -0.3849 -0.6072
 5611TIP3    H241029   3.248  -0.384  -2.087  0.1144 -0.1453  0.2140
 5612TIP3   OH241030  -0.804  -3.128  -2.683  0.1417 -0.5437 -0.2918
 5612TIP3    H141031  -0.723  -3.169  -2.653 -1.3335 -1.7341  2.4390
 5612TIP3    H241032  -0.847  -3.195  -2.736 -0.7226 -1.3766  1.3909
 5613TIP3   OH241033  -0.665   1.437  -5.317  0.0361  0.1599  0.2625
 5613TIP3    H141034  -0.724   1.372  -5.356  0.4947  0.3121 -0.7021
 5613TIP3    H241035  -0.601   1.385  -5.268  0.7740 -0.1793 -1.0160
 5614TIP3   OH241036  -1.209   2.703  -4.389 -0.1253 -0.1491 -0.0772
 5614TIP3    H141037  -1.139   2.687  -4.453 -0.0532 -0.2848  0.0364
 5614TIP3    H241038  -1.281   2.646  -4.418  0.0015 -0.4113  0.1147
 5615TIP3   OH241039   1.277  -2.540  -4.034 -0.6016  0.0085 -0.3226
 5615TIP3    H141040   1.289  -2.587  -3.951 -0.2330  0.9800  0.1798
 5615TIP3    H241041   1.217  -2.596  -4.083 -2.2248  0.2284  1.2774
 5616TIP3   OH241042  -2.244   2.914  -3.162  0.4698 -0.1638  0.0902
 5616TIP3    H141043  -2.177   2.854  -3.130  2.3603  0.1695 -2.9004
 5616TIP3    H241044  -2.206   3.001  -3.148 -0.9284  0.2481  1.5842
 5617TIP3   OH241045   1.612   2.362  -5.322  0.2932 -0.0990  0.3985
 5617TIP3    H141046   1.574   2.413  -5.393  0.8495  0.0938  0.2330
 5617TIP3    H241047   1.613   2.422  -5.247  0.3715 -0.0669  0.3722
 5618TIP3   OH241048   2.308   1.176  -4.381  0.4160  0.0782  0.2291
 5618TIP3    H141049   2.364   1.238  -4.428 -0.6538  2.2678  1.6643
 5618TIP3    H241050   2.221   1.188  -4.421 -0.2200  1.0061  1.8015
 5619TIP3   OH241051   1.970  -2.539  -3.247  0.6173  0.0762  0.3522
 5619TIP3    H141052   1.905  -2.533  -3.177  1.1621  1.0563  0.8095
 5619TIP3    H241053   2.054  -2.537  -3.201  0.9856 -1.5839 -0.2026
 5620TIP3   OH241054  -2.885  -1.480  -5.878  0.2938  0.3535 -0.1911
 5620TIP3    H141055  -2.935  -1.488  -5.796 -0.8664  0.9717 -0.8188
 5620TIP3    H241056  -2.864  -1.387  -5.885  0.9079  0.2134 -0.3135
 5621TIP3   OH241057   1.542   2.078  -3.115 -0.0557 -0.2143 -0.0194
 5621TIP3    H141058   1.554   1.983  -3.121 -0.3876 -0.3501  1.1410
 5621TIP3    H241059   1.499   2.091  -3.030 -1.8313  0.8092 -1.0082
 5622TIP3   OH241060   0.782  -1.849  -4.517  0.1978 -0.1914  0.2986
 5622TIP3    H141061   0.763  -1.895  -4.435  1.4966 -1.7604 -0.2321
 5622TIP3    H241062   0.698  -1.845  -4.563 -0.2373 -0.6688  1.0364
 5623TIP3   OH241063   1.498   3.265  -5.535 -0.4010 -0.0872 -0.0384
 5623TIP3    H141064   1.551   3.345  -5.543  1.2284 -1.2388 -1.5650
 5623TIP3    H241065   1.432   3.273  -5.603 -1.5515  0.8328  1.1319
 5624TIP3   OH241066   3.099   2.875  -2.386  0.2496 -0.7949 -0.1127
 5624TIP3    H141067   3.103   2.817  -2.310  0.1680 -1.0691 -0.3119
 5624TIP3    H241068   3.182   2.859  -2.432  0.6907  0.0275  0.3820
 5625TIP3   OH241069   1.756  -0.622  -5.670 -0.1590  0.4920 -0.3072
 5625TIP3    H141070   1.695  -0.560  -5.630  0.5570  0.2959  1.1897
 5625TIP3    H241071   1.809  -0.653  -5.596  0.2776 -1.0073 -1.2135
 5626TIP3   OH241072  -0.036  -3.330  -2.922  0.5574 -0.0176  0.1551
 5626TIP3    H141073   0.039  -3.361  -2.973  0.7598  0.1434  0.3535
 5626TIP3    H241074  -0.102  -3.399  -2.932 -0.4791  1.1987 -2.6182
 5627TIP3   OH241075  -2.637   2.350  -2.728  0.3105  0.4648 -0.0646
 5627TIP3    H141076  -2.646   2.438  -2.691  0.1352  0.1879  0.5661
 5627TIP3    H241077  -2.626   2.293  -2.652 -1.8596 -0.3490 -0.2850
 5628TIP3   OH241078  -1.026  -1.237  -5.830  0.2017 -0.1187  0.2685
 5628TIP3    H141079  -1.111  -1.201  -5.857  0.0158 -0.2926  0.6115
 5628TIP3    H241080  -1.046  -1.327  -5.804  0.0214  0.5813  2.7743
 5629TIP3   OH241081  -0.264  -2.789  -3.535  0.2213  0.4122 -0.1101
 5629TIP3    H141082  -0.356  -2.809  -3.522  0.1211 -0.8262 -2.1797
 5629TIP3    H241083  -0.258  -2.762  -3.627  1.9385  0.2972 -0.0738
 5630TIP3   OH241084  -0.839  -2.864  -2.705  0.2360  0.5573  0.2686
 5630TIP3    H141085  -0.850  -2.958  -2.716 -0.4156  0.4933  1.3492
 5630TIP3    H241086  -0.769  -2.855  -2.640  2.1706  0.8868 -1.7470
 5631TIP3   OH241087  -2.638  -2.773  -4.128 -0.0081  0.0398 -0.0111
 5631TIP3    H141088  -2.588  -2.778  -4.210  1.2795 -0.3789  0.7767
 5631TIP3    H241089  -2.718  -2.728  -4.153 -0.5022 -1.7026 -1.9260
 5632TIP3   OH241090   3.358   2.057  -3.562  0.5293 -0.4906  0.5152
 5632TIP3    H141091   3.294   2.042  -3.493  0.2085 -0.9740  0.1153
 5632TIP3    H241092   3.439   2.078  -3.516  0.5210 -1.5987  1.0623
 5633TIP3   OH241093  -2.388  -3.156  -5.837  0.7104 -0.5285 -0.1531
 5633TIP3    H141094  -2.477  -3.183  -5.859  0.5322 -0.8335  0.8833
 5633TIP3    H241095  -2.388  -3.061  -5.846 -0.7192 -0.0899  3.0575
 5634TIP3   OH241096  -3.103  -1.618  -5.660 -0.3959  0.5556 -0.2203
 5634TIP3    H141097  -3.124  -1.689  -5.599 -0.0173  0.8910  0.3138
 5634TIP3    H241098  -3.102  -1.659  -5.746 -0.8872  0.0607  0.0028
 5635TIP3   OH241099   1.045   1.015  -5.617 -0.4980  0.5017 -0.0311
 5635TIP3    H141100   0.953   1.020  -5.643 -0.6243 -0.7528  0.0937
 5635TIP3    H241101   1.089   0.971  -5.690  0.2317  2.0479 -0.5683
 5636TIP3   OH241102   0.650   0.696  -5.281 -0.2978 -0.3588 -0.1898
 5636TIP3    H141103   0.576   0.745  -5.317 -2.2405  0.0667  3.7798
 5636TIP3    H241104   0.724   0.757  -5.287 -0.7957  0.1115 -2.1124
 5637TIP3   OH241105   2.254   1.101  -5.220  0.0320  0.0643 -0.3918
 5637TIP3    H141106   2.277   1.010  -5.234  0.7111  0.2413 -0.4412
 5637TIP3    H241107   2.207   1.102  -5.137  1.1098 -0.1607  0.2372
 5638TIP3   OH241108  -2.499  -0.009  -2.409  0.4804 -0.2942  0.2477
 5638TIP3    H141109  -2.437   0.063  -2.425 -1.1996  1.2974  0.5117
 5638TIP3    H241110  -2.445  -0.087  -2.403  2.2791  0.7543 -1.3593
 5639TIP3   OH241111  -1.089  -2.213  -4.079  0.5513 -0.1243 -0.1546
 5639TIP3    H141112  -1.174  -2.195  -4.039  1.1370  0.5489  0.8209
 5639TIP3    H241113  -1.080  -2.308  -4.074 -0.0812 -0.1908 -0.1569
 5640TIP3   OH241114  -2.745  -1.313  -3.095  0.1435 -0.2408 -0.3315
 5640TIP3    H141115  -2.745  -1.343  -3.004  0.4274 -0.9072 -0.5433
 5640TIP3    H241116  -2.774  -1.222  -3.090  1.0544  0.0290  0.5247
 5641TIP3   OH241117   1.298   2.771  -5.124 -0.3584  0.2311  0.4463
 5641TIP3    H141118   1.386   2.803  -5.105 -0.6746  1.4155 -0.0156
 5641TIP3    H241119   1.252   2.847  -5.161 -0.8966 -0.9715 -1.4590
 5642TIP3   OH241120  -2.242   0.154  -3.357 -0.1210 -0.1872  0.1268
 5642TIP3    H141121  -2.267   0.185  -3.269  1.4013 -1.5571  1.1028
 5642TIP3    H241122  -2.217   0.234  -3.404 -0.6829  0.5469  1.0402
 5643TIP3   OH241123  -2.992   3.290  -3.711 -0.3281 -0.7105 -0.1127
 5643TIP3    H141124  -3.052   3.239  -3.656 -1.4305  0.3754 -0.2514
 5643TIP3    H241125  -2.978   3.236  -3.788 -0.3946 -1.3695  0.3254
 5644TIP3   OH241126   0.858   2.432  -4.529  0.1404  0.0732  0.4372
 5644TIP3    H141127   0.898   2.519  -4.520 -0.4453  0.5065 -0.8992
 5644TIP3    H241128   0.767   2.450  -4.552 -0.4912 -0.9027  1.9718
 5645TIP3   OH241129  -2.423   2.660  -3.748  0.1783 -0.5973 -0.0621
 5645TIP3    H141130  -2.505   2.705  -3.766 -0.3130 -0.6844  1.7313
 5645TIP3    H241131  -2.448   2.568  -3.738  0.5207 -0.6630  0.2274
 5646TIP3   OH241132  -0.732   3.071  -3.986  0.4622 -0.2816  0.0111
 5646TIP3    H141133  -0.736   3.007  -3.916 -1.4944  0.3547  0.5300
 5646TIP3    H241134  -0.823   3.096  -4.002  1.0005  0.8242 -1.6039
 5647TIP3   OH241135  -1.196   3.192  -3.221 -0.1198  0.1077  0.3336
 5647TIP3    H141136  -1.144   3.117  -3.250  0.9346  0.7987  0.3593
 5647TIP3    H241137  -1.284   3.157  -3.208 -0.2227 -0.6385 -1.9185
 5648TIP3   OH241138   0.841   3.130  -2.970  0.0951  0.3642 -0.1753
 5648TIP3    H141139   0.881   3.054  -2.928 -0.0145  0.3303 -0.1335
 5648TIP3    H241140   0.911   3.166  -3.025  0.5742  1.0025  0.8041
 5649TIP3   OH241141  -0.067  -2.618  -4.680 -0.2773 -0.1894 -0.5808
 5649TIP3    H141142  -0.048  -2.599  -4.772  0.6411 -0.5995 -0.4903
 5649TIP3    H241143   0.004  -2.676  -4.653 -0.0959  0.5557  0.6042
 5650TIP3   OH241144  -2.268   0.118  -4.029  0.2565  0.1536 -0.8347
 5650TIP3    H141145  -2.325   0.193  -4.048  0.8803  1.1459  0.9644
 5650TIP3    H241146  -2.329   0.044  -4.022 -0.9649  1.2639  1.4871
 5651TIP3   OH241147  -1.992  -1.546  -2.902 -0.0301 -0.9573  0.1416
 5651TIP3    H141148  -1.922  -1.578  -2.959 -0.9366 -2.5325 -0.1688
 5651TIP3    H241149  -1.949  -1.483  -2.844  0.8541  0.9916 -2.4411
 5652TIP3   OH241150  -0.618   2.789  -3.821  0.2694 -0.3808  0.5679
 5652TIP3    H141151  -0.686   2.750  -3.875  0.3057 -1.1152  1.0390
 5652TIP3    H241152  -0.537   2.745  -3.849  0.4158 -0.1513  0.6282
 5653TIP3   OH241153  -0.232  -2.346  -2.504  0.2729  0.2837  0.6525
 5653TIP3    H141154  -0.320  -2.334  -2.540 -1.0652  0.4212  3.7030
 5653TIP3    H241155  -0.208  -2.260  -2.471  1.2079  0.0410  0.6374
 5654TIP3   OH241156   3.291  -0.909  -4.277  0.0698 -0.8594 -0.2934
 5654TIP3    H141157   3.263  -0.906  -4.368 -2.9359  3.5508  0.4499
 5654TIP3    H241158   3.362  -0.846  -4.271 -2.2824  1.9133  0.8385
 5655TIP3   OH241159   1.942   2.516  -3.865  0.2318  0.3500 -0.3350
 5655TIP3    H141160   1.985   2.433  -3.884 -0.5349 -0.2538  0.4918
 5655TIP3    H241161   2.014   2.575  -3.839  0.6564 -0.4230  0.2889
 5656TIP3   OH241162   1.646  -3.107  -4.198 -0.1929  0.2998  0.4307
 5656TIP3    H141163   1.647  -3.185  -4.254  0.3289 -0.1039  0.9889
 5656TIP3    H241164   1.688  -3.039  -4.250  0.8611 -0.2389  0.5430
 5657TIP3   OH241165  -1.746  -3.194  -3.873 -0.0508 -0.3857 -0.2173
 5657TIP3    H141166  -1.697  -3.121  -3.836 -0.2431 -0.9363  1.1630
 5657TIP3    H241167  -1.701  -3.272  -3.842 -2.2425 -0.9392  1.8369
 5658TIP3   OH241168  -2.788   1.126  -4.660  0.4396  0.0248  0.6270
 5658TIP3    H141169  -2.780   1.153  -4.751 -0.0357  1.2344  0.9336
 5658TIP3    H241170  -2.700   1.095  -4.636  0.2156 -1.8234 -0.6758
 5659TIP3   OH241171   2.218   0.983  -5.634 -0.1693 -0.9800 -0.1059
 5659TIP3    H141172   2.191   0.936  -5.555  1.1009  0.0424  0.9795
 5659TIP3    H241173   2.227   1.074  -5.605  2.4734 -0.9322 -0.8497
 5660TIP3   OH241174   3.326   2.353  -2.555 -0.0012  0.4430  0.2473
 5660TIP3    H141175   3.326   2.427  -2.494 -1.2797  0.6122  0.0494
 5660TIP3    H241176   3.312   2.277  -2.499 -1.9305  0.6649  0.1283
 5661TIP3   OH241177  -3.313   3.167  -4.152 -0.8366 -0.0165 -0.2127
 5661TIP3    H141178  -3.236   3.139  -4.202 -0.1143  2.8688 -0.8894
 5661TIP3    H241179  -3.283   3.174  -4.062 -0.6402 -0.0820 -0.2739
 5662TIP3   OH241180  -0.532  -2.480  -4.940  0.1891 -0.7726 -0.5170
 5662TIP3    H141181  -0.475  -2.556  -4.928 -0.5920 -1.6189 -1.8591
 5662TIP3    H241182  -0.620  -2.517  -4.946 -0.6203  0.5458  1.9792
 5663TIP3   OH241183   2.855   1.453  -4.233 -0.2117 -0.0043 -0.0376
 5663TIP3    H141184   2.918   1.428  -4.166  1.1788  0.2807 -1.1937
 5663TIP3    H241185   2.798   1.377  -4.242  0.2672 -0.4544  0.6775
 5664TIP3   OH241186   0.813   2.774  -4.286 -0.0140 -0.3563 -0.2527
 5664TIP3    H141187   0.720   2.762  -4.268  0.2399 -0.1056  1.3414
 5664TIP3    H241188   0.855   2.772  -4.200  1.2140  1.5666 -0.7284
 5665TIP3   OH241189   3.196  -2.951  -5.479  0.3025  0.8286 -0.2017
 5665TIP3    H141190   3.102  -2.950  -5.497  0.4415  2.3561 -1.0763
 5665TIP3    H241191   3.221  -2.858  -5.478  2.0674  0.4293 -1.5510
 5666TIP3   OH241192  -1.098   0.933  -3.129  0.1356  0.2628 -0.1128
 5666TIP3    H141193  -1.034   0.991  -3.088 -0.1221  1.2475 -1.0642
 5666TIP3    H241194  -1.051   0.894  -3.203  0.6115 -1.5421  1.0600
 5667TIP3   OH241195   2.099  -2.663  -5.296  0.1225 -0.4551  0.6017
 5667TIP3    H141196   2.036  -2.593  -5.278 -0.8060 -1.1315  0.0856
 5667TIP3    H241197   2.127  -2.693  -5.210 -0.7019 -0.5143  0.8617
 5668TIP3   OH241198  -0.108  -0.092  -4.748 -0.1520 -0.3110  0.6467
 5668TIP3    H141199  -0.014  -0.104  -4.731  0.0089 -1.2378 -0.7401
 5668TIP3    H241200  -0.120   0.003  -4.749  1.0874 -0.1393 -0.6762
 5669TIP3   OH241201   3.258   0.225  -5.036 -0.0512 -0.0479 -0.0749
 5669TIP3    H141202   3.277   0.250  -5.126 -1.3644 -0.5703 -0.5155
 5669TIP3    H241203   3.182   0.277  -5.011  0.0097 -0.2494  0.5713
 5670TIP3   OH241204  -3.231   3.161  -3.891  0.2785 -0.5937  0.3651
 5670TIP3    H141205  -3.223   3.157  -3.796  1.4185  1.6664  0.4386
 5670TIP3    H241206  -3.147   3.130  -3.924  0.0026 -1.0678  0.0936
 5671TIP3   OH241207   3.058  -1.233  -5.859  0.1409  0.2155 -0.0377
 5671TIP3    H141208   3.110  -1.163  -5.819  0.2802 -0.5852  1.2447
 5671TIP3    H241209   3.119  -1.280  -5.915  1.1198 -1.2397  2.0973
 5672TIP3   OH241210   1.913  -2.500  -5.187 -0.4074 -0.1870  0.1541
 5672TIP3    H141211   1.903  -2.416  -5.233  2.2158  0.5672  0.7689
 5672TIP3    H241212   1.891  -2.480  -5.096 -0.7944 -0.4395  0.1177
 5673TIP3   OH241213   2.783   0.050  -4.464  0.5229 -0.5756  0.4216
 5673TIP3    H141214   2.719  -0.019  -4.449 -0.7601  0.0776 -1.5012
 5673TIP3    H241215   2.868   0.010  -4.447 -0.2941 -2.0031  1.2942
 5674TIP3   OH241216  -2.154   0.921  -4.574 -0.0441  0.2642 -0.3113
 5674TIP3    H141217  -2.182   0.986  -4.638 -0.0171  0.2761 -0.3114
 5674TIP3    H241218  -2.192   0.952  -4.491  0.4605  0.6003 -0.2049
 5675TIP3   OH241219  -0.130  -2.106  -5.331 -0.0038  0.3049  0.5636
 5675TIP3    H141220  -0.215  -2.146  -5.314  0.2859 -1.0105 -0.8660
 5675TIP3    H241221  -0.137  -2.073  -5.421  0.6934  1.0188  0.7605
 5676TIP3   OH241222  -0.866  -2.335  -5.586 -0.3385  0.2484 -0.4909
 5676TIP3    H141223  -0.912  -2.251  -5.580  0.9556  0.9342  0.2634
 5676TIP3    H241224  -0.879  -2.375  -5.500 -1.1201 -0.4252 -0.9180
 5677TIP3   OH241225   1.190  -0.426  -2.893 -0.2655 -0.0170 -0.4481
 5677TIP3    H141226   1.261  -0.379  -2.849  1.2413  1.0409 -3.6884
 5677TIP3    H241227   1.197  -0.516  -2.860 -0.2620  0.9337  2.4776
 5678TIP3   OH241228  -0.802  -3.331  -4.563  0.2431 -0.5659  0.0098
 5678TIP3    H141229  -0.791  -3.268  -4.634 -0.9903 -0.4060 -0.0536
 5678TIP3    H241230  -0.803  -3.417  -4.606  1.7053 -0.6398  0.0758
 5679TIP3   OH241231  -1.424   3.057  -3.180 -0.0179 -0.7417 -0.5612
 5679TIP3    H141232  -1.465   3.127  -3.129  0.6453  1.6934 -3.0687
 5679TIP3    H241233  -1.496   3.019  -3.231 -0.0623 -0.3592 -0.7898
 5680TIP3   OH241234  -2.723   0.258  -5.345  0.3299  0.1531  0.0771
 5680TIP3    H141235  -2.707   0.217  -5.430 -1.0616 -2.7174  1.0513
 5680TIP3    H241236  -2.794   0.320  -5.361 -1.0855 -1.5600 -0.6414
 5681TIP3   OH241237  -0.664   1.684  -5.197  0.0921 -0.0259  0.3075
 5681TIP3    H141238  -0.669   1.597  -5.235 -0.8702  0.2131 -0.1302
 5681TIP3    H241239  -0.591   1.726  -5.242  1.0398 -0.8282  1.0312
 5682TIP3   OH241240  -3.269   0.694  -3.488  0.9174 -0.2115 -0.1200
 5682TIP3    H141241  -3.358   0.692  -3.454  0.8095 -1.7349 -0.4193
 5682TIP3    H241242  -3.280   0.688  -3.583  1.3298  0.1217 -0.1922
 5683TIP3   OH241243   1.740  -1.908  -4.284 -0.0184 -0.3997  0.0787
 5683TIP3    H141244   1.826  -1.914  -4.243 -0.5296 -0.3015  1.2180
 5683TIP3    H241245   1.758  -1.892  -4.376  1.1802 -0.6925  0.2493
 5684TIP3   OH241246  -1.497  -1.173  -3.622  0.3759 -0.5993  0.1202
 5684TIP3    H141247  -1.547  -1.222  -3.556  0.8741 -1.1596  0.0866
 5684TIP3    H241248  -1.473  -1.092  -3.578  0.9554 -1.0936  0.7308
 5685TIP3   OH241249   1.791  -1.678  -2.299  0.0670 -0.2532  0.7478
 5685TIP3    H141250   1.847  -1.737  -2.349  0.6599  0.1616  0.9087
 5685TIP3    H241251   1.820  -1.687  -2.208  0.6841  0.8435  0.6743
 5686TIP3   OH241252  -0.628  -2.404  -2.948 -0.1156  0.1987  0.5896
 5686TIP3    H141253  -0.637  -2.452  -3.031  1.4044  0.2337  0.3761
 5686TIP3    H241254  -0.715  -2.406  -2.910 -1.4808  2.2027 -2.0998
 5687TIP3   OH241255  -0.422  -1.642  -2.322  0.2868 -0.5474  0.6586
 5687TIP3    H141256  -0.390  -1.556  -2.294 -1.4087  0.3356  0.0519
 5687TIP3    H241257  -0.343  -1.690  -2.348  1.3722  0.4448  1.9723
 5688TIP3   OH241258   2.725  -2.938  -4.086 -0.3059  0.1342 -0.0299
 5688TIP3    H141259   2.749  -3.019  -4.041 -1.5853  0.8275  2.0398
 5688TIP3    H241260   2.786  -2.872  -4.052  0.3434  0.1909 -1.2523
 5689TIP3   OH241261  -3.263  -0.489  -3.284  0.0316  0.1837  0.4594
 5689TIP3    H141262  -3.343  -0.464  -3.238  1.0801  1.3079  1.8006
 5689TIP3    H241263  -3.193  -0.472  -3.220  1.0982 -5.5239  1.3529
 5690TIP3   OH241264  -1.114   1.536  -3.997 -0.3561  0.0815  0.2482
 5690TIP3    H141265  -1.115   1.510  -3.905  0.8596 -0.6776  0.0716
 5690TIP3    H241266  -1.028   1.509  -4.028 -0.8161  0.1686 -1.1603
 5691TIP3   OH241267  -1.088  -2.680  -4.586 -0.3551 -1.0408 -0.5265
 5691TIP3    H141268  -1.095  -2.718  -4.673 -0.6209  1.0307 -1.4829
 5691TIP3    H241269  -1.075  -2.586  -4.602  1.2092 -0.8116  1.6445
 5692TIP3   OH241270  -0.403  -1.977  -2.460  0.4883 -0.0867  0.0533
 5692TIP3    H141271  -0.342  -1.997  -2.389  0.7325  0.6358  0.0553
 5692TIP3    H241272  -0.347  -1.966  -2.537  0.3828  0.6801  0.0757
 5693TIP3   OH241273  -2.680  -1.650  -3.484 -0.2445  0.1387 -0.3415
 5693TIP3    H141274  -2.639  -1.571  -3.449 -0.1423  0.0783 -0.3275
 5693TIP3    H241275  -2.619  -1.682  -3.550  1.4726 -1.9551  2.0776
 5694TIP3   OH241276   1.113   0.069  -5.040 -0.5718  0.2594  0.0644
 5694TIP3    H141277   1.075   0.057  -5.126 -2.2047  0.8890  0.6647
 5694TIP3    H241278   1.098   0.161  -5.019 -0.1615  0.1267  1.0124
 5695TIP3   OH241279   2.450  -2.433  -4.162 -0.2189 -0.7608 -0.1645
 5695TIP3    H141280   2.527  -2.455  -4.109 -0.2905 -2.3249 -0.6478
 5695TIP3    H241281   2.482  -2.370  -4.226 -0.0587  0.9374  1.4911
 5696TIP3   OH241282   2.617  -2.462  -5.758  0.1023  0.8947 -0.2202
 5696TIP3    H141283   2.681  -2.396  -5.783 -0.8610  1.5365 -1.0735
 5696TIP3    H241284   2.552  -2.414  -5.706 -0.1708  0.4386 -0.1365
 5697TIP3   OH241285  -0.408   1.272  -4.142 -0.1835 -0.1220  0.2109
 5697TIP3    H141286  -0.341   1.335  -4.167  0.0582 -0.4253  0.0948
 5697TIP3    H241287  -0.400   1.201  -4.205 -1.7405  0.6074 -0.8745
 5698TIP3   OH241288   1.364   1.142  -4.789 -0.1041 -0.3121 -0.7625
 5698TIP3    H141289   1.291   1.203  -4.783 -0.7561 -1.1089 -0.4254
 5698TIP3    H241290   1.417   1.176  -4.861  0.3702  1.4930  0.3859
 5699TIP3   OH241291   0.422   3.346  -4.192  0.2102  0.2234  0.1630
 5699TIP3    H141292   0.474   3.426  -4.199  0.4417  0.0212 -0.5647
 5699TIP3    H241293   0.440   3.312  -4.104  0.0597  0.9959  0.4999
 5700TIP3   OH241294   0.002  -1.679  -4.156  0.4649  0.2877  0.3433
 5700TIP3    H141295   0.000  -1.584  -4.165  1.8565  0.6451  3.0546
 5700TIP3    H241296  -0.087  -1.707  -4.180 -0.0817  2.2789 -0.1082
 5701TIP3   OH241297   1.265  -0.908  -3.279 -0.2394 -0.3966 -0.0276
 5701TIP3    H141298   1.284  -0.942  -3.191  2.3810  0.7530 -0.0573
 5701TIP3    H241299   1.224  -0.823  -3.264 -0.7014 -0.6273  0.0497
 5702TIP3   OH241300  -0.332  -0.014  -4.397  0.0057  0.3858 -0.2818
 5702TIP3    H141301  -0.278  -0.091  -4.413  0.3888  0.5367  0.2540
 5702TIP3    H241302  -0.374  -0.030  -4.312  0.3641  0.9145  0.0057
 5703TIP3   OH241303   3.013   2.146  -3.104  0.1680 -0.2211 -0.1796
 5703TIP3    H141304   3.054   2.078  -3.157  3.2106  2.1787 -1.1471
 5703TIP3    H241305   2.932   2.167  -3.151  1.4848 -0.0090 -2.5173
 5704TIP3   OH241306   1.722   0.056  -4.742 -0.1023 -0.1751 -0.7335
 5704TIP3    H141307   1.670  -0.025  -4.740  0.3712 -0.4714  0.1324
 5704TIP3    H241308   1.773   0.050  -4.823  1.5497 -1.8164  0.3459
 5705TIP3   OH241309  -0.490   2.687  -2.971  0.2139 -0.1373 -0.5898
 5705TIP3    H141310  -0.433   2.621  -2.931  0.2783  0.2383 -0.0380
 5705TIP3    H241311  -0.457   2.770  -2.936 -1.9133 -0.0180  1.3895
 5706TIP3   OH241312   0.581   2.032  -3.459  0.2353  0.4930  0.0043
 5706TIP3    H141313   0.536   2.115  -3.445  0.0818  0.5941 -0.9840
 5706TIP3    H241314   0.661   2.038  -3.406 -0.8972  0.2993  1.8053
 5707TIP3   OH241315   3.247  -0.912  -4.850 -0.2055  0.5237  0.0149
 5707TIP3    H141316   3.341  -0.899  -4.843 -0.2651  0.6537  0.6057
 5707TIP3    H241317   3.238  -1.004  -4.876  0.0149 -0.9188  4.2370
 5708TIP3   OH241318  -0.822   0.290  -4.231 -0.8638 -0.1699  0.0326
 5708TIP3    H141319  -0.804   0.335  -4.148  1.7759 -0.0458 -0.5238
 5708TIP3    H241320  -0.817   0.197  -4.209 -0.1215 -0.1373  0.0046
 5709TIP3   OH241321   0.055   3.103  -4.977  0.3489  0.1752  0.0605
 5709TIP3    H141322   0.035   3.095  -4.884 -1.2618  0.8416 -0.2049
 5709TIP3    H241323  -0.030   3.106  -5.021  1.0067  1.8903 -1.2464
 5710TIP3   OH241324   1.640   1.946  -2.685 -0.1276  0.1470 -0.1688
 5710TIP3    H141325   1.713   1.885  -2.691 -0.6544 -0.5300  0.0616
 5710TIP3    H241326   1.637   1.972  -2.593  0.0982  0.5201 -0.2682
 5711TIP3   OH241327   1.276   0.615  -2.494 -0.8797 -0.4540  0.6623
 5711TIP3    H141328   1.250   0.579  -2.579  1.1497 -0.9003  0.1714
 5711TIP3    H241329   1.300   0.538  -2.442 -1.0331 -0.1027  1.2643
 5712TIP3   OH241330   3.328  -2.237  -3.508  0.2474 -0.0125 -0.1822
 5712TIP3    H141331   3.401  -2.203  -3.456 -0.3189 -0.6687  1.0947
 5712TIP3    H241332   3.256  -2.177  -3.490  0.4727  0.7106 -1.5487
 5713TIP3   OH241333  -1.073  -3.033  -2.905  0.0474 -0.2528  0.5716
 5713TIP3    H141334  -1.146  -3.094  -2.897  0.8675 -1.4098 -0.5171
 5713TIP3    H241335  -1.090  -2.966  -2.839 -2.3737 -0.0996 -0.1095
 5714TIP3   OH241336  -2.367  -2.541  -3.267  0.1590 -0.0798 -0.3570
 5714TIP3    H141337  -2.300  -2.477  -3.244  2.1005 -2.4716  0.9847
 5714TIP3    H241338  -2.343  -2.620  -3.220 -2.6436 -1.5981 -1.2434
 5715TIP3   OH241339   0.365  -2.624  -5.335  0.7437 -0.1458 -0.1998
 5715TIP3    H141340   0.327  -2.634  -5.248  0.9818 -0.4212 -0.1295
 5715TIP3    H241341   0.372  -2.529  -5.347  2.1668 -0.1261  0.7140
 5716TIP3   OH241342  -3.134  -0.879  -4.876  0.1799 -0.1720  0.6025
 5716TIP3    H141343  -3.101  -0.942  -4.939  0.6538  0.3844  0.2832
 5716TIP3    H241344  -3.185  -0.931  -4.814 -2.1229 -0.4934 -1.4059
 5717TIP3   OH241345   0.356  -2.977  -5.846  0.7701  0.5508  0.2374
 5717TIP3    H141346   0.337  -2.892  -5.885  1.1980 -0.1236 -1.5474
 5717TIP3    H241347   0.279  -3.031  -5.866  0.3959  0.5406  1.5589
 5718TIP3   OH241348   0.123   2.791  -3.573  0.3663 -0.0674  0.1671
 5718TIP3    H141349   0.056   2.821  -3.511 -0.8898  0.4576 -1.3392
 5718TIP3    H241350   0.181   2.866  -3.584  1.4028 -0.6121  1.6814
 5719TIP3   OH241351   1.264  -1.260  -5.564 -0.3392 -0.1190 -0.3454
 5719TIP3    H141352   1.314  -1.234  -5.641  0.3082 -0.0210  0.1001
 5719TIP3    H241353   1.283  -1.354  -5.554 -1.3939 -0.4189 -1.0108
 5720TIP3   OH241354   1.027  -0.357  -3.106 -0.3242 -0.4631 -0.3260
 5720TIP3    H141355   0.959  -0.321  -3.049  1.0904  0.2692  0.9741
 5720TIP3    H241356   1.103  -0.369  -3.048  1.7189  1.8740 -2.3189
 5721TIP3   OH241357   0.927  -1.397  -4.322  0.1841  0.2660 -0.0059
 5721TIP3    H141358   0.942  -1.472  -4.264  1.8133  0.9987  0.5892
 5721TIP3    H241359   0.888  -1.435  -4.401  0.2449 -1.0962  0.5923
 5722TIP3   OH241360  -0.203   2.194  -5.001  0.4833  0.0474  0.4875
 5722TIP3    H141361  -0.231   2.131  -5.067  0.8836 -0.8384  1.1462
 5722TIP3    H241362  -0.122   2.158  -4.966  1.2886  1.4520  0.1671
 5723TIP3   OH241363  -1.935  -2.436  -3.249 -0.0098  0.0958 -0.5518
 5723TIP3    H141364  -1.903  -2.383  -3.323  1.3925  0.7013  0.4464
 5723TIP3    H241365  -1.980  -2.373  -3.193 -0.9012 -0.3322 -0.7622
 5724TIP3   OH241366   3.179   0.331  -3.249  0.0221 -0.0004  0.4981
 5724TIP3    H141367   3.183   0.387  -3.326 -1.8109 -0.8064 -0.2436
 5724TIP3    H241368   3.269   0.299  -3.238  0.0279 -1.3337 -2.4697
 5725TIP3   OH241369   2.473   1.671  -5.237  0.0767 -0.0988  0.2114
 5725TIP3    H141370   2.512   1.739  -5.292 -0.8694 -0.4404 -0.9381
 5725TIP3    H241371   2.438   1.719  -5.161 -0.3573  0.6853 -0.4575
 5726TIP3   OH241372  -0.798   0.191  -5.057 -0.1555  0.1391 -0.3234
 5726TIP3    H141373  -0.772   0.277  -5.090 -0.0738 -0.0916 -0.8678
 5726TIP3    H241374  -0.887   0.204  -5.024  0.2989  0.7228  0.7389
 5727TIP3   OH241375   3.030  -2.013  -5.188  0.0547  0.0138  0.5988
 5727TIP3    H141376   2.991  -1.964  -5.115  2.2329  0.4530  1.5477
 5727TIP3    H241377   3.036  -2.103  -5.156 -0.0935 -0.0319  0.4968
 5728TIP3   OH241378  -1.359  -2.639  -3.463 -0.1377  0.2584 -0.6243
 5728TIP3    H141379  -1.314  -2.714  -3.426  1.6095  3.0220  3.6034
 5728TIP3    H241380  -1.443  -2.636  -3.417 -0.3734  0.6977 -1.0687
 5729TIP3   OH241381   2.252  -2.096  -1.850  0.2097 -0.1250 -0.2071
 5729TIP3    H141382   2.187  -2.128  -1.913 -0.9702 -0.6421  1.2275
 5729TIP3    H241383   2.286  -2.016  -1.890 -0.3422 -0.5401 -1.5953
 5730TIP3   OH241384  -0.180  -2.503  -3.975 -0.3440 -0.2860 -0.2606
 5730TIP3    H141385  -0.273  -2.521  -3.992 -0.2882 -0.4641 -0.3762
 5730TIP3    H241386  -0.165  -2.418  -4.015 -0.4303 -0.3095 -0.3458
 5731TIP3   OH241387   1.627  -2.554  -1.944  0.2927  0.4905  0.4882
 5731TIP3    H141388   1.574  -2.478  -1.919 -0.9968 -0.0813 -0.3885
 5731TIP3    H241389   1.567  -2.628  -1.940  1.9938 -0.9332  3.3511
 5732TIP3   OH241390   1.561   3.212  -3.284 -0.3995  0.5610  1.0193
 5732TIP3    H141391   1.593   3.183  -3.199 -0.9276 -0.1594  0.9741
 5732TIP3    H241392   1.515   3.137  -3.320 -1.1030  1.1888  0.5581
 5733TIP3   OH241393  -1.212   2.451  -4.559  0.1525  0.0483 -0.0226
 5733TIP3    H141394  -1.149   2.432  -4.628  0.4366  0.4098  0.1303
 5733TIP3    H241395  -1.162   2.440  -4.478  0.8493  2.9831  0.0735
 5734TIP3   OH241396   0.745  -2.424  -4.502 -0.1420 -0.4311 -0.2953
 5734TIP3    H141397   0.774  -2.333  -4.494 -1.2128 -0.1172  0.2613
 5734TIP3    H241398   0.783  -2.455  -4.585  0.4623  0.4253 -0.3480
 5735TIP3   OH241399  -2.008  -0.166  -3.850 -0.4860  0.2313  0.0839
 5735TIP3    H141400  -1.983  -0.088  -3.801 -0.0573 -0.0697  0.3525
 5735TIP3    H241401  -2.077  -0.206  -3.798  1.3749 -1.2201  1.5888
 5736TIP3   OH241402   2.440  -3.063  -3.942 -0.0633  0.6554  0.3805
 5736TIP3    H141403   2.365  -3.123  -3.934 -1.7035  2.4010 -0.9709
 5736TIP3    H241404   2.515  -3.121  -3.953 -1.4787 -1.1803 -0.1731
 5737TIP3   OH241405   2.012  -1.016  -2.605  0.1760  0.7531 -0.3834
 5737TIP3    H141406   1.948  -0.948  -2.624 -0.2099  0.0197 -1.8150
 5737TIP3    H241407   1.960  -1.092  -2.578  0.2767 -0.2670 -2.7948
 5738TIP3   OH241408  -0.628  -3.294  -3.958 -0.5063  0.1593 -0.5681
 5738TIP3    H141409  -0.595  -3.353  -3.891 -1.5699 -1.0455 -1.0662
 5738TIP3    H241410  -0.709  -3.335  -3.988 -0.7676  1.3860 -1.6076
 5739TIP3   OH241411   0.630   3.151  -4.997 -0.7543 -0.1216 -0.4144
 5739TIP3    H141412   0.585   3.070  -4.972  0.8302 -1.1571 -0.7625
 5739TIP3    H241413   0.584   3.220  -4.949 -1.4794 -1.3550  0.7367
 5740TIP3   OH241414  -2.028   1.334  -3.679  0.0420 -0.3740 -0.3071
 5740TIP3    H141415  -2.067   1.280  -3.748 -0.2251 -0.9772  0.3076
 5740TIP3    H241416  -2.018   1.275  -3.604 -0.7576  0.5552  0.5636
 5741TIP3   OH241417   3.312   0.547  -5.629 -0.0496 -0.8048  0.3786
 5741TIP3    H141418   3.400   0.561  -5.594 -0.0188 -0.8039  0.3007
 5741TIP3    H241419   3.297   0.452  -5.622  0.0377 -0.8319  0.2013
 5742TIP3   OH241420  -2.184   0.270  -5.720 -0.3790  0.2886  0.2446
 5742TIP3    H141421  -2.156   0.359  -5.699  1.0269 -0.4018  1.4698
 5742TIP3    H241422  -2.102   0.222  -5.734 -1.1113 -0.8424 -0.3017
 5743TIP3   OH241423  -2.340  -0.092   5.481  0.5334 -0.5799  0.0548
 5743TIP3    H141424  -2.256  -0.107   5.525  1.3624 -0.5995 -1.4852
 5743TIP3    H241425  -2.371  -0.179   5.457  0.6140 -0.4908 -0.3666
 5744TIP3   OH241426   1.425  -1.490  -2.603  0.2289  0.5852 -0.5656
 5744TIP3    H141427   1.471  -1.572  -2.620 -2.6227 -1.2372 -0.1282
 5744TIP3    H241428   1.434  -1.440  -2.684  1.6257 -0.3361 -1.0026
 5745TIP3   OH241429  -3.091  -2.941  -3.377 -0.7146  0.6862  0.2322
 5745TIP3    H141430  -3.046  -2.938  -3.462 -0.9550  0.9217  0.1114
 5745TIP3    H241431  -3.112  -2.850  -3.358 -0.2211  0.6915  0.7843
 5746TIP3   OH241432   2.633  -2.046  -2.667  0.1984  0.0167 -0.4488
 5746TIP3    H141433   2.544  -2.081  -2.673  0.1376  0.3203 -1.5326
 5746TIP3    H241434   2.688  -2.112  -2.709  0.2519  0.5832 -1.3090
 5747TIP3   OH241435   0.487   0.053  -4.487  0.2068  0.2380  0.2103
 5747TIP3    H141436   0.407   0.105  -4.483 -1.8562 -2.7575  1.1477
 5747TIP3    H241437   0.496   0.015  -4.400  2.6244  0.3859  0.0924
 5748TIP3   OH241438   1.120   0.862  -3.716  0.1814  0.3194  0.4899
 5748TIP3    H141439   1.096   0.933  -3.776 -0.8315 -0.5392 -0.1447
 5748TIP3    H241440   1.196   0.821  -3.757  0.2015  0.4557  0.3912
 5749TIP3   OH241441   1.172  -1.663  -2.754 -0.1476 -0.3075 -0.2344
 5749TIP3    H141442   1.113  -1.663  -2.829 -0.7711 -0.5840  0.2478
 5749TIP3    H241443   1.167  -1.752  -2.719 -2.9271  0.7405  2.4783
 5750TIP3   OH241444  -1.512   1.793  -5.327  0.3176  0.2212  0.7446
 5750TIP3    H141445  -1.530   1.877  -5.369  1.6929  0.4045  0.4697
 5750TIP3    H241446  -1.419   1.777  -5.344  0.2610 -0.9931  1.4461
 5751TIP3   OH241447  -0.800   1.779  -3.779  1.1820  0.2001  0.3196
 5751TIP3    H141448  -0.891   1.807  -3.793  1.1685  0.1556  0.3204
 5751TIP3    H241449  -0.755   1.805  -3.860  1.4425  1.3590  0.8148
 5752TIP3   OH241450   1.476   2.030  -4.433  0.2180 -0.5798  0.0936
 5752TIP3    H141451   1.541   2.029  -4.503  0.7016 -1.6063  0.5366
 5752TIP3    H241452   1.418   2.102  -4.455 -0.0617 -1.3337 -1.7437
 5753TIP3   OH241453  -1.137   0.142  -3.002 -0.3856  0.2994  0.2144
 5753TIP3    H141454  -1.225   0.123  -3.034 -0.9792  1.8562  0.8371
 5753TIP3    H241455  -1.079   0.093  -3.060 -1.7194 -2.5707  1.1217
 5754TIP3   OH241456   2.645   1.607  -3.025  0.4320 -0.1696  0.3745
 5754TIP3    H141457   2.614   1.558  -3.101  0.2534 -0.1424  0.4280
 5754TIP3    H241458   2.611   1.696  -3.038  0.2143 -0.2202  0.5965
 5755TIP3   OH241459  -1.078  -1.109  -3.091  0.1504  0.1534  0.0392
 5755TIP3    H141460  -1.093  -1.192  -3.137 -0.8948 -0.2612  1.0806
 5755TIP3    H241461  -1.034  -1.134  -3.010  0.2655  0.6697  0.1392
 5756TIP3   OH241462   1.045   1.800  -5.589  0.1624 -0.1392  0.6038
 5756TIP3    H141463   1.134   1.771  -5.609 -0.1648  0.4096 -2.1042
 5756TIP3    H241464   0.995   1.720  -5.577  0.2252 -0.6780 -2.1102
 5757TIP3   OH241465  -0.980   3.306  -3.399  0.2079  0.1498  0.2822
 5757TIP3    H141466  -0.945   3.228  -3.356 -3.3190 -1.3577  0.7537
 5757TIP3    H241467  -0.992   3.370  -3.329 -1.3328 -0.6739  0.8000
 5758TIP3   OH241468  -1.458  -2.146  -3.528 -0.1867 -0.4916  0.1660
 5758TIP3    H141469  -1.396  -2.182  -3.592 -0.6817 -1.2807  0.1175
 5758TIP3    H241470  -1.402  -2.110  -3.459  0.3388 -0.2775 -0.3624
 5759TIP3   OH241471   2.446   1.658  -3.535 -0.1274 -0.1843  0.0374
 5759TIP3    H141472   2.358   1.628  -3.555 -0.0649  0.6789 -1.7036
 5759TIP3    H241473   2.463   1.728  -3.598  1.3062  0.5972  1.2134
 5760TIP3   OH241474  -0.054  -2.295  -4.651  0.2418 -0.3049 -0.0700
 5760TIP3    H141475  -0.017  -2.365  -4.704 -0.1066 -0.7838  0.3049
 5760TIP3    H241476  -0.123  -2.337  -4.599  0.1522  0.2731  0.3014
 5761TIP3   OH241477   1.416   1.763  -4.459  0.3386  0.0677 -0.4714
 5761TIP3    H141478   1.488   1.793  -4.515  0.5823  0.1622 -0.1069
 5761TIP3    H241479   1.348   1.830  -4.470  0.0738 -0.3112 -1.2579
 5762TIP3   OH241480  -0.740   0.946  -4.842  0.5127 -0.0485 -0.3646
 5762TIP3    H141481  -0.694   1.029  -4.843 -0.5081  0.6773  2.6879
 5762TIP3    H241482  -0.811   0.957  -4.906  1.8851  0.4030 -1.8725
 5763TIP3   OH241483  -0.753   1.019  -5.499 -0.0368  0.2809 -0.0592
 5763TIP3    H141484  -0.834   1.019  -5.550  0.7543 -0.5836 -1.3600
 5763TIP3    H241485  -0.734   0.926  -5.484  2.0343  0.3237 -1.9912
 5764TIP3   OH241486  -2.804  -2.440  -5.638 -0.0434  0.7801 -0.0006
 5764TIP3    H141487  -2.825  -2.375  -5.706  2.0266 -0.9265 -2.4975
 5764TIP3    H241488  -2.879  -2.438  -5.579 -1.5308  3.1183 -1.7725
 5765TIP3   OH241489  -2.210  -2.895  -2.194  0.0739 -0.3091  0.0048
 5765TIP3    H141490  -2.231  -2.806  -2.166 -0.1973 -0.7750  1.3639
 5765TIP3    H241491  -2.281  -2.949  -2.158  0.8211 -1.2147  0.1626
 5766TIP3   OH241492   1.479   1.972  -5.232 -0.4828  0.1086 -0.2561
 5766TIP3    H141493   1.533   2.006  -5.303 -0.9374  1.6403  0.0931
 5766TIP3    H241494   1.420   1.909  -5.274 -0.5861  0.8173 -1.1959
 5767TIP3   OH241495  -2.457  -1.903  -3.528 -0.2980 -0.0674 -0.3864
 5767TIP3    H141496  -2.399  -1.828  -3.514 -1.9736  1.0343  1.1908
 5767TIP3    H241497  -2.492  -1.889  -3.616  1.0274 -0.2115 -0.9575
 5768TIP3   OH241498   1.431  -0.609  -3.400  0.0822  0.2572  0.1529
 5768TIP3    H141499   1.431  -0.520  -3.435 -0.4772  0.5790  0.9294
 5768TIP3    H241500   1.518  -0.644  -3.422  0.9472  1.5871  1.2557
 5769TIP3   OH241501  -2.965  -2.537  -3.139  0.3545  0.2024 -0.5631
 5769TIP3    H141502  -2.888  -2.594  -3.141  0.5499  0.4232  0.2765
 5769TIP3    H241503  -2.969  -2.506  -3.049 -1.2230 -0.4853 -0.3616
 5770TIP3   OH241504   0.787  -0.173  -5.213  0.1547  0.1634 -0.4189
 5770TIP3    H141505   0.765  -0.152  -5.122 -1.2948  1.9129 -1.1157
 5770TIP3    H241506   0.705  -0.207  -5.250  1.0883 -1.8580 -0.7653
 5771TIP3   OH241507   2.085  -2.930  -2.878  0.5120  0.0793  0.0131
 5771TIP3    H141508   2.062  -3.013  -2.921 -0.3318  0.3838 -0.1380
 5771TIP3    H241509   2.060  -2.944  -2.786  0.6362  0.0688  0.0457
 5772TIP3   OH241510   1.497   1.266  -2.788 -0.3574 -0.7292 -0.2191
 5772TIP3    H141511   1.490   1.254  -2.693 -0.8620 -0.3381 -0.1994
 5772TIP3    H241512   1.559   1.338  -2.799 -0.8331 -0.2983 -0.1491
 5773TIP3   OH241513   3.286   0.411  -4.508  0.1241 -0.1798 -0.0277
 5773TIP3    H141514   3.326   0.329  -4.480  1.2587  0.5127  0.4383
 5773TIP3    H241515   3.348   0.479  -4.480 -0.9932  0.8676 -0.0207
 5774TIP3   OH241516  -1.187  -0.324  -5.211 -0.0232  0.4453 -0.6332
 5774TIP3    H141517  -1.094  -0.327  -5.233 -0.0982  0.5608 -0.9661
 5774TIP3    H241518  -1.210  -0.231  -5.218  0.0013  0.5236  0.1541
 5775TIP3   OH241519   0.786  -1.419  -5.667 -0.0432 -0.0677 -0.1772
 5775TIP3    H141520   0.693  -1.435  -5.683  0.1045 -0.2693 -0.8354
 5775TIP3    H241521   0.831  -1.480  -5.725  0.5016 -1.0959  1.2623
 5776TIP3   OH241522   0.623  -0.154  -3.480 -0.0947 -0.4426 -0.1624
 5776TIP3    H141523   0.665  -0.074  -3.449 -1.2807 -0.2742  1.1057
 5776TIP3    H241524   0.540  -0.157  -3.433 -0.0127 -2.4994 -0.0755
 5777TIP3   OH241525   2.272   0.885  -2.887  0.3919 -0.2371 -0.6377
 5777TIP3    H141526   2.360   0.849  -2.897  0.2673 -1.3646  1.7013
 5777TIP3    H241527   2.278   0.947  -2.814 -0.5416  0.4573 -1.1200
 5778TIP3   OH241528  -1.293  -0.648  -4.541  0.0675 -0.3279 -0.0239
 5778TIP3    H141529  -1.221  -0.646  -4.477 -1.2025 -0.7381  1.4851
 5778TIP3    H241530  -1.333  -0.561  -4.535 -1.3967 -1.0377  1.4142
 5779TIP3   OH241531   0.246   1.204  -2.529 -0.1903  0.0833 -0.7535
 5779TIP3    H141532   0.305   1.151  -2.582 -0.7681 -1.9445  0.5370
 5779TIP3    H241533   0.295   1.285  -2.513  1.7087 -0.9898 -0.8281
 5780TIP3   OH241534  -2.258   2.706  -5.083  0.0663  0.0154  0.2177
 5780TIP3    H141535  -2.213   2.672  -5.159 -0.1066 -0.7818  0.4641
 5780TIP3    H241536  -2.249   2.638  -5.016  0.3055  0.7400  0.9457
 5781TIP3   OH241537  -2.259   1.632  -5.778  0.0218  0.8316 -0.1056
 5781TIP3    H141538  -2.194   1.596  -5.718 -2.0522 -0.2107  1.6535
 5781TIP3    H241539  -2.227   1.609  -5.865 -0.2241 -3.9411  0.7830
 5782TIP3   OH241540  -0.241  -1.708  -4.254 -0.0050  0.0372  0.6226
 5782TIP3    H141541  -0.297  -1.760  -4.311  0.5127  0.6047 -0.4154
 5782TIP3    H241542  -0.303  -1.659  -4.199 -0.5374  0.2976 -0.1827
 5783TIP3   OH241543  -3.257   1.840  -3.714 -0.0660 -0.2335 -0.2362
 5783TIP3    H141544  -3.295   1.902  -3.652 -1.3949  0.0940 -1.3349
 5783TIP3    H241545  -3.315   1.763  -3.710  2.1897 -1.9960  1.9757
 5784TIP3   OH241546  -0.656  -0.333  -2.452  0.3677 -0.0350 -0.6721
 5784TIP3    H141547  -0.586  -0.398  -2.457  0.2864 -0.1649 -0.0861
 5784TIP3    H241548  -0.708  -0.349  -2.531 -2.0749 -3.4338  1.4102
 5785TIP3   OH241549   3.352  -1.246  -5.116  0.2182  0.0688  0.0776
 5785TIP3    H141550   3.364  -1.337  -5.086 -0.8023 -0.4996 -1.1599
 5785TIP3    H241551   3.262  -1.224  -5.091  0.6326  0.9595  0.8573
 5786TIP3   OH241552  -3.148   3.213  -5.125  0.0914  0.7304  0.7184
 5786TIP3    H141553  -3.123   3.221  -5.217  0.8827  0.1182  0.8751
 5786TIP3    H241554  -3.243   3.227  -5.125  0.1052  0.8796 -0.1652
 5787TIP3   OH241555   2.019   0.862  -4.557 -0.1178  0.0804  0.0316
 5787TIP3    H141556   2.020   0.884  -4.650  0.7921 -0.8013 -0.1764
 5787TIP3    H241557   2.082   0.922  -4.518 -1.0724  0.9857  0.2216
 5788TIP3   OH241558  -1.486   2.703  -3.581  0.2141  0.3660 -0.0571
 5788TIP3    H141559  -1.570   2.696  -3.536 -1.0830  0.4611 -2.3566
 5788TIP3    H241560  -1.436   2.766  -3.529 -0.1930 -1.3874  2.6587
 5789TIP3   OH241561  -2.723   0.808  -4.087  0.1224 -0.2431  0.4586
 5789TIP3    H141562  -2.750   0.749  -4.158 -0.8867  1.3327 -0.5318
 5789TIP3    H241563  -2.641   0.846  -4.117  0.7676 -1.1019  1.0930
 5790TIP3   OH241564  -2.798  -1.089  -4.576  0.1357 -0.0431 -0.4582
 5790TIP3    H141565  -2.774  -0.998  -4.592  0.7646 -0.4418 -1.9708
 5790TIP3    H241566  -2.783  -1.133  -4.660  0.4592 -1.6681  0.4019
 5791TIP3   OH241567  -2.139   0.016  -4.293 -0.1144 -0.5198  0.4702
 5791TIP3    H141568  -2.134  -0.079  -4.281 -0.5839 -0.6774 -0.4474
 5791TIP3    H241569  -2.149   0.051  -4.205  0.6920 -1.2722  0.8768
 5792TIP3   OH241570  -0.897  -1.265  -4.182 -0.1070 -0.2000  0.1243
 5792TIP3    H141571  -0.954  -1.309  -4.119 -0.8472 -0.3305 -0.6167
 5792TIP3    H241572  -0.893  -1.174  -4.151 -0.4456 -0.2659  0.3662
 5793TIP3   OH241573   2.297   3.139  -3.005 -0.5075 -0.5268 -0.0364
 5793TIP3    H141574   2.203   3.150  -3.015 -0.3757  0.4609 -0.3370
 5793TIP3    H241575   2.329   3.121  -3.093 -0.6961 -3.5150  0.4187
 5794TIP3   OH241576  -1.061   0.593  -3.211  0.2116 -0.3187  0.2162
 5794TIP3    H141577  -0.970   0.617  -3.226  0.3515 -1.6145 -1.2320
 5794TIP3    H241578  -1.057   0.526  -3.142  0.2316  0.4700  0.9924
 5795TIP3   OH241579  -2.261  -0.361  -2.968 -0.3948 -0.4511  0.0003
 5795TIP3    H141580  -2.215  -0.299  -3.024 -0.9577 -0.9983 -1.0943
 5795TIP3    H241581  -2.304  -0.306  -2.903  0.3001  0.1939 -0.0660
 5796TIP3   OH241582   2.236   1.487  -2.892  0.6914 -0.0676  0.5304
 5796TIP3    H141583   2.188   1.530  -2.821 -0.1831 -2.0235  1.1844
 5796TIP3    H241584   2.276   1.410  -2.851  2.4916  0.2491 -0.5195
 5797TIP3   OH241585   2.796   2.597  -2.938  0.2561  0.6615  0.1634
 5797TIP3    H141586   2.723   2.561  -2.989  1.0587 -1.6450  0.5093
 5797TIP3    H241587   2.858   2.524  -2.931  2.3532  2.3707  0.3626
 5798TIP3   OH241588   0.605  -2.997  -5.410 -0.4790  0.0050 -0.4271
 5798TIP3    H141589   0.640  -3.083  -5.387 -0.8985  0.2525  1.3289
 5798TIP3    H241590   0.542  -3.014  -5.479 -2.0543 -1.4349  1.2456
 5799TIP3   OH241591   0.551   3.119  -4.676  0.2157  0.1122 -0.0762
 5799TIP3    H141592   0.473   3.063  -4.676 -0.0649  0.5026  0.2680
 5799TIP3    H241593   0.519   3.205  -4.650  0.4523  0.7029 -1.5852
 5800TIP3   OH241594  -2.796   2.384  -3.382  0.0964  0.4310 -0.1511
 5800TIP3    H141595  -2.704   2.407  -3.395  0.4644 -1.5650 -1.5310
 5800TIP3    H241596  -2.793   2.298  -3.339 -1.0416 -0.7350 -2.2212
 5801TIP3   OH241597  -0.720  -2.306  -3.532  0.0106 -0.7756  0.1468
 5801TIP3    H141598  -0.697  -2.366  -3.461 -1.9977 -0.0407  1.5016
 5801TIP3    H241599  -0.807  -2.333  -3.559 -1.5943  2.2664  1.7545
 5802TIP3   OH241600   2.053  -3.243  -4.300  0.4443  0.1345  0.1051
 5802TIP3    H141601   2.078  -3.154  -4.276  2.9873 -0.7130  0.9005
 5802TIP3    H241602   2.076  -3.297  -4.224  0.6840 -1.4313 -1.0143
 5803TIP3   OH241603  -2.015   0.838  -3.656 -0.2895  0.1465  0.3742
 5803TIP3    H141604  -1.928   0.877  -3.650 -0.0805 -0.1476 -0.6101
 5803TIP3    H241605  -1.999   0.745  -3.669 -0.6869  0.3344 -1.8054
 5804TIP3   OH241606  -1.059   0.230  -4.988  0.2986 -0.1649  0.6361
 5804TIP3    H141607  -1.128   0.230  -5.054  1.6505  0.7207 -0.8456
 5804TIP3    H241608  -1.079   0.304  -4.932 -2.1227 -2.2153  2.7103
 5805TIP3   OH241609   1.752  -1.291  -5.110  0.0578 -0.0782  0.1770
 5805TIP3    H141610   1.734  -1.373  -5.157  3.5558 -0.1800 -1.2518
 5805TIP3    H241611   1.828  -1.311  -5.056 -0.7052  1.5355  1.9659
 5806TIP3   OH241612   2.173   2.515  -5.165  0.5179 -0.3138  0.6660
 5806TIP3    H141613   2.233   2.447  -5.196 -0.7350 -1.5335  0.8491
 5806TIP3    H241614   2.095   2.506  -5.220  0.0697  0.5469  1.1387
 5807TIP3   OH241615  -2.776  -1.758  -5.020  0.1246 -0.0699 -0.2720
 5807TIP3    H141616  -2.836  -1.814  -5.069  0.1468  0.6442 -1.1199
 5807TIP3    H241617  -2.751  -1.812  -4.944 -1.4312 -0.4496  0.0164
 5808TIP3   OH241618   1.863   2.320  -4.397 -0.6473 -0.1265 -0.9907
 5808TIP3    H141619   1.791   2.354  -4.450 -0.4423  0.7579 -0.7117
 5808TIP3    H241620   1.859   2.370  -4.316  1.5898  1.5016 -1.7909
 5809TIP3   OH241621   1.167   0.038  -3.887 -0.6798 -0.1502  0.4056
 5809TIP3    H141622   1.153  -0.033  -3.824 -1.0158 -0.5371 -0.0988
 5809TIP3    H241623   1.176  -0.006  -3.971  0.8833  0.2789  0.3205
 5810TIP3   OH241624  -1.934   3.174  -5.627  0.7337 -0.0490  0.3869
 5810TIP3    H141625  -1.914   3.087  -5.591  2.6224  0.7741  1.4914
 5810TIP3    H241626  -1.852   3.222  -5.619 -0.1066  1.6680 -0.7805
 5811TIP3   OH241627  -2.982  -3.179  -4.747 -0.2182  0.5007 -0.7698
 5811TIP3    H141628  -2.958  -3.102  -4.798 -1.7277  0.4090 -1.6439
 5811TIP3    H241629  -3.040  -3.146  -4.679 -0.3090  0.2234 -0.7120
 5812TIP3   OH241630  -3.240   2.581  -4.171  0.1213  0.6259  0.1264
 5812TIP3    H141631  -3.180   2.655  -4.161  0.4008  0.2387  1.7664
 5812TIP3    H241632  -3.263   2.557  -4.081 -0.6263 -0.7400 -0.3942
 5813TIP3   OH241633   2.727  -0.065  -4.181 -0.6322  1.1017  0.1445
 5813TIP3    H141634   2.737  -0.137  -4.118 -0.0176  2.0178  1.1087
 5813TIP3    H241635   2.816  -0.039  -4.202 -0.8302  0.7932 -1.1528
 5814TIP3   OH241636   0.878  -2.129  -3.822  0.7343  0.0391  0.3649
 5814TIP3    H141637   0.872  -2.034  -3.813 -1.6003  0.1173 -1.3118
 5814TIP3    H241638   0.825  -2.163  -3.750 -1.1385  0.1586 -0.8835
 5815TIP3   OH241639   0.964   1.364  -4.936  0.9282 -0.0502 -0.6200
 5815TIP3    H141640   0.977   1.314  -5.017 -0.1954  0.8650 -1.4168
 5815TIP3    H241641   0.874   1.398  -4.944  0.9246  0.3319  0.8631
 5816TIP3   OH241642   3.030   0.435  -5.285  0.0952  0.2166  0.0463
 5816TIP3    H141643   2.942   0.400  -5.270  0.3993 -1.3223 -1.4310
 5816TIP3    H241644   3.017   0.505  -5.350 -0.0396 -0.0889 -0.2618
 5817TIP3   OH241645  -3.294  -1.526  -4.326 -0.2745  0.4873 -0.3248
 5817TIP3    H141646  -3.247  -1.455  -4.369  1.1590 -1.0428 -1.3952
 5817TIP3    H241647  -3.227  -1.570  -4.273 -1.4644  0.8017  1.5694
 5818TIP3   OH241648  -0.845   2.636  -3.487  0.2872  0.4999  0.6367
 5818TIP3    H141649  -0.840   2.561  -3.546 -1.1527 -0.6984  1.9462
 5818TIP3    H241650  -0.753   2.658  -3.469  0.7984 -1.6809  1.0438
 5819TIP3   OH241651  -3.183  -1.457  -5.947  0.3423 -0.6410  0.0802
 5819TIP3    H141652  -3.090  -1.448  -5.968  0.3993 -0.2623  0.4790
 5819TIP3    H241653  -3.194  -1.550  -5.928  0.6022 -0.7212 -0.1473
 5820TIP3   OH241654   2.025   1.941  -2.270 -0.4084 -0.1964 -0.4634
 5820TIP3    H141655   2.090   1.901  -2.328  0.7076  0.7252  0.1151
 5820TIP3    H241656   1.962   1.982  -2.329  0.3682  0.1966 -1.0248
 5821TIP3   OH241657   3.318  -2.844  -5.053  0.2943 -0.1964  0.0892
 5821TIP3    H141658   3.412  -2.863  -5.044  0.1873 -1.0221 -0.4760
 5821TIP3    H241659   3.284  -2.916  -5.106 -0.5157  0.5233 -0.3793
 5822TIP3   OH241660   1.257  -1.018  -4.846  0.4591 -0.0476  0.2654
 5822TIP3    H141661   1.281  -1.071  -4.770 -1.6299 -0.6509  0.5714
 5822TIP3    H241662   1.173  -0.979  -4.823  0.4375  0.8758 -1.2128
 5823TIP3   OH241663  -0.116  -1.094  -5.313 -0.0199  0.0488 -0.3374
 5823TIP3    H141664  -0.129  -1.043  -5.234  0.3141 -0.7390  0.2378
 5823TIP3    H241665  -0.172  -1.052  -5.379  0.1886  1.0919  0.1380
 5824TIP3   OH241666   2.835  -3.219  -4.709 -0.2422 -0.7574 -0.1798
 5824TIP3    H141667   2.805  -3.278  -4.640 -1.3836 -1.3748 -1.1620
 5824TIP3    H241668   2.915  -3.180  -4.674  1.2210 -3.7384  0.1016
 5825TIP3   OH241669  -1.631   3.067  -3.625  0.6788  0.8380 -0.4017
 5825TIP3    H141670  -1.548   3.115  -3.619  0.5942  1.1570 -1.5574
 5825TIP3    H241671  -1.664   3.087  -3.712 -0.1538 -0.0513 -0.3080
 5826TIP3   OH241672  -0.237  -2.470  -4.516 -0.2407  0.6216 -0.6511
 5826TIP3    H141673  -0.192  -2.513  -4.588 -0.6984  0.7618 -1.0254
 5826TIP3    H241674  -0.310  -2.528  -4.494 -1.5582  1.7228 -1.9272
 5827TIP3   OH241675   2.038   2.493  -3.255  0.8054 -0.4196  0.2078
 5827TIP3    H141676   2.045   2.451  -3.169 -2.3486  0.6966  1.1583
 5827TIP3    H241677   2.004   2.424  -3.313 -1.0056 -0.1910  0.9242
 5828TIP3   OH241678  -3.004  -1.113  -4.326  0.4557 -0.9717  0.1718
 5828TIP3    H141679  -2.945  -1.112  -4.401  0.7897 -0.5362  0.4351
 5828TIP3    H241680  -2.946  -1.111  -4.249  0.1014  0.7526  0.4375
 5829TIP3   OH241681  -1.191  -1.382  -5.640 -0.9329  0.5764 -0.0189
 5829TIP3    H141682  -1.251  -1.424  -5.702 -0.0286 -1.4059  0.4036
 5829TIP3    H241683  -1.247  -1.323  -5.590 -2.0438  0.7128 -1.3599
 5830TIP3   OH241684   2.056   1.175  -4.497 -0.2235  0.3059  0.1856
 5830TIP3    H141685   2.060   1.203  -4.588 -0.1417  0.8368  0.3477
 5830TIP3    H241686   2.003   1.242  -4.454 -0.1011  0.1614  0.5639
 5831TIP3   OH241687   0.876   2.498  -2.513 -0.1080 -0.5475 -0.0974
 5831TIP3    H141688   0.965   2.498  -2.478 -0.3612  0.1517  0.5595
 5831TIP3    H241689   0.887   2.511  -2.607  0.4555  0.5778  0.1048
 5832TIP3   OH241690  -1.773  -2.294  -2.937 -0.1066  0.0972 -0.2128
 5832TIP3    H141691  -1.737  -2.228  -2.878  1.0757 -1.4208  0.8627
 5832TIP3    H241692  -1.750  -2.377  -2.896 -1.6068 -0.9959 -1.4754
 5833TIP3   OH241693   1.737  -2.557  -5.717  0.0349 -0.1865  0.4438
 5833TIP3    H141694   1.730  -2.480  -5.661  0.6902 -0.4540  0.9106
 5833TIP3    H241695   1.801  -2.613  -5.673  0.8483 -0.2413 -0.7692
 5834TIP3   OH241696  -3.141   1.365  -4.842  0.0890  0.0507 -0.7331
 5834TIP3    H141697  -3.072   1.431  -4.840  0.8967 -0.7915  0.3502
 5834TIP3    H241698  -3.155   1.342  -4.751 -1.1168 -0.3472 -0.9945
 5835TIP3   OH241699  -0.057  -2.938  -3.923  0.5136  0.1937  0.2143
 5835TIP3    H141700   0.000  -2.888  -3.981  0.8734  0.4688  0.7936
 5835TIP3    H241701  -0.136  -2.885  -3.915  0.4803  0.1754  0.0087
 5836TIP3   OH241702   2.605  -2.290  -3.722 -0.6362  0.1664 -0.1960
 5836TIP3    H141703   2.676  -2.226  -3.713  0.3109 -1.0271  1.5690
 5836TIP3    H241704   2.526  -2.237  -3.734  0.1681  1.6619  0.8028
 5837TIP3   OH241705   1.160   2.484  -5.371 -0.2213  0.1257 -0.2192
 5837TIP3    H141706   1.065   2.488  -5.382 -0.2379 -0.4546 -0.3521
 5837TIP3    H241707   1.173   2.472  -5.277 -0.4367 -2.8067 -0.4508
 5838TIP3   OH241708  -3.174  -2.378  -5.136  0.0230 -0.0492  0.0095
 5838TIP3    H141709  -3.129  -2.444  -5.188  0.3640 -0.3863  0.7267
 5838TIP3    H241710  -3.267  -2.390  -5.157 -0.0219 -1.4674  0.9316
 5839TIP3   OH241711  -3.128   1.908  -4.570 -0.0182  0.4207 -0.0787
 5839TIP3    H141712  -3.159   1.988  -4.612 -1.9949  0.7570  1.7914
 5839TIP3    H241713  -3.176   1.905  -4.487  0.6793 -2.2338  0.3292
 5840TIP3   OH241714   2.211   1.231  -5.539 -0.2021 -0.3400 -0.3268
 5840TIP3    H141715   2.296   1.265  -5.511 -0.1600 -1.8132  1.5414
 5840TIP3    H241716   2.153   1.246  -5.464 -1.1293 -1.0169 -0.8822
 5841TIP3   OH241717   2.506   0.490  -5.666  0.7267 -0.2142 -0.1151
 5841TIP3    H141718   2.538   0.404  -5.694  1.8386 -0.1074  0.7584
 5841TIP3    H241719   2.472   0.530  -5.746  0.7601 -1.2200 -0.6541
 5842TIP3   OH241720   0.212  -2.440  -5.799 -0.3103  0.1915  0.2553
 5842TIP3    H141721   0.286  -2.480  -5.754  0.2429 -0.3928 -1.1145
 5842TIP3    H241722   0.146  -2.427  -5.730  0.8251  0.1840  1.3836
 5843TIP3   OH241723  -2.758  -2.253  -5.273  0.5532 -0.2704 -0.0867
 5843TIP3    H141724  -2.688  -2.222  -5.330  0.6955 -1.1221 -0.3792
 5843TIP3    H241725  -2.837  -2.247  -5.327  0.2190  1.5018  0.5064
 5844TIP3   OH241726   1.172   0.592  -5.649  0.3437  1.1422 -0.0718
 5844TIP3    H141727   1.195   0.685  -5.644 -0.5036  1.4500 -1.4089
 5844TIP3    H241728   1.235   0.555  -5.710  1.7251  0.4444  1.6855
 5845TIP3   OH241729   1.258   0.526  -4.027  0.3750  0.1157 -0.4780
 5845TIP3    H141730   1.192   0.471  -3.986 -0.2757 -0.0004 -1.6549
 5845TIP3    H241731   1.321   0.464  -4.065  0.5954  0.2131 -0.2772
 5846TIP3   OH241732   2.723  -3.037  -4.386  0.1571 -0.0992 -0.0488
 5846TIP3    H141733   2.661  -3.006  -4.321 -0.1476 -1.0103  0.0996
 5846TIP3    H241734   2.795  -3.075  -4.335 -0.1215 -0.8923 -0.2411
 5847TIP3   OH241735  -2.808   1.203  -4.932  0.4811  0.0254 -0.3463
 5847TIP3    H141736  -2.777   1.247  -5.011  0.2657  2.7500  0.9671
 5847TIP3    H241737  -2.896   1.173  -4.954  1.0108 -0.6469 -1.6022
 5848TIP3   OH241738  -0.935   3.033  -4.422  0.1196  0.2771 -0.5768
 5848TIP3    H141739  -0.872   3.020  -4.350 -1.6780 -0.8412  0.8734
 5848TIP3    H241740  -0.979   3.115  -4.401 -0.3236  0.0121 -0.4541
 5849TIP3   OH241741  -1.222  -1.866  -3.685  0.1349 -0.2498  0.4793
 5849TIP3    H141742  -1.184  -1.941  -3.641  0.0348 -0.4448  0.2344
 5849TIP3    H241743  -1.148  -1.822  -3.727  0.4853  0.8352  2.1312
 5850TIP3   OH241744   1.439   3.144  -2.582  0.1044 -0.2987 -0.2681
 5850TIP3    H141745   1.510   3.139  -2.646  1.5413  0.2938  1.2108
 5850TIP3    H241746   1.410   3.054  -2.572  1.0645 -0.6466 -0.4670
 5851TIP3   OH241747   3.182   0.041  -5.525 -0.3267 -0.4028  0.1152
 5851TIP3    H141748   3.221  -0.019  -5.588  1.1065 -0.7506  1.2599
 5851TIP3    H241749   3.206   0.005  -5.440 -0.6910  0.9914  0.8437
 5852TIP3   OH241750  -0.564   1.226  -5.104 -0.4127  0.2968 -0.0096
 5852TIP3    H141751  -0.499   1.293  -5.082 -0.9782  0.5105  1.1170
 5852TIP3    H241752  -0.537   1.193  -5.189 -0.5463  2.4970 -0.9835
 5853TIP3   OH241753   3.188   1.925  -5.752 -0.2400  0.4901 -0.5621
 5853TIP3    H141754   3.236   1.879  -5.821 -2.0342  0.0159 -1.5514
 5853TIP3    H241755   3.255   1.976  -5.706  1.2979 -0.6504 -1.4426
 5854TIP3   OH241756   2.873  -2.495  -3.787 -1.2288  0.3147 -0.5769
 5854TIP3    H141757   2.935  -2.422  -3.782 -0.3224 -0.4881  0.3406
 5854TIP3    H241758   2.789  -2.453  -3.803 -0.5736  1.4812 -1.1664
 5855TIP3   OH241759  -0.199   2.788  -2.654 -0.2783 -0.5242 -0.0091
 5855TIP3    H141760  -0.172   2.723  -2.719  0.1562  2.1284 -2.7006
 5855TIP3    H241761  -0.272   2.747  -2.607  0.3535 -3.1188 -1.1432
 5856TIP3   OH241762   1.564   2.862  -5.146 -0.5140 -0.4122  0.5076
 5856TIP3    H141763   1.637   2.852  -5.208 -1.2075 -0.1837 -0.3647
 5856TIP3    H241764   1.546   2.956  -5.145  0.3303 -0.2417  2.0638
 5857TIP3   OH241765   2.431  -0.458  -3.147 -0.3098 -0.5594 -0.3081
 5857TIP3    H141766   2.424  -0.503  -3.231  0.7627  0.0845 -0.7678
 5857TIP3    H241767   2.526  -0.446  -3.134 -0.4660 -0.5950  0.9616
 5858TIP3   OH241768  -1.682   2.884  -5.127 -0.1418 -0.2021 -0.1930
 5858TIP3    H141769  -1.706   2.874  -5.036  0.7539 -0.7941 -0.0053
 5858TIP3    H241770  -1.586   2.874  -5.128  0.0218  1.1222 -1.0069
 5859TIP3   OH241771   1.950   2.269  -5.615 -0.0627  0.1558  0.5333
 5859TIP3    H141772   2.013   2.277  -5.686  0.4934 -1.4141  0.7984
 5859TIP3    H241773   1.909   2.355  -5.609  2.2332  1.3302  0.5292
 5860TIP3   OH241774  -1.280  -0.613  -5.512 -0.1352 -0.4057  0.1360
 5860TIP3    H141775  -1.281  -0.529  -5.559 -2.0026 -0.9477 -0.9325
 5860TIP3    H241776  -1.233  -0.672  -5.571  1.6418 -0.0388  1.1227
 5861TIP3   OH241777   0.928   1.666  -3.337  0.6463  0.3447  0.6353
 5861TIP3    H141778   0.865   1.700  -3.274  0.9878  1.8100  0.2170
 5861TIP3    H241779   1.014   1.681  -3.297  0.7716 -1.3178  1.0479
 5862TIP3   OH241780   0.564  -0.147  -4.698  0.1207 -0.1838  0.3812
 5862TIP3    H141781   0.582  -0.122  -4.789  1.1147 -0.9582  0.3473
 5862TIP3    H241782   0.564  -0.064  -4.650 -1.4552  0.3463 -0.4676
 5863TIP3   OH241783   1.144   1.298  -4.748 -0.3269 -0.3260  0.2145
 5863TIP3    H141784   1.104   1.295  -4.661 -0.0865 -1.6457  0.3043
 5863TIP3    H241785   1.071   1.314  -4.808 -0.7191 -0.8743  0.5423
 5864TIP3   OH241786  -0.013  -2.649  -4.939  0.0210 -0.0238  0.0139
 5864TIP3    H141787   0.014  -2.735  -4.905  0.1395  0.6778  1.8433
 5864TIP3    H241788  -0.032  -2.664  -5.031  0.1053 -2.0027  0.2772
 5865TIP3   OH241789  -2.634  -2.459  -3.349  0.6409 -0.1269  0.3860
 5865TIP3    H141790  -2.544  -2.466  -3.317  0.1580 -0.5852  1.6968
 5865TIP3    H241791  -2.648  -2.541  -3.397  0.2719 -1.0089  1.9435
 5866TIP3   OH241792   0.757   1.087  -5.102 -0.6313 -0.3414  0.4786
 5866TIP3    H141793   0.847   1.118  -5.096 -1.1644  1.7155 -1.2320
 5866TIP3    H241794   0.760   0.999  -5.064  2.1588 -0.4853  0.1312
 5867TIP3   OH241795  -0.912   1.011  -3.617 -0.3041 -0.0659 -0.1160
 5867TIP3    H141796  -0.828   1.018  -3.571  0.1026  1.4441 -1.0100
 5867TIP3    H241797  -0.975   0.990  -3.548  0.8067 -1.3669  0.5578
 5868TIP3   OH241798   1.855  -1.220  -4.216 -0.0935  0.0375 -0.5451
 5868TIP3    H141799   1.822  -1.226  -4.126  1.8538  1.8007  0.3747
 5868TIP3    H241800   1.791  -1.164  -4.261 -0.4065  0.2165  0.1127
 5869TIP3   OH241801  -3.023  -1.264  -2.877  0.7585  0.8173 -0.3198
 5869TIP3    H141802  -2.981  -1.180  -2.894 -0.6718  1.5613 -0.2534
 5869TIP3    H241803  -3.075  -1.281  -2.956 -0.6812  1.0824  0.5410
 5870TIP3   OH241804   0.945   2.374  -4.274  0.1657  0.2307 -0.0455
 5870TIP3    H141805   0.925   2.353  -4.365 -0.1129 -0.7891  0.2346
 5870TIP3    H241806   0.994   2.456  -4.278 -0.7985  0.7829 -1.0268
 5871TIP3   OH241807  -0.617  -1.545  -2.938 -0.4226 -0.1365 -0.2030
 5871TIP3    H141808  -0.653  -1.458  -2.922  2.0388  0.9251  0.0357
 5871TIP3    H241809  -0.665  -1.602  -2.878 -3.0516  0.7332 -1.3137
 5872TIP3   OH241810  -3.249   1.591  -2.099 -0.2923 -0.4039 -0.4914
 5872TIP3    H141811  -3.281   1.673  -2.063  0.1280 -0.4487 -0.0086
 5872TIP3    H241812  -3.197   1.617  -2.175  1.0507 -0.0986  0.4983
 5873TIP3   OH241813  -2.474  -0.173  -5.547 -0.0836  0.3657  0.4134
 5873TIP3    H141814  -2.491  -0.081  -5.567  1.6811  1.0432  1.7376
 5873TIP3    H241815  -2.425  -0.172  -5.465  3.0425 -1.4550 -1.2018
 5874TIP3   OH241816   1.783  -1.697  -5.744 -0.4980  1.0183  0.0137
 5874TIP3    H141817   1.832  -1.702  -5.662 -0.7413 -1.9347  0.0967
 5874TIP3    H241818   1.849  -1.685  -5.812  0.2767 -1.2398  0.2816
 5875TIP3   OH241819   0.101  -2.441  -5.177 -0.1318 -0.4786  0.6037
 5875TIP3    H141820   0.080  -2.532  -5.197  0.4075 -0.5019  0.1042
 5875TIP3    H241821   0.131  -2.443  -5.086  2.8716 -1.3500 -0.2921
 5876TIP3   OH241822  -2.704   3.035  -3.847 -0.0829 -0.3634  0.0678
 5876TIP3    H141823  -2.714   2.942  -3.868 -2.1518  0.2430 -2.1866
 5876TIP3    H241824  -2.616   3.057  -3.875 -0.4746 -1.1292 -1.9526
 5877TIP3   OH241825  -0.792  -2.884  -4.548 -0.0173 -0.1845 -0.2433
 5877TIP3    H141826  -0.787  -2.841  -4.463 -0.4917 -0.0331 -0.2883
 5877TIP3    H241827  -0.773  -2.814  -4.611  0.1471 -0.2552 -0.2750
 5878TIP3   OH241828  -3.172  -0.876  -2.099  0.2215 -0.8147 -0.8113
 5878TIP3    H141829  -3.187  -0.951  -2.157 -1.7877 -0.1520 -1.2071
 5878TIP3    H241830  -3.242  -0.814  -2.121  0.7076  0.3707  0.8313
 5879TIP3   OH241831   0.042   2.639  -4.094 -0.0889  0.1859  0.1036
 5879TIP3    H141832  -0.034   2.681  -4.134  2.7698  3.8353 -2.1307
 5879TIP3    H241833   0.050   2.681  -4.008 -1.3691 -1.4189  1.0780
 5880TIP3   OH241834   1.876   2.712  -4.938 -0.5116  0.5126 -0.1157
 5880TIP3    H141835   1.861   2.779  -5.005 -2.0132  0.0237 -0.2875
 5880TIP3    H241836   1.898   2.762  -4.859  0.0786  1.1346 -0.6656
 5881TIP3   OH241837   3.310   0.334  -2.956 -0.1457 -0.1899  0.4459
 5881TIP3    H141838   3.315   0.398  -2.885 -0.8587 -0.7017  0.9738
 5881TIP3    H241839   3.401   0.319  -2.982  0.1588 -0.2478  1.4926
 5882TIP3   OH241840   2.401   0.973  -3.975  0.0023 -0.7204 -0.4778
 5882TIP3    H141841   2.490   0.950  -3.951  0.0170 -0.5360 -0.3619
 5882TIP3    H241842   2.348   0.948  -3.900  0.3942  2.6860  1.1245
 5883TIP3   OH241843  -2.069   2.700  -3.092 -0.4563  0.4579  0.0945
 5883TIP3    H141844  -2.034   2.614  -3.116 -0.9473  0.5396 -0.9759
 5883TIP3    H241845  -2.095   2.691  -3.001 -0.5554 -0.5588 -0.0248
 5884TIP3   OH241846  -0.564   1.314  -2.471  0.5048 -0.5579 -0.0204
 5884TIP3    H141847  -0.580   1.262  -2.393 -1.0339 -1.5567 -0.9512
 5884TIP3    H241848  -0.592   1.403  -2.447  2.0139 -0.3780  1.1912
 5885TIP3   OH241849  -0.143   0.206  -4.401 -0.0646 -0.4631  0.4460
 5885TIP3    H141850  -0.091   0.141  -4.353 -0.0081  0.3490  1.5129
 5885TIP3    H241851  -0.231   0.168  -4.404 -0.5710  0.3298  3.0018
 5886TIP3   OH241852   0.342   1.043  -4.862  0.2187  0.2303 -0.3581
 5886TIP3    H141853   0.392   0.995  -4.795  0.2703  1.1170  0.2509
 5886TIP3    H241854   0.372   1.133  -4.854  0.2451  0.3441 -1.6106
 5887TIP3   OH241855   3.211  -1.828  -4.044  0.2602  0.4374 -0.4856
 5887TIP3    H141856   3.253  -1.842  -4.129 -0.3154 -1.9944 -0.4534
 5887TIP3    H241857   3.241  -1.902  -3.991 -1.0594  0.7535  0.7424
 5888TIP3   OH241858  -0.817  -1.938  -5.784 -0.7359 -0.0575  0.1070
 5888TIP3    H141859  -0.742  -1.997  -5.781 -0.1630  0.6908  1.9269
 5888TIP3    H241860  -0.787  -1.863  -5.834 -0.1038  0.4063  1.1470
 5889TIP3   OH241861   3.350   2.609  -3.215  0.5335  0.4289  0.5366
 5889TIP3    H141862   3.392   2.547  -3.275  0.9450  0.4378  0.8131
 5889TIP3    H241863   3.335   2.558  -3.136 -0.6746  0.2055  0.1915
 5890TIP3   OH241864   1.762   3.312  -3.458 -0.1423  0.1586 -0.2046
 5890TIP3    H141865   1.698   3.277  -3.396 -1.3971 -0.3961 -1.7478
 5890TIP3    H241866   1.712   3.327  -3.538  2.0645 -2.6331 -2.3052
 5891TIP3   OH241867  -1.770   0.220  -4.931 -0.4083  0.0081  0.0912
 5891TIP3    H141868  -1.710   0.145  -4.924  1.0046  0.9803 -1.0982
 5891TIP3    H241869  -1.757   0.269  -4.849  2.4414  1.5906 -1.1750
 5892TIP3   OH241870   2.190   0.143  -2.980 -0.0015 -0.6833  0.5333
 5892TIP3    H141871   2.272   0.159  -2.934  0.5517  1.3110 -1.0132
 5892TIP3    H241872   2.216   0.093  -3.058 -0.4003 -0.8706  0.5189
 5893TIP3   OH241873  -2.498   0.073  -5.238  0.1298 -0.2091  0.3441
 5893TIP3    H141874  -2.570   0.014  -5.215 -0.3558  0.1435 -0.2583
 5893TIP3    H241875  -2.537   0.160  -5.237  0.9870  0.1844  1.8281
 5894TIP3   OH241876  -2.003   1.806  -3.424 -0.6749 -0.7300  0.4141
 5894TIP3    H141877  -1.977   1.755  -3.348  0.6984 -1.4886 -0.5270
 5894TIP3    H241878  -1.967   1.759  -3.499 -1.4987  0.2975 -0.6838
 5895TIP3   OH241879   3.142  -1.901  -3.722 -0.0814  0.4758  0.3547
 5895TIP3    H141880   3.095  -1.962  -3.664 -0.3957 -0.4678 -0.8428
 5895TIP3    H241881   3.196  -1.958  -3.777  2.7206  1.5236  1.8225
 5896TIP3   OH241882  -0.810   2.245  -2.217  0.4715  0.2565  0.0000
 5896TIP3    H141883  -0.880   2.294  -2.174  2.0048  1.9887  0.6414
 5896TIP3    H241884  -0.762   2.203  -2.146  2.2377  2.0713 -0.0346
 5897TIP3   OH241885  -2.158   1.995  -4.205 -0.0399 -0.5087 -0.3880
 5897TIP3    H141886  -2.253   1.997  -4.191  0.2930  0.1454  2.2479
 5897TIP3    H241887  -2.137   1.902  -4.211 -0.4872 -0.9232  2.7153
 5898TIP3   OH241888   0.968   0.871  -4.757 -0.2805 -0.4590  0.4184
 5898TIP3    H141889   0.981   0.776  -4.759  2.2030 -0.1900  0.4518
 5898TIP3    H241890   1.038   0.903  -4.700 -0.1236  1.5076 -0.7901
 5899TIP3   OH241891  -0.418   0.923  -5.131  0.6305 -0.3532 -0.4388
 5899TIP3    H141892  -0.445   0.994  -5.189  2.0085 -0.3787 -1.1659
 5899TIP3    H241893  -0.410   0.847  -5.189  1.1293 -0.6026 -0.0556
 5900TIP3   OH241894   0.869  -3.048  -2.833 -0.1254 -0.0182  0.1369
 5900TIP3    H141895   0.780  -3.033  -2.800 -0.1941 -0.9874  0.4210
 5900TIP3    H241896   0.887  -2.972  -2.889 -1.8870 -0.7573 -1.5416
 5901TIP3   OH241897  -1.874   1.851  -3.758 -0.1535  0.1146 -0.2624
 5901TIP3    H141898  -1.788   1.833  -3.797 -0.0743 -0.5703  0.1961
 5901TIP3    H241899  -1.925   1.773  -3.776 -0.8752  0.7585 -1.0328
 5902TIP3   OH241900   0.123  -0.700  -5.106 -0.3695 -0.1250  0.2502
 5902TIP3    H141901   0.175  -0.679  -5.183  0.6138 -1.7248  0.4430
 5902TIP3    H241902   0.037  -0.661  -5.124  0.1610  0.4598 -1.1538
 5903TIP3   OH241903   1.420   2.709  -3.535 -0.4443 -0.1803 -0.1589
 5903TIP3    H141904   1.514   2.705  -3.517 -0.4820  0.0240  0.0893
 5903TIP3    H241905   1.387   2.625  -3.503 -0.5555  0.2984  1.0395
 5904TIP3   OH241906   1.858  -2.989  -2.049 -0.5056  0.5976  0.1197
 5904TIP3    H141907   1.879  -3.004  -2.141  0.0566  3.5221 -0.3408
 5904TIP3    H241908   1.942  -2.994  -2.004 -0.6867 -0.1693  0.3859
 5905TIP3   OH241909   1.185  -0.141  -3.447 -0.1253  0.2755  0.7167
 5905TIP3    H141910   1.096  -0.141  -3.411  0.1124  0.7752  1.3197
 5905TIP3    H241911   1.183  -0.073  -3.515 -0.3802 -0.1797  0.2575
 5906TIP3   OH241912   3.034  -0.704  -5.483 -0.6243  0.4641  0.0443
 5906TIP3    H141913   3.057  -0.622  -5.527 -0.6764  0.3380 -0.2147
 5906TIP3    H241914   3.050  -0.686  -5.390  1.2605  0.1275 -0.1905
 5907TIP3   OH241915  -2.383  -2.427  -3.534  0.6093  0.3169 -0.1742
 5907TIP3    H141916  -2.448  -2.358  -3.545  0.1604 -0.0272  0.2950
 5907TIP3    H241917  -2.381  -2.444  -3.440  0.5783 -0.4381 -0.3006
 5908TIP3   OH241918   1.555  -0.713  -4.991 -0.0528 -0.3146  0.2278
 5908TIP3    H141919   1.649  -0.730  -4.982 -0.0479 -1.5478 -1.6342
 5908TIP3    H241920   1.521  -0.789  -5.038 -1.9672  0.1873  0.7111
 5909TIP3   OH241921  -3.286  -0.228  -5.457  0.1014  0.3514 -0.2996
 5909TIP3    H141922  -3.311  -0.193  -5.543  0.4615  0.7588 -0.2447
 5909TIP3    H241923  -3.190  -0.221  -5.456  0.0225  1.5288  0.6274
 5910TIP3   OH241924   3.216   1.215  -3.016 -0.0798 -0.2191  0.3808
 5910TIP3    H141925   3.299   1.262  -3.026  0.4622 -0.9585  1.2758
 5910TIP3    H241926   3.224   1.169  -2.933 -1.4277 -0.2459  0.5243
 5911TIP3   OH241927  -0.375   1.632  -3.509  0.2945 -0.0801  0.7246
 5911TIP3    H141928  -0.307   1.682  -3.465  1.2274  0.3245 -1.0708
 5911TIP3    H241929  -0.336   1.546  -3.523 -0.0136 -0.2226  0.7320
 5912TIP3   OH241930  -3.270   2.921  -4.875  0.5130 -0.1290  0.0518
 5912TIP3    H141931  -3.221   2.949  -4.951  1.3909  1.2248  1.0815
 5912TIP3    H241932  -3.264   2.825  -4.876  3.1651 -0.0155  0.1189
 5913TIP3   OH241933   1.132  -0.155  -5.881  0.8050 -0.4763 -0.1317
 5913TIP3    H141934   1.094  -0.071  -5.907 -0.2400 -0.8623  0.0767
 5913TIP3    H241935   1.058  -0.216  -5.882  1.3516 -1.1827  0.6757
 5914TIP3   OH241936   2.178  -2.264  -3.026 -0.5226  0.1781 -0.0471
 5914TIP3    H141937   2.214  -2.177  -3.039 -0.2872  0.3826  1.6754
 5914TIP3    H241938   2.133  -2.259  -2.941  0.7544 -1.7360  0.8369
 5915TIP3   OH241939  -1.460  -2.366  -2.813 -0.2123  0.0392  0.8969
 5915TIP3    H141940  -1.457  -2.378  -2.908 -2.7716 -0.7054  0.8486
 5915TIP3    H241941  -1.477  -2.453  -2.779  0.6349  0.3098  2.0774
 5916TIP3   OH241942  -1.293  -2.369  -4.310 -0.1127  0.3916  0.8002
 5916TIP3    H141943  -1.239  -2.301  -4.351  0.9128 -0.8267  0.0697
 5916TIP3    H241944  -1.311  -2.335  -4.222  0.2544  1.6670  0.4056
 5917TIP3   OH241945  -1.079   2.463  -3.381 -0.2253 -0.1225  0.0606
 5917TIP3    H141946  -1.120   2.454  -3.295  1.7245  0.9674  1.1734
 5917TIP3    H241947  -0.998   2.513  -3.364  0.4900 -0.3575 -2.3188
 5918TIP3   OH241948   2.491  -3.125  -4.657 -0.0224 -0.2147 -0.4040
 5918TIP3    H141949   2.512  -3.218  -4.651  1.5807  0.1676  0.6367
 5918TIP3    H241950   2.438  -3.107  -4.579 -0.7196 -0.3450 -0.8467
 5919TIP3   OH241951  -2.632   3.319  -4.236  0.2320 -0.4708 -0.2792
 5919TIP3    H141952  -2.726   3.339  -4.235  0.1193 -0.9888 -0.0376
 5919TIP3    H241953  -2.617   3.280  -4.322  0.3723  0.2702 -0.5964
 5920TIP3   OH241954  -2.550   1.826  -4.769  0.4805  0.2663 -0.1184
 5920TIP3    H141955  -2.575   1.861  -4.855  2.0300  1.4751 -0.1349
 5920TIP3    H241956  -2.464   1.866  -4.751  1.0064 -1.3433  1.2085
 5921TIP3   OH241957  -2.437   0.376  -5.485 -0.7855 -0.3027  0.4130
 5921TIP3    H141958  -2.387   0.457  -5.495 -0.5260 -0.5587 -0.4410
 5921TIP3    H241959  -2.488   0.390  -5.405 -1.5270  1.1279 -0.2562
 5922TIP3   OH241960  -1.222  -1.001  -4.631 -0.5354  0.4091 -0.1451
 5922TIP3    H141961  -1.300  -1.054  -4.612 -0.8247  0.7798 -0.2768
 5922TIP3    H241962  -1.257  -0.916  -4.657 -0.0747  0.6662  0.0653
 5923TIP3   OH241963  -1.648   1.427  -4.881 -0.1311 -0.4611 -0.4862
 5923TIP3    H141964  -1.643   1.398  -4.972  1.0119  2.3343 -1.4079
 5923TIP3    H241965  -1.737   1.463  -4.872 -0.2841 -0.8425 -0.4385
 5924TIP3   OH241966  -2.220   2.534  -4.875 -0.4258 -0.0445  0.3106
 5924TIP3    H141967  -2.187   2.576  -4.796 -1.1063  0.9797  0.0769
 5924TIP3    H241968  -2.198   2.441  -4.865  1.0956  0.3408  0.8636
 5925TIP3   OH241969  -1.500   0.702  -4.981  0.3786 -0.2681  0.7084
 5925TIP3    H141970  -1.573   0.731  -5.036  0.1769 -1.9705  0.0213
 5925TIP3    H241971  -1.538   0.690  -4.894  0.4627  1.3883  1.0144
 5926TIP3   OH241972  -2.598  -2.227  -2.561 -0.2738 -0.1733  0.4003
 5926TIP3    H141973  -2.507  -2.249  -2.580 -0.3496 -0.6587  0.5800
 5926TIP3    H241974  -2.614  -2.146  -2.609  0.1748 -0.2276  0.1570
 5927TIP3   OH241975  -2.103   3.258  -4.705 -0.4499  0.1361  0.3139
 5927TIP3    H141976  -2.035   3.249  -4.639  0.5406  0.8466 -0.5736
 5927TIP3    H241977  -2.144   3.172  -4.711  0.0961 -0.1835  1.1520
 5928TIP3   OH241978  -0.554   0.773  -4.255 -0.2345 -0.4551  0.1664
 5928TIP3    H141979  -0.638   0.776  -4.209 -1.5049 -0.5566 -2.0210
 5928TIP3    H241980  -0.567   0.711  -4.326  1.9864 -1.0900  0.2137
 5929TIP3   OH241981  -2.537  -0.719  -4.010 -0.5161  0.2776 -0.2750
 5929TIP3    H141982  -2.443  -0.721  -3.990 -0.4689  2.2391 -0.0938
 5929TIP3    H241983  -2.545  -0.654  -4.079 -1.6345 -0.7122 -1.1107
 5930TIP3   OH241984   1.162  -1.533  -4.491 -0.3029 -0.3126  0.5434
 5930TIP3    H141985   1.129  -1.605  -4.437  0.2694 -1.2651 -0.3380
 5930TIP3    H241986   1.174  -1.461  -4.430 -1.0622 -0.9036  1.4205
 5931TIP3   OH241987   0.562  -1.485  -4.967  0.4546 -0.4074  0.1148
 5931TIP3    H141988   0.544  -1.401  -4.924  0.7712 -0.4671  0.3742
 5931TIP3    H241989   0.583  -1.462  -5.057 -2.8509 -0.4832 -0.8155
 5932TIP3   OH241990   1.136   0.090  -3.571  0.2299  0.2419  0.3322
 5932TIP3    H141991   1.217   0.139  -3.558  0.7301 -0.4299 -0.1650
 5932TIP3    H241992   1.085   0.142  -3.633 -0.4645  1.5039  1.8999
 5933TIP3   OH241993  -0.614   1.992  -4.745 -0.2985  0.1265 -0.1619
 5933TIP3    H141994  -0.655   1.914  -4.706  0.5068  0.1742  0.8222
 5933TIP3    H241995  -0.688   2.046  -4.771 -0.8813 -1.2085 -1.3991
 5934TIP3   OH241996   0.788   2.549  -3.888 -0.0092 -0.2840 -0.0206
 5934TIP3    H141997   0.847   2.569  -3.816 -0.3077 -0.0359  0.1557
 5934TIP3    H241998   0.819   2.604  -3.961  0.8435 -1.1904 -0.3613
 5935TIP3   OH241999  -0.197  -2.613  -2.658 -0.5288 -0.5015  0.1240
 5935TIP3    H142000  -0.186  -2.519  -2.641 -0.7720 -0.2967 -0.7882
 5935TIP3    H242001  -0.282  -2.619  -2.702  0.0277 -0.9974 -0.9176
 5936TIP3   OH242002   1.773  -1.719  -3.006  0.7037  0.1082  0.0998
 5936TIP3    H142003   1.728  -1.704  -2.923 -0.2053 -0.4098 -0.2729
 5936TIP3    H242004   1.767  -1.635  -3.052 -1.0175 -0.2568 -0.4414
 5937TIP3   OH242005   3.089  -0.948  -4.129  0.3232  0.2731 -0.9789
 5937TIP3    H142006   3.045  -0.863  -4.135  0.2244  0.1735 -1.7583
 5937TIP3    H242007   3.167  -0.938  -4.183 -0.2233 -0.4589 -1.9121
 5938TIP3   OH242008  -2.283   1.440  -4.269 -0.1913 -0.4541 -0.1963
 5938TIP3    H142009  -2.342   1.400  -4.333 -1.3986  1.5502 -0.4205
 5938TIP3    H242010  -2.219   1.488  -4.323  2.5707 -3.5345 -0.0233
 5939TIP3   OH242011   2.216  -1.877  -3.594 -0.0211 -0.0133  0.0672
 5939TIP3    H142012   2.305  -1.851  -3.570 -0.4054  0.4844  0.9959
 5939TIP3    H242013   2.217  -1.879  -3.690  0.6452  1.2457  0.0200
 5940TIP3   OH242014   2.376  -0.458  -4.588  0.3919  0.4871 -0.7162
 5940TIP3    H142015   2.389  -0.496  -4.501 -1.7869 -1.6211 -1.1704
 5940TIP3    H242016   2.318  -0.383  -4.574  0.5211  0.5056 -0.2853
 5941TIP3   OH242017  -1.420   2.855  -4.880 -0.0845  0.0028  1.1218
 5941TIP3    H142018  -1.465   2.778  -4.915  1.4830 -0.0841 -0.9020
 5941TIP3    H242019  -1.330   2.826  -4.866  0.6841  1.5788 -0.2378
 5942TIP3   OH242020  -2.168   0.383  -3.459  0.0187 -0.0122 -0.4211
 5942TIP3    H142021  -2.256   0.415  -3.475 -0.3701 -0.9086 -0.1297
 5942TIP3    H242022  -2.128   0.449  -3.402 -0.3607  0.5306 -0.7737
 5943TIP3   OH242023   0.131   2.390  -2.755  0.2414  0.3755  0.9028
 5943TIP3    H142024   0.197   2.343  -2.704  1.0835 -0.3172 -0.7172
 5943TIP3    H242025   0.055   2.332  -2.755  0.8631 -0.4865 -0.0776
 5944TIP3   OH242026  -2.136  -2.569  -2.313  0.0124  0.4579 -0.2937
 5944TIP3    H142027  -2.190  -2.595  -2.238  1.1303 -0.8042  0.1200
 5944TIP3    H242028  -2.049  -2.557  -2.276  0.6330 -0.4246 -1.4071
 5945TIP3   OH242029   2.524  -0.146  -3.240 -0.0110 -0.2662  0.1280
 5945TIP3    H142030   2.530  -0.241  -3.253  0.7322 -0.3688  1.1038
 5945TIP3    H242031   2.593  -0.110  -3.294  0.1217 -0.3370  0.2484
 5946TIP3   OH242032  -3.252  -2.424  -3.185  0.1544 -0.3768  0.0272
 5946TIP3    H142033  -3.165  -2.386  -3.195  0.0036 -0.1478 -0.4905
 5946TIP3    H242034  -3.250  -2.504  -3.237  0.1620 -0.5532  0.2969
 5947TIP3   OH242035  -1.583  -0.832  -5.539  0.2983  0.5038  0.7930
 5947TIP3    H142036  -1.507  -0.783  -5.509  1.3725 -0.2827 -0.5247
 5947TIP3    H242037  -1.623  -0.776  -5.606  1.3581 -0.2247 -0.5035
 5948TIP3   OH242038  -1.392  -1.804  -4.237  0.3599  0.2307  0.4392
 5948TIP3    H142039  -1.344  -1.784  -4.157  0.1960  0.6750  0.4319
 5948TIP3    H242040  -1.481  -1.773  -4.220  0.5909  1.3595 -0.3159
 5949TIP3   OH242041  -0.100   0.218  -5.506 -0.7183  0.4440  0.3864
 5949TIP3    H142042  -0.109   0.123  -5.508  1.4996  0.1546  1.0027
 5949TIP3    H242043  -0.132   0.243  -5.419  0.9220 -0.1005  1.2026
 5950TIP3   OH242044   0.215  -2.267  -1.741 -0.0453 -0.3133 -0.3900
 5950TIP3    H142045   0.225  -2.201  -1.672  0.9153  1.0544 -1.7688
 5950TIP3    H242046   0.297  -2.262  -1.790 -0.8468 -0.9911 -1.8459
 5951TIP3   OH242047   0.546  -0.544  -4.254  0.5447  0.7283 -0.3868
 5951TIP3    H142048   0.491  -0.620  -4.231  0.1616  0.3318 -2.4480
 5951TIP3    H242049   0.502  -0.470  -4.212 -0.4296  0.1316 -0.3038
 5952TIP3   OH242050   0.455   2.266  -3.457  0.2247  0.3121 -0.1823
 5952TIP3    H142051   0.396   2.283  -3.530  0.0481  0.6607  0.0383
 5952TIP3    H242052   0.541   2.293  -3.490 -0.0204  1.4543  0.0889
 5953TIP3   OH242053   2.250  -0.790  -4.813  0.5008 -0.4949  0.4244
 5953TIP3    H142054   2.220  -0.708  -4.854 -0.0459 -0.9252 -0.0507
 5953TIP3    H242055   2.333  -0.766  -4.771  0.5252  0.2240 -0.0041
 5954TIP3   OH242056   0.202   0.955  -4.239 -0.4466 -0.4922 -0.3133
 5954TIP3    H142057   0.218   0.995  -4.324 -0.4002 -0.6188 -0.3652
 5954TIP3    H242058   0.254   0.874  -4.240 -2.0332 -1.5668 -0.9807
 5955TIP3   OH242059  -2.160   2.946  -5.093  0.7829 -0.2827 -0.2109
 5955TIP3    H142060  -2.195   2.860  -5.069 -0.8827  0.3918 -0.1116
 5955TIP3    H242061  -2.080   2.955  -5.041 -0.5212 -0.6025  1.9804
 5956TIP3   OH242062   1.458  -0.628   4.578  0.5394  0.1968  0.6871
 5956TIP3    H142063   1.529  -0.634   4.642  0.7191  0.0594  0.4757
 5956TIP3    H242064   1.461  -0.538   4.546  0.4915  0.2468  0.8218
 5957TIP3   OH242065   0.752  -0.801  -2.794  0.1669  0.1228 -0.2797
 5957TIP3    H142066   0.790  -0.782  -2.880 -0.9602  0.6461 -0.6890
 5957TIP3    H242067   0.826  -0.799  -2.733  0.7008  1.7945 -0.9320
 5958TIP3   OH242068  -3.128  -2.122  -2.145 -0.2454  0.2551  0.2591
 5958TIP3    H142069  -3.104  -2.111  -2.237 -1.8105  2.4635  0.0437
 5958TIP3    H242070  -3.195  -2.191  -2.147 -1.8774  1.7905 -0.6118
 5959TIP3   OH242071   2.449   3.179  -1.860 -0.1576  0.3127  0.1840
 5959TIP3    H142072   2.398   3.156  -1.938  1.2112 -0.6053 -0.4904
 5959TIP3    H242073   2.538   3.190  -1.892  0.7747 -1.7414  1.8246
 5960TIP3   OH242074   1.612   1.550  -5.258 -1.0577 -0.4787  0.3735
 5960TIP3    H142075   1.569   1.634  -5.244 -1.6274 -0.2143 -2.4815
 5960TIP3    H242076   1.541   1.486  -5.255 -1.2671 -0.3725 -1.3367
 5961TIP3   OH242077  -0.596   2.340  -2.974 -0.5738  0.2422  0.2264
 5961TIP3    H142078  -0.643   2.359  -2.893 -0.8285 -1.6162  0.5594
 5961TIP3    H242079  -0.665   2.326  -3.039 -0.6592 -2.8360  0.7921
 5962TIP3   OH242080   2.390  -1.775  -4.574  0.0728  0.1412 -0.2461
 5962TIP3    H142081   2.433  -1.853  -4.609  1.0986  0.3441  0.5088
 5962TIP3    H242082   2.452  -1.704  -4.590 -0.4693  0.6453 -0.1392
 5963TIP3   OH242083   1.063   1.614  -4.783  0.1559  0.1927  0.0258
 5963TIP3    H142084   0.998   1.544  -4.774 -2.1458  2.0958 -0.7117
 5963TIP3    H242085   1.052   1.668  -4.705  0.4301  0.8743 -0.3907
 5964TIP3   OH242086   0.314   2.027  -3.315 -0.0890  0.2700 -0.4909
 5964TIP3    H142087   0.319   1.962  -3.245 -0.1168  2.1354  1.3449
 5964TIP3    H242088   0.376   1.996  -3.381 -1.1016 -2.2924 -0.3270
 5965TIP3   OH242089   0.676  -2.803  -5.074  0.5196 -0.0291  0.4166
 5965TIP3    H142090   0.657  -2.803  -5.168  1.3355 -1.2084  0.2401
 5965TIP3    H242091   0.677  -2.710  -5.050  0.2078  0.2799 -0.7118
 5966TIP3   OH242092  -0.131   0.564  -2.456 -0.0934 -0.3168 -0.2500
 5966TIP3    H142093  -0.069   0.592  -2.522 -1.1865 -0.6222 -1.4457
 5966TIP3    H242094  -0.079   0.514  -2.393  0.7028 -1.4555 -1.7732
 5967TIP3   OH242095  -1.240   2.999  -3.762 -0.1294 -0.3287  0.2323
 5967TIP3    H142096  -1.287   3.082  -3.772 -0.0676 -0.3248 -0.0338
 5967TIP3    H242097  -1.203   3.003  -3.674  0.3840  0.1845 -0.0041
 5968TIP3   OH242098  -2.144  -2.162  -5.871  0.2350  0.0414  0.6374
 5968TIP3    H142099  -2.165  -2.218  -5.796 -0.5059  1.3234  1.4227
 5968TIP3    H242100  -2.214  -2.179  -5.934  0.3961 -0.4261  0.5839
 5969TIP3   OH242101   0.016  -1.417  -3.134 -0.1889 -0.4610 -0.0035
 5969TIP3    H142102   0.005  -1.323  -3.150  0.0120 -0.4401 -0.0247
 5969TIP3    H242103   0.064  -1.448  -3.210 -0.5204 -0.6396 -0.1396
 5970TIP3   OH242104  -3.042  -0.992  -5.836 -0.5306  1.2652 -1.1036
 5970TIP3    H142105  -3.114  -1.043  -5.874 -0.5539 -1.3697  1.9769
 5970TIP3    H242106  -2.967  -1.051  -5.839  0.3168  2.2646 -0.2569
 5971TIP3   OH242107   1.180   0.692  -4.540  0.0137 -0.1680  0.4551
 5971TIP3    H142108   1.201   0.776  -4.500  1.3490  0.4181 -1.3255
 5971TIP3    H242109   1.203   0.627  -4.473 -0.9114  0.8469  1.8107
 5972TIP3   OH242110  -2.800  -0.187  -4.946  0.7878  0.3893 -0.2255
 5972TIP3    H142111  -2.785  -0.223  -5.033 -1.3391 -2.2866  0.3672
 5972TIP3    H242112  -2.726  -0.217  -4.894  0.7882 -0.1929 -0.5493
 5973TIP3   OH242113   2.224  -2.243  -4.097  0.0971 -0.0659  0.0461
 5973TIP3    H142114   2.277  -2.322  -4.105 -0.8267 -0.5716 -1.2812
 5973TIP3    H242115   2.271  -2.178  -4.151 -0.6347 -0.5368 -1.1967
 5974TIP3   OH242116   1.006  -0.224  -4.592 -0.4047  0.3697 -0.4694
 5974TIP3    H142117   0.982  -0.306  -4.634 -1.9286  1.1562 -1.2244
 5974TIP3    H242118   0.933  -0.206  -4.532  0.3806  0.6965  0.4069
 5975TIP3   OH242119   2.825  -2.249  -5.745 -0.2150  0.9919  0.5977
 5975TIP3    H142120   2.834  -2.160  -5.781  0.4322  0.2403 -1.2073
 5975TIP3    H242121   2.792  -2.235  -5.656 -0.1719  3.0365  0.3517
 5976TIP3   OH242122   0.819  -2.147  -2.225 -0.2170 -0.1663  0.4517
 5976TIP3    H142123   0.856  -2.122  -2.309  0.5519 -0.3202  0.7344
 5976TIP3    H242124   0.801  -2.240  -2.233  0.6243 -0.3558  0.7310
 5977TIP3   OH242125   0.580   1.346  -4.086 -0.1959  0.0851  0.0260
 5977TIP3    H142126   0.556   1.391  -4.168 -0.2760 -0.6364 -0.3567
 5977TIP3    H242127   0.588   1.416  -4.022 -0.4014  0.6395 -0.5399
 5978TIP3   OH242128   3.217   2.072  -4.949 -0.2065  1.0843  0.0427
 5978TIP3    H142129   3.168   2.121  -5.015 -0.3756  1.3183  0.3372
 5978TIP3    H242130   3.304   2.062  -4.986 -0.7382 -0.2094 -0.9294
 5979TIP3   OH242131  -3.342   2.746  -2.474 -0.2083  0.4750 -0.1207
 5979TIP3    H142132  -3.335   2.771  -2.382 -0.2436 -0.6475  0.1943
 5979TIP3    H242133  -3.289   2.811  -2.521 -0.5368  1.3074  0.6370
 5980TIP3   OH242134  -2.006  -1.703  -5.235  0.0825  0.7099 -0.6932
 5980TIP3    H142135  -2.091  -1.739  -5.210 -0.0847  1.1643 -0.5981
 5980TIP3    H242136  -1.976  -1.759  -5.306 -0.5145  0.8373 -1.0449
 5981TIP3   OH242137   0.847  -1.302  -3.869  0.2872  0.4652 -0.8236
 5981TIP3    H142138   0.941  -1.298  -3.854  0.3075  3.0276 -1.0577
 5981TIP3    H242139   0.838  -1.319  -3.963  0.6509  2.7344 -1.3308
 5982TIP3   OH242140  -1.775   2.902  -5.377  0.3346  0.0129  0.3156
 5982TIP3    H142141  -1.710   2.954  -5.425 -1.5748  2.0937 -0.2257
 5982TIP3    H242142  -1.739   2.894  -5.288  1.8833 -0.0360 -0.2817
 5983TIP3   OH242143   3.001  -2.281  -5.119  0.3858  0.4654 -0.1503
 5983TIP3    H142144   2.910  -2.313  -5.119  0.7026 -0.4848  0.4206
 5983TIP3    H242145   3.047  -2.342  -5.062  1.4673  0.7091 -0.7466
 5984TIP3   OH242146  -2.917  -1.027  -3.980 -0.2215  0.1112  0.1021
 5984TIP3    H142147  -2.861  -0.949  -3.988 -2.2850  1.6742  0.1319
 5984TIP3    H242148  -2.927  -1.040  -3.886 -1.3767  0.9943  0.1233
 5985TIP3   OH242149   0.899   0.724  -5.669  0.2791 -0.6170 -0.1854
 5985TIP3    H142150   0.981   0.685  -5.699  0.0687 -0.6188 -0.7550
 5985TIP3    H242151   0.861   0.657  -5.612  1.5651  0.0941  1.6337
 5986TIP3   OH242152   1.942  -2.582  -2.612 -0.4406  0.1585  0.0568
 5986TIP3    H142153   1.861  -2.553  -2.570 -0.8916 -0.8594 -0.0553
 5986TIP3    H242154   1.925  -2.572  -2.706 -0.5265 -0.2470  0.0249
 5987TIP3   OH242155  -3.271  -1.795  -3.434 -0.6024  0.0466  0.0521
 5987TIP3    H142156  -3.366  -1.794  -3.450 -0.8993  0.1314  1.6183
 5987TIP3    H242157  -3.259  -1.733  -3.362  0.8152  0.9013 -0.8842
 5988TIP3   OH242158   0.341  -3.198  -3.105 -0.0325  0.4517 -0.3825
 5988TIP3    H142159   0.367  -3.284  -3.138 -3.0496 -0.1416 -1.5962
 5988TIP3    H242160   0.422  -3.147  -3.102  1.4160 -1.5340 -2.4342
 5989TIP3   OH242161   1.455  -1.784  -3.106 -0.4570 -0.7379 -0.1924
 5989TIP3    H142162   1.492  -1.829  -3.181  1.2779 -2.1117  1.4014
 5989TIP3    H242163   1.516  -1.801  -3.035 -0.9952  2.1568  1.1028
 5990TIP3   OH242164   2.339  -1.989  -5.740 -0.8783  0.4404 -0.2149
 5990TIP3    H142165   2.304  -1.987  -5.651  2.5919  0.3444  1.3122
 5990TIP3    H242166   2.299  -1.913  -5.783 -0.4020  2.3885  2.4584
 5991TIP3   OH242167  -2.994   1.145  -2.663 -0.4032  0.6655  0.2096
 5991TIP3    H142168  -3.010   1.208  -2.593  1.4908 -0.9823  2.2838
 5991TIP3    H242169  -2.902   1.158  -2.686  0.1969 -1.5655  1.0641
 5992TIP3   OH242170   1.908   2.770  -3.631 -0.0337 -0.5793  0.2752
 5992TIP3    H142171   1.846   2.718  -3.579 -0.0476  0.0172  0.8557
 5992TIP3    H242172   1.862   2.786  -3.713 -0.8114  0.1794  0.8439
 5993TIP3   OH242173   0.123  -0.978  -3.545  0.0574 -0.3751  0.3602
 5993TIP3    H142174   0.068  -0.995  -3.469 -1.0061 -0.1204 -0.3201
 5993TIP3    H242175   0.208  -0.954  -3.509 -0.5340  0.1157  1.4769
 5994TIP3   OH242176  -2.519  -0.403  -4.603  0.5109  0.5869  0.0126
 5994TIP3    H142177  -2.607  -0.439  -4.590  0.8721 -0.8045 -1.0526
 5994TIP3    H242178  -2.498  -0.358  -4.522 -0.5308 -0.5089  0.9185
 5995TIP3   OH242179  -0.457  -2.932  -5.349  0.0470 -0.1805  0.0125
 5995TIP3    H142180  -0.505  -2.938  -5.432  1.3888 -1.6384 -0.7296
 5995TIP3    H242181  -0.520  -2.960  -5.282 -0.3880 -1.2970 -0.8274
 5996TIP3   OH242182  -2.858   2.711  -4.906 -0.3916  0.1830 -0.5230
 5996TIP3    H142183  -2.863   2.740  -4.815  1.1540  0.5850 -0.5321
 5996TIP3    H242184  -2.889   2.621  -4.905 -0.0796  0.0775  0.4546
 5997TIP3   OH242185  -2.368   1.306  -4.971  0.4399 -0.4416 -0.2765
 5997TIP3    H142186  -2.391   1.399  -4.972  2.6302  0.1393 -0.3890
 5997TIP3    H242187  -2.352   1.285  -5.063  0.1205 -0.9121 -0.2311
 5998TIP3   OH242188   2.347  -2.255  -5.746  0.1379 -0.2737 -0.1092
 5998TIP3    H142189   2.390  -2.170  -5.743  0.4331 -0.4430  1.6314
 5998TIP3    H242190   2.258  -2.235  -5.777  0.6204  0.4619 -1.0591
 5999TIP3   OH242191  -0.890   2.056  -4.078  0.3408 -0.1640 -1.0373
 5999TIP3    H142192  -0.901   1.964  -4.054 -2.5156  0.5046  0.6362
 5999TIP3    H242193  -0.810   2.083  -4.032  0.7959 -1.6084 -0.9324
 6000TIP3   OH242194   1.697  -2.439  -4.059 -0.0933  0.3788 -0.1649
 6000TIP3    H142195   1.684  -2.507  -4.124 -1.3331  1.0704 -0.6794
 6000TIP3    H242196   1.792  -2.437  -4.044  0.1094 -0.4250 -1.2519
 6001TIP3   OH242197  -2.205  -2.046  -4.398  0.3729  0.2198  0.0372
 6001TIP3    H142198  -2.256  -2.083  -4.470 -0.1070  1.6805 -0.4194
 6001TIP3    H242199  -2.144  -1.986  -4.440 -1.7614  3.2397  0.9218
 6002TIP3   OH242200   1.045   0.689  -5.180 -0.0811 -0.0030  0.5159
 6002TIP3    H142201   1.090   0.663  -5.260 -0.2482  0.6370  0.2105
 6002TIP3    H242202   0.995   0.611  -5.155 -0.7288  0.0666 -0.4931
 6003TIP3   OH242203  -1.262   2.057  -4.574  0.3292  0.3499  0.2126
 6003TIP3    H142204  -1.168   2.044  -4.565  0.2567 -0.8891 -0.6385
 6003TIP3    H242205  -1.299   2.017  -4.495  0.3471 -1.8375 -0.8232
 6004TIP3   OH242206   1.563  -0.971  -4.582 -0.6206  0.1279  0.0892
 6004TIP3    H142207   1.648  -0.936  -4.555 -0.5602  0.5735 -0.6497
 6004TIP3    H242208   1.519  -0.898  -4.624 -1.3967 -0.0876  0.5079
 6005TIP3   OH242209  -1.031   2.645  -5.689  0.0385 -0.5590  0.2912
 6005TIP3    H142210  -1.010   2.626  -5.597  1.0112 -1.0729 -0.0261
 6005TIP3    H242211  -0.967   2.595  -5.739  0.0587  0.3754 -0.6514
 6006TIP3   OH242212  -1.499   2.636  -1.299 -0.9085  0.0873 -0.3179
 6006TIP3    H142213  -1.423   2.693  -1.285 -1.0158 -0.1998  1.6581
 6006TIP3    H242214  -1.476   2.584  -1.376  0.8471  0.0917  0.1633
 6007TIP3   OH242215   2.643  -1.850  -5.318 -0.5514  0.4647 -0.6949
 6007TIP3    H142216   2.638  -1.853  -5.222  0.1750  1.1610 -0.6228
 6007TIP3    H242217   2.737  -1.846  -5.337 -0.7235  1.5380 -1.3878
 6008TIP3   OH242218   1.369  -2.979  -4.523 -1.0033 -0.0299  0.5936
 6008TIP3    H142219   1.374  -3.002  -4.430  1.4999 -0.7351  0.3648
 6008TIP3    H242220   1.423  -2.899  -4.530  0.5332 -1.1055 -0.4936
 6009TIP3   OH242221   1.692  -2.881  -2.676  0.3319 -0.6166  0.2778
 6009TIP3    H142222   1.666  -2.789  -2.675 -0.3037 -0.7974  0.4657
 6009TIP3    H242223   1.634  -2.922  -2.740 -0.5838 -1.2216  1.4494
 6010TIP3   OH242224   0.875  -0.191  -3.595  0.2102 -0.3234  0.2615
 6010TIP3    H142225   0.780  -0.180  -3.594 -0.1811 -3.0457  0.9202
 6010TIP3    H242226   0.900  -0.203  -3.504  0.9091 -1.4096 -0.0492
 6011TIP3   OH242227   2.481   1.616  -4.592 -0.2430 -0.1525 -0.4162
 6011TIP3    H142228   2.471   1.675  -4.517  2.3872 -1.6956  1.3169
 6011TIP3    H242229   2.575   1.616  -4.609 -0.3366 -2.7607 -1.2505
 6012TIP3   OH242230  -3.034  -1.441  -4.086  0.2133  0.0164  0.1023
 6012TIP3    H142231  -3.107  -1.417  -4.030 -0.3351 -0.0247 -0.5914
 6012TIP3    H242232  -2.968  -1.373  -4.071 -0.4192  0.6808 -0.1318
 6013TIP3   OH242233   1.642  -0.007  -3.557  1.1461 -0.2800  0.1147
 6013TIP3    H142234   1.688  -0.045  -3.482  1.5663  0.5140  0.2655
 6013TIP3    H242235   1.628   0.084  -3.533 -4.0397 -1.1585  1.8496
 6014TIP3   OH242236   0.324   0.408  -3.852  0.1936 -0.1138  0.3694
 6014TIP3    H142237   0.411   0.437  -3.879  0.6714 -0.6582  1.2513
 6014TIP3    H242238   0.319   0.316  -3.879 -1.8630  0.9738 -3.7175
 6015TIP3   OH242239   1.897  -0.854  -3.367 -0.8666 -0.0353  0.4781
 6015TIP3    H142240   1.924  -0.927  -3.423  0.6983 -0.3419  1.5410
 6015TIP3    H242241   1.861  -0.896  -3.289 -1.3777  0.3613  0.4582
 6016TIP3   OH242242   0.887  -2.375  -4.741  0.4499 -0.5244  0.2887
 6016TIP3    H142243   0.957  -2.348  -4.801  2.3322 -1.8715  1.7741
 6016TIP3    H242244   0.853  -2.292  -4.706 -0.7531  0.3208 -2.5471
 6017TIP3   OH242245   0.352  -1.453  -5.905 -0.8630 -0.6500  0.4822
 6017TIP3    H142246   0.357  -1.544  -5.874  1.4026 -0.9500 -0.6118
 6017TIP3    H242247   0.355  -1.401  -5.825  0.3292 -1.5100  1.0286
 6018TIP3   OH242248  -0.361  -0.603  -3.696 -0.4795  0.0682  0.1713
 6018TIP3    H142249  -0.456  -0.589  -3.694 -0.4025  0.7188  2.7861
 6018TIP3    H242250  -0.325  -0.518  -3.721 -0.5126  0.7695  2.3644
 6019TIP3   OH242251  -3.159  -2.081  -4.352 -0.0602 -0.1001  0.1390
 6019TIP3    H142252  -3.249  -2.113  -4.367  0.3433 -0.1705 -2.7630
 6019TIP3    H242253  -3.117  -2.151  -4.302 -1.5053 -0.1672  1.3540
 6020TIP3   OH242254  -0.383   2.510  -4.188  0.4363 -0.1014  0.1160
 6020TIP3    H142255  -0.348   2.599  -4.178 -0.5977  0.3982 -0.5543
 6020TIP3    H242256  -0.336   2.459  -4.123  1.3744  0.8427  0.2085
 6021TIP3   OH242257   0.959  -2.637  -3.877  0.5747 -0.2999 -0.1518
 6021TIP3    H142258   1.000  -2.715  -3.913  0.9090 -0.6575  0.9375
 6021TIP3    H242259   0.952  -2.576  -3.950  1.1260 -1.0225 -0.8138
 6022TIP3   OH242260  -2.029   0.631  -2.964 -0.1785 -0.2293  0.1855
 6022TIP3    H142261  -2.059   0.583  -2.887  1.0489 -2.4252 -0.6292
 6022TIP3    H242262  -2.089   0.605  -3.034 -0.5297  0.7765  0.0958
 6023TIP3   OH242263  -1.004  -1.782  -4.953 -0.2479 -0.2128 -0.1519
 6023TIP3    H142264  -0.910  -1.760  -4.949 -0.5407  1.0142  0.9374
 6023TIP3    H242265  -1.031  -1.757  -5.041 -0.0066  1.6396  0.2419
 6024TIP3   OH242266   0.904  -2.764  -2.752  0.0047  0.1576 -0.4146
 6024TIP3    H142267   0.927  -2.814  -2.673  1.7487  1.2188 -0.1827
 6024TIP3    H242268   0.988  -2.729  -2.783 -0.4786 -0.9984 -3.3149
 6025TIP3   OH242269   3.185   2.682  -2.214 -0.6164 -0.1412 -0.5813
 6025TIP3    H142270   3.251   2.751  -2.211  0.4142 -0.9554 -2.4464
 6025TIP3    H242271   3.146   2.681  -2.126  0.9606  1.2227  0.1810
 6026TIP3   OH242272  -2.107  -0.726  -3.676 -0.1415 -0.0126  0.1831
 6026TIP3    H142273  -2.038  -0.775  -3.723 -0.4712 -0.4903  0.1847
 6026TIP3    H242274  -2.085  -0.634  -3.690 -0.9539 -0.0732 -2.0810
 6027TIP3   OH242275  -0.159  -1.761  -2.364 -0.1695  0.6165  0.1270
 6027TIP3    H142276  -0.177  -1.828  -2.298 -0.6774 -0.2184 -0.8323
 6027TIP3    H242277  -0.063  -1.751  -2.363 -0.2206  1.1783  1.5035
 6028TIP3   OH242278  -2.565   0.279  -3.631 -0.0379 -0.2332  0.5643
 6028TIP3    H142279  -2.509   0.341  -3.584  3.4757 -0.1109 -3.1436
 6028TIP3    H242280  -2.620   0.334  -3.687 -0.7068 -0.4374  1.0114
 6029TIP3   OH242281  -3.342  -0.823  -1.806  0.1809  0.0721 -0.1190
 6029TIP3    H142282  -3.254  -0.848  -1.832  1.1576  3.4319 -0.4792
 6029TIP3    H242283  -3.391  -0.814  -1.888  0.7321  2.0447 -0.2963
 6030TIP3   OH242284   0.504  -2.350  -2.394 -0.1497  0.5336 -0.1372
 6030TIP3    H142285   0.593  -2.382  -2.382 -0.8531 -1.6361 -0.2370
 6030TIP3    H242286   0.449  -2.416  -2.352 -1.7935  0.7322 -1.8249
 6031TIP3   OH242287   0.139   2.618  -3.773 -0.1315  0.2621  0.3092
 6031TIP3    H142288   0.123   2.671  -3.695  1.5391  2.0582 -0.4887
 6031TIP3    H242289   0.234   2.614  -3.782 -0.2285 -1.6472 -0.5346
 6032TIP3   OH242290   2.708  -1.791  -3.963 -0.3793  0.1630 -0.4148
 6032TIP3    H142291   2.798  -1.761  -3.975 -0.2183 -0.3808 -0.6016
 6032TIP3    H242292   2.702  -1.872  -4.015 -1.4180  0.9892 -1.6358
 6033TIP3   OH242293  -0.345   2.455  -2.924 -0.2108  0.0610 -0.9812
 6033TIP3    H142294  -0.432   2.418  -2.939 -1.0897  1.7107 -0.2169
 6033TIP3    H242295  -0.307   2.399  -2.856 -1.8985  1.0330  0.8726
 6034TIP3   OH242296  -3.106  -1.728  -5.918 -0.3083 -0.3010  0.1981
 6034TIP3    H142297  -3.023  -1.768  -5.942 -0.7374  0.2419 -2.5756
 6034TIP3    H242298  -3.155  -1.798  -5.875  0.5806 -1.4366 -0.5910
 6035TIP3   OH242299  -0.598   2.554  -2.118 -0.1190  0.3750  0.5524
 6035TIP3    H142300  -0.601   2.535  -2.024  0.7664 -2.3861  0.0933
 6035TIP3    H242301  -0.552   2.480  -2.156  2.6474  3.0145 -1.7081
 6036TIP3   OH242302  -0.471  -1.863  -2.168  0.5400 -0.4538 -0.1746
 6036TIP3    H142303  -0.386  -1.905  -2.181 -0.2361 -1.5557 -2.1264
 6036TIP3    H242304  -0.459  -1.775  -2.206  0.4149 -1.1412 -1.9110
 6037TIP3   OH242305   2.555   0.648  -3.147 -0.1244 -0.1386 -0.5285
 6037TIP3    H142306   2.598   0.638  -3.062  0.0618 -0.9223 -0.7123
 6037TIP3    H242307   2.545   0.743  -3.157  0.1278 -0.0237  0.2280
 6038TIP3   OH242308   2.968  -2.185  -3.220  0.2240 -0.4295 -0.0695
 6038TIP3    H142309   2.928  -2.197  -3.134 -0.9218  0.2439 -0.4923
 6038TIP3    H242310   3.057  -2.155  -3.201 -0.0426 -0.2120  0.8840
 6039TIP3   OH242311   2.737  -0.545  -4.535 -0.4141  0.5476  0.3320
 6039TIP3    H142312   2.736  -0.639  -4.518 -0.5335  0.5313  0.2395
 6039TIP3    H242313   2.711  -0.538  -4.627  1.8315  0.5148 -0.3756
 6040TIP3   OH242314   3.021  -2.779  -3.444  0.4087  0.3399 -0.1250
 6040TIP3    H142315   2.929  -2.806  -3.436  0.9993 -1.9630 -0.3769
 6040TIP3    H242316   3.034  -2.770  -3.538  0.1935  1.7321 -0.0402
 6041TIP3   OH242317  -0.875   2.960  -3.508  0.0311 -0.1645  0.2818
 6041TIP3    H142318  -0.865   2.937  -3.601  0.6847 -2.2880  0.8182
 6041TIP3    H242319  -0.964   2.996  -3.501 -0.2048 -0.4396 -1.0731
 6042TIP3   OH242320   1.070  -0.748  -5.616  0.3377  0.2129 -0.5242
 6042TIP3    H142321   1.081  -0.843  -5.622 -0.0492  0.2135 -1.4130
 6042TIP3    H242322   1.005  -0.736  -5.547  0.6218 -0.1545 -0.1907
 6043TIP3   OH242323   2.722   2.662  -5.186  0.3935  0.4169 -0.2983
 6043TIP3    H142324   2.637   2.621  -5.172  1.5274 -2.2516 -0.5620
 6043TIP3    H242325   2.712   2.711  -5.267 -0.4562 -1.2792 -1.2788
 6044TIP3   OH242326   3.009   1.608  -2.688 -0.0713 -0.4438  0.1172
 6044TIP3    H142327   2.962   1.549  -2.747 -1.4783 -1.4413  2.1129
 6044TIP3    H242328   3.096   1.569  -2.678 -0.0429 -0.6231 -0.7412
 6045TIP3   OH242329   1.127  -1.545  -3.365  0.0953  0.1217  1.0612
 6045TIP3    H142330   1.065  -1.472  -3.360  0.4042  0.4711  0.0835
 6045TIP3    H242331   1.131  -1.580  -3.276  0.1400  1.4630  1.6022
 6046TIP3   OH242332  -3.248   3.041  -2.595 -0.0247 -0.7294  0.2934
 6046TIP3    H142333  -3.158   3.067  -2.618 -0.9468  1.6388 -0.9837
 6046TIP3    H242334  -3.256   3.063  -2.502  0.0366  1.4235 -0.1504
 6047TIP3   OH242335  -3.210   2.243  -3.884  0.1626  0.1170  0.3774
 6047TIP3    H142336  -3.143   2.307  -3.909 -0.4150  1.7549  2.7238
 6047TIP3    H242337  -3.160   2.168  -3.851  0.8280 -0.3845 -1.5869
 6048TIP3   OH242338   0.053   0.661  -3.837  0.4418 -0.1905 -0.6396
 6048TIP3    H142339   0.013   0.584  -3.796  0.5735 -0.9241 -1.8331
 6048TIP3    H242340   0.029   0.654  -3.930  0.9593  0.8892 -0.8733
 6049TIP3   OH242341   1.832  -1.880  -2.712 -0.0953  0.1615  0.5770
 6049TIP3    H142342   1.859  -1.793  -2.682 -0.6849  0.2171  0.9603
 6049TIP3    H242343   1.861  -1.884  -2.803 -1.5840  1.4278 -0.0003
 6050TIP3   OH242344   0.832   2.060  -3.333  0.0821 -0.4722 -0.3863
 6050TIP3    H142345   0.912   2.020  -3.366  1.1157  0.4913  0.8284
 6050TIP3    H242346   0.839   2.152  -3.358  0.3243  0.0319  1.3960
 6051TIP3   OH242347  -0.604  -2.423  -5.663  0.3238 -0.2707  0.0148
 6051TIP3    H142348  -0.667  -2.395  -5.596  1.3031 -0.1475  0.9195
 6051TIP3    H242349  -0.581  -2.513  -5.638  0.3899 -0.3638 -0.3839
 6052TIP3   OH242350   2.762   3.217  -5.140 -0.2334 -0.4289 -0.0408
 6052TIP3    H142351   2.797   3.235  -5.227  1.0295 -0.2667  0.4826
 6052TIP3    H242352   2.827   3.161  -5.098 -0.5727 -0.1070  0.9693
 6053TIP3   OH242353   2.507   2.080  -4.555  0.1946 -0.2127  0.4674
 6053TIP3    H142354   2.541   2.167  -4.578 -0.5493  0.0120  0.2130
 6053TIP3    H242355   2.585   2.024  -4.555  0.9936  0.8121  2.5467
 6054TIP3   OH242356  -1.057   1.838  -4.155  0.0417  0.3632  0.5883
 6054TIP3    H142357  -1.124   1.776  -4.184 -0.8120  1.2923  0.5558
 6054TIP3    H242358  -0.986   1.828  -4.219 -0.2574 -0.2644  0.3456
 6055TIP3   OH242359  -0.375   1.428  -5.063 -0.3195  0.1463  0.1973
 6055TIP3    H142360  -0.283   1.425  -5.037 -0.5840 -2.0582  1.1387
 6055TIP3    H242361  -0.403   1.517  -5.043  1.0848  0.2700  1.8854
 6056TIP3   OH242362   2.802   3.202  -5.663  0.1284 -0.2854  0.1540
 6056TIP3    H142363   2.717   3.160  -5.661 -0.4691  0.8257 -0.7014
 6056TIP3    H242364   2.849   3.160  -5.735 -1.4180  2.1334 -2.4608
 6057TIP3   OH242365   1.986   2.037  -5.480 -0.3475  0.4526  0.1677
 6057TIP3    H142366   1.987   2.129  -5.506 -1.5662  0.3207 -0.4094
 6057TIP3    H242367   2.017   2.038  -5.390 -1.6545  1.6147  0.6541
 6058TIP3   OH242368  -0.701  -1.728  -5.938  0.1642 -0.1300  0.0984
 6058TIP3    H142369  -0.637  -1.677  -5.890 -0.8978  0.4871  0.9020
 6058TIP3    H242370  -0.652  -1.766  -6.011  1.1963  1.2538  0.0295
 6059TIP3   OH242371  -0.643   3.377  -5.248 -0.1292  0.2074  0.5153
 6059TIP3    H142372  -0.701   3.338  -5.182 -1.6903  1.4659 -0.0220
 6059TIP3    H242373  -0.703   3.407  -5.317  1.2977  0.5227 -0.6252
 6060TIP3   OH242374   3.331   0.594  -3.169  0.1536 -0.2083  0.3762
 6060TIP3    H142375   3.318   0.503  -3.142  1.1456 -0.3651  0.3800
 6060TIP3    H242376   3.259   0.612  -3.228 -0.5858 -0.6999  1.0980
 6061TIP3   OH242377   1.035   1.179  -5.124  0.0835 -0.5603  0.2773
 6061TIP3    H142378   1.070   1.204  -5.209 -1.1811 -1.5581 -0.5813
 6061TIP3    H242379   1.083   1.100  -5.100 -0.6434 -1.1856 -0.2828
 6062TIP3   OH242380   1.298   2.198  -5.396 -0.2363 -0.0983 -0.2905
 6062TIP3    H142381   1.263   2.193  -5.308 -2.2187 -1.2246 -1.0739
 6062TIP3    H242382   1.312   2.292  -5.412 -0.1666  0.1377  1.0773
 6063TIP3   OH242383   0.015  -0.070  -4.003  0.3079  0.1696  0.0984
 6063TIP3    H142384   0.068  -0.145  -3.976 -0.8102 -0.3310  0.9870
 6063TIP3    H242385   0.055   0.005  -3.959  1.8977  0.2575 -1.3952
 6064TIP3   OH242386   0.563   2.039  -2.967 -0.0624 -0.0481  0.1847
 6064TIP3    H142387   0.563   1.944  -2.955  0.1508 -0.1435 -0.4994
 6064TIP3    H242388   0.652   2.059  -2.996  0.4966  0.6282  2.1818
 6065TIP3   OH242389  -2.470  -2.107  -4.094  0.6362 -0.0338 -0.1057
 6065TIP3    H142390  -2.502  -2.151  -4.016 -0.7742  1.6090  0.3247
 6065TIP3    H242391  -2.518  -2.148  -4.166  0.8187 -0.5313  0.0527
 6066TIP3   OH242392   1.669   2.845  -4.109 -0.7580  0.4843  0.5422
 6066TIP3    H142393   1.701   2.841  -4.019 -0.6255  0.3180  0.4868
 6066TIP3    H242394   1.746   2.869  -4.161 -0.3060 -1.5578  0.1871
 6067TIP3   OH242395   1.985  -0.493  -3.092  0.7855  0.4162  0.2300
 6067TIP3    H142396   2.058  -0.443  -3.129  1.1050 -0.0164  0.2751
 6067TIP3    H242397   1.983  -0.468  -3.000  0.9038  0.3918  0.2383
 6068TIP3   OH242398   1.617  -1.684  -5.014  0.2227  0.1839  0.1018
 6068TIP3    H142399   1.575  -1.680  -5.100  1.5537  0.5834 -0.5581
 6068TIP3    H242400   1.549  -1.657  -4.953 -1.4251 -2.2355 -0.5431
 6069TIP3   OH242401  -2.519   1.800  -5.065 -0.1369 -0.0251 -0.0545
 6069TIP3    H142402  -2.485   1.886  -5.088 -0.6853  1.1170  2.9401
 6069TIP3    H242403  -2.578   1.777  -5.137  0.5738  1.7394 -1.2607
 6070TIP3   OH242404   1.144   2.658  -2.464 -0.2069  0.0057  0.2283
 6070TIP3    H142405   1.199   2.655  -2.386 -1.0727  0.0497  0.8590
 6070TIP3    H242406   1.177   2.586  -2.519  1.1508  0.6908  0.1003
 6071TIP3   OH242407   0.281  -0.342  -5.668  0.2551  0.4157  0.2281
 6071TIP3    H142408   0.341  -0.398  -5.717  1.2903  1.4282  0.3042
 6071TIP3    H242409   0.309  -0.350  -5.577  1.3684  2.1435  0.0818
 6072TIP3   OH242410   2.848   2.124  -4.884  0.2723  0.2781 -1.4807
 6072TIP3    H142411   2.930   2.153  -4.843 -0.5813 -0.4936  0.9668
 6072TIP3    H242412   2.862   2.032  -4.904 -0.1989 -0.0638 -0.3432
 6073TIP3   OH242413   2.542   1.037  -4.298  0.1985 -0.3166  0.1539
 6073TIP3    H142414   2.462   1.087  -4.312  1.5648  1.6226 -1.3337
 6073TIP3    H242415   2.512   0.947  -4.283 -2.2840  0.6084  1.2383
 6074TIP3   OH242416  -0.995  -3.117  -5.056 -0.5258 -0.4917  0.4160
 6074TIP3    H142417  -1.063  -3.052  -5.073  1.5544  1.1751 -2.5099
 6074TIP3    H242418  -0.926  -3.068  -5.011  0.1226 -1.2991  0.3251
 6075TIP3   OH242419  -2.962  -1.538  -3.039 -0.2798 -0.0626  0.1384
 6075TIP3    H142420  -2.934  -1.452  -3.068 -2.0153  0.7143  0.6812
 6075TIP3    H242421  -2.921  -1.599  -3.101  0.6657  1.1516 -0.4625
 6076TIP3   OH242422  -1.332  -2.658  -5.253 -0.6078 -0.6739  0.3521
 6076TIP3    H142423  -1.394  -2.614  -5.312  1.1684  2.2636  0.4852
 6076TIP3    H242424  -1.246  -2.623  -5.278  0.6259 -2.1442  2.2828
 6077TIP3   OH242425   2.085   1.963  -5.731 -0.3182 -0.0192 -0.2560
 6077TIP3    H142426   2.037   2.005  -5.660 -2.2403 -0.0056 -1.5196
 6077TIP3    H242427   2.038   1.881  -5.748  0.1491 -0.0560 -1.4878
 6078TIP3   OH242428  -2.808  -3.236  -5.161 -0.1130 -0.2353 -0.5888
 6078TIP3    H142429  -2.741  -3.178  -5.125  0.6670 -1.5432  0.1786
 6078TIP3    H242430  -2.883  -3.180  -5.178  1.5905  1.5281 -2.6888
 6079TIP3   OH242431  -1.482   0.270  -4.565 -0.7086 -0.2270 -0.2594
 6079TIP3    H142432  -1.419   0.235  -4.502 -1.3079 -0.0849  0.4335
 6079TIP3    H242433  -1.565   0.229  -4.542 -1.3205  1.2159  0.2465
 6080TIP3   OH242434  -2.457   0.335  -3.137 -0.3584  0.1489 -0.5801
 6080TIP3    H142435  -2.522   0.265  -3.137  0.8456 -1.0057 -1.3043
 6080TIP3    H242436  -2.413   0.327  -3.052 -0.2020  0.0106 -0.6743
 6081TIP3   OH242437  -3.338  -0.895  -2.508  0.0070 -0.8984  0.0030
 6081TIP3    H142438  -3.381  -0.849  -2.436 -0.0273 -0.7559 -0.1069
 6081TIP3    H242439  -3.405  -0.899  -2.577 -0.3253 -1.9956  0.3679
 6082TIP3   OH242440   0.918  -2.025  -4.924  0.5168 -0.1867  0.5464
 6082TIP3    H142441   0.945  -2.107  -4.966 -1.0378 -0.8264  0.7416
 6082TIP3    H242442   0.993  -2.001  -4.869  1.7958 -0.3772 -1.0526
 6083TIP3   OH242443   1.913   3.370  -5.925 -0.7905  0.0138  0.2336
 6083TIP3    H142444   2.005   3.361  -5.902 -0.1593  0.1779 -1.9670
 6083TIP3    H242445   1.892   3.289  -5.972 -1.2409  0.7344 -0.8419
 6084TIP3   OH242446  -0.834   0.522  -5.633 -0.0518  0.1777  0.2543
 6084TIP3    H142447  -0.778   0.506  -5.709  1.4261 -1.2179  1.5736
 6084TIP3    H242448  -0.778   0.570  -5.571 -0.8494  0.2361  0.9473
 6085TIP3   OH242449  -0.300   3.014  -4.734 -0.1424  0.6024 -0.3938
 6085TIP3    H142450  -0.361   3.062  -4.790  1.8165  1.2818 -2.0566
 6085TIP3    H242451  -0.247   3.082  -4.693  1.1745 -0.0105 -1.0030
 6086TIP3   OH242452  -2.476  -2.245  -3.710  0.5190 -0.1579 -0.7629
 6086TIP3    H142453  -2.419  -2.294  -3.770  0.6309  0.2762 -1.0145
 6086TIP3    H242454  -2.552  -2.222  -3.764 -0.6585 -2.0786 -0.0328
 6087TIP3   OH242455  -1.870  -3.167  -3.577  0.8431  0.2266  0.4775
 6087TIP3    H142456  -1.787  -3.132  -3.544  1.5727 -2.1989  1.3853
 6087TIP3    H242457  -1.848  -3.254  -3.611 -0.6283  0.9787 -2.8768
 6088TIP3   OH242458   3.147   2.769  -4.820  0.3111 -0.0132  0.0208
 6088TIP3    H142459   3.121   2.719  -4.742 -0.2475  2.3641  1.4642
 6088TIP3    H242460   3.240   2.787  -4.807  0.5357 -0.7133 -0.5482
 6089TIP3   OH242461  -0.222   0.727  -4.215 -0.1923  0.0913  0.1857
 6089TIP3    H142462  -0.198   0.732  -4.308  0.1467 -0.0682  0.2616
 6089TIP3    H242463  -0.307   0.684  -4.214  0.4996 -1.3121  0.0451
 6090TIP3   OH242464  -2.827   0.183  -4.947  0.1642 -0.1879 -0.0147
 6090TIP3    H142465  -2.879   0.137  -5.012 -0.2069 -2.9000  2.0270
 6090TIP3    H242466  -2.737   0.154  -4.962  0.1560 -0.3920  0.3172
 6091TIP3   OH242467   1.689   1.696  -3.941  0.0046  0.2610 -0.1806
 6091TIP3    H142468   1.646   1.720  -4.023  2.1918 -0.2783 -1.5675
 6091TIP3    H242469   1.758   1.762  -3.931 -0.4560  0.5327  1.4489
 6092TIP3   OH242470  -0.905   0.789  -5.321  0.2521 -0.3015 -0.0279
 6092TIP3    H142471  -1.000   0.793  -5.307  0.2442  1.2285 -0.3927
 6092TIP3    H242472  -0.872   0.871  -5.285  1.2999 -0.2828 -0.9825
 6093TIP3   OH242473   0.343   3.264  -4.463  0.0256 -0.2961  0.3686
 6093TIP3    H142474   0.263   3.211  -4.465 -0.4935  0.4791  0.2957
 6093TIP3    H242475   0.373   3.259  -4.372 -0.8508  0.5057  0.7072
 6094TIP3   OH242476   1.052  -1.235  -5.392  0.4894 -0.4727 -0.1315
 6094TIP3    H142477   0.990  -1.305  -5.411 -0.9078  0.7692 -0.3511
 6094TIP3    H242478   1.124  -1.249  -5.454 -0.3923 -0.9513 -1.0746
 6095TIP3   OH242479   1.720   2.850  -4.649  0.0563  0.0115  0.3274
 6095TIP3    H142480   1.664   2.897  -4.710  1.5921  1.8127  0.2076
 6095TIP3    H242481   1.806   2.848  -4.692  0.1904 -2.5095  0.5645
 6096TIP3   OH242482   3.123   1.506  -3.456 -0.5250  0.4816 -0.1415
 6096TIP3    H142483   3.132   1.558  -3.536 -0.2632 -0.6719 -0.8850
 6096TIP3    H242484   3.202   1.524  -3.406  0.0693 -0.0040 -0.8897
 6097TIP3   OH242485   2.370  -1.709  -5.403  0.1945 -0.0876  0.5300
 6097TIP3    H142486   2.423  -1.637  -5.440  0.3599  0.3742  1.6206
 6097TIP3    H242487   2.435  -1.771  -5.370  0.0525 -0.8177 -0.4996
 6098TIP3   OH242488  -0.358   0.448  -3.692  0.0149 -0.3069  0.6842
 6098TIP3    H142489  -0.361   0.543  -3.677  1.6972 -0.2816  1.0683
 6098TIP3    H242490  -0.298   0.438  -3.765  0.5985 -1.1341  1.2628
 6099TIP3   OH242491   0.357   1.625  -2.438 -0.2823 -0.4171 -0.5998
 6099TIP3    H142492   0.414   1.696  -2.407  0.2800 -0.2888 -1.8681
 6099TIP3    H242493   0.269   1.650  -2.408  0.0927  0.2020  0.0063
 6100TIP3   OH242494  -2.664  -1.792  -5.721 -0.3670  0.6721 -0.4812
 6100TIP3    H142495  -2.614  -1.873  -5.709 -1.2887  0.1537 -0.0168
 6100TIP3    H242496  -2.603  -1.722  -5.699  0.4557  0.1072 -0.9152
 6101TIP3   OH242497  -0.357  -2.899  -2.952  0.5568  0.6280  0.6021
 6101TIP3    H142498  -0.268  -2.888  -2.919  1.8533 -0.6988 -2.1379
 6101TIP3    H242499  -0.370  -2.827  -3.013  0.6335 -0.3851 -0.6482
 6102TIP3   OH242500   2.854  -3.229  -3.157  0.3563  0.3551 -0.4861
 6102TIP3    H142501   2.834  -3.221  -3.250 -1.1318  1.2955 -0.1123
 6102TIP3    H242502   2.799  -3.301  -3.126  1.8402 -0.8726 -0.5684
 6103TIP3   OH242503  -2.693   0.150  -5.629 -0.1243 -0.0338 -0.1579
 6103TIP3    H142504  -2.599   0.166  -5.623 -0.0081 -0.9646  0.8603
 6103TIP3    H242505  -2.700   0.058  -5.654 -0.7752  0.2922 -1.2401
 6104TIP3   OH242506   0.661  -2.077  -1.985  0.0588 -0.0933 -0.4334
 6104TIP3    H142507   0.638  -1.984  -1.983 -1.9000 -0.3842 -3.2763
 6104TIP3    H242508   0.719  -2.085  -2.061 -1.0897 -1.3745 -1.2252
 6105TIP3   OH242509   0.744   1.145  -4.427  0.5950  0.1392 -0.2494
 6105TIP3    H142510   0.664   1.192  -4.402  1.2238  1.0027  0.1948
 6105TIP3    H242511   0.736   1.059  -4.385 -0.5789 -0.1771 -1.0866
 6106TIP3   OH242512  -2.620   0.638  -3.318 -0.2415  0.0412 -0.2002
 6106TIP3    H142513  -2.668   0.681  -3.389 -0.5019  0.1396  0.0341
 6106TIP3    H242514  -2.610   0.705  -3.251 -1.2442 -0.4254  0.4539
 6107TIP3   OH242515   0.901  -1.465  -5.442  0.1643  0.0912 -0.0675
 6107TIP3    H142516   0.872  -1.423  -5.523 -0.8445  1.1639  0.8040
 6107TIP3    H242517   0.912  -1.557  -5.464  0.4036  0.4571 -1.5341
 6108TIP3   OH242518   0.432  -3.137  -3.412  0.3110  0.1868 -0.3480
 6108TIP3    H142519   0.368  -3.201  -3.380  1.7546 -0.4177  1.4777
 6108TIP3    H242520   0.392  -3.052  -3.393 -1.1146 -0.1305 -1.7318
 6109TIP3   OH242521   0.068  -0.997  -6.092 -0.0572 -0.0475 -0.0881
 6109TIP3    H142522   0.099  -1.074  -6.044  1.8572 -0.1313 -1.3324
 6109TIP3    H242523  -0.017  -1.022  -6.127 -0.9988 -0.3782  2.2270
 6110TIP3   OH242524  -0.213   0.466  -5.573 -0.3971 -0.3813  0.7204
 6110TIP3    H142525  -0.175   0.382  -5.546 -0.7100 -0.0974  2.0754
 6110TIP3    H242526  -0.138   0.525  -5.582 -0.4136 -0.0298  2.6434
 6111TIP3   OH242527   2.426   0.913  -4.956  0.3734 -0.3405  0.0045
 6111TIP3    H142528   2.354   0.953  -4.908  0.0764  2.2806 -2.3344
 6111TIP3    H242529   2.505   0.953  -4.919  0.5392 -1.6913  1.2012
 6112TIP3   OH242530  -0.624  -0.541  -5.238  0.1410  0.1893 -0.5223
 6112TIP3    H142531  -0.600  -0.612  -5.298 -1.2828  0.2020 -1.1567
 6112TIP3    H242532  -0.718  -0.555  -5.222  0.8367 -1.2265  3.5949
 6113TIP3   OH242533  -2.509   2.991  -5.658  0.1446  0.0116  0.4742
 6113TIP3    H142534  -2.456   2.959  -5.731 -2.4219  2.5156 -2.8160
 6113TIP3    H242535  -2.462   3.069  -5.627  0.0201  0.3829 -0.2503
 6114TIP3   OH242536   1.893   3.076  -3.953  0.3002  0.1295 -0.2587
 6114TIP3    H142537   1.893   3.157  -4.005 -1.6434  0.1832 -0.2516
 6114TIP3    H242538   1.802   3.047  -3.955  1.1203 -2.7128 -1.2144
 6115TIP3   OH242539   2.012   1.987  -3.329  0.7415 -0.4833 -0.1277
 6115TIP3    H142540   2.031   1.903  -3.372  1.7315  1.4160 -3.8250
 6115TIP3    H242541   2.015   1.967  -3.235 -1.2506 -4.9875 -0.7537
 6116TIP3   OH242542  -0.568  -2.912  -4.278  0.6308  0.0028  0.1737
 6116TIP3    H142543  -0.597  -2.955  -4.198 -0.1753  0.3996  0.1075
 6116TIP3    H242544  -0.578  -2.978  -4.346  2.5546 -0.7681  0.5770
 6117TIP3   OH242545   1.133   0.309  -3.863 -0.0632  0.2358 -0.1472
 6117TIP3    H142546   1.039   0.322  -3.848 -0.3386 -1.9684  0.2771
 6117TIP3    H242547   1.142   0.215  -3.880  2.0773  0.4154 -0.2340
 6118TIP3   OH242548  -1.817   0.824  -5.464  0.0575  0.1276 -0.0544
 6118TIP3    H142549  -1.750   0.774  -5.510 -1.7149 -0.9394 -1.6443
 6118TIP3    H242550  -1.885   0.760  -5.443 -0.4426  1.1378  1.6000
 6119TIP3   OH242551  -3.162   3.314  -5.405 -0.3847  0.2498 -0.2157
 6119TIP3    H142552  -3.177   3.409  -5.409 -0.9921  0.1680  0.0365
 6119TIP3    H242553  -3.249   3.275  -5.417 -0.9337 -0.1796  3.8096
 6120TIP3   OH242554   1.569   3.050  -4.475 -0.3574 -0.2234  0.1588
 6120TIP3    H142555   1.641   2.986  -4.478  0.0098  0.2200 -0.7515
 6120TIP3    H242556   1.611   3.131  -4.445 -0.2960  0.2543 -1.1658
 6121TIP3   OH242557   2.435   2.161  -2.767 -0.5878 -0.0554 -0.5210
 6121TIP3    H142558   2.425   2.066  -2.765 -1.0035 -0.0074 -0.2172
 6121TIP3    H242559   2.523   2.175  -2.804 -0.0552 -0.5870  0.5046
 6122TIP3   OH242560  -1.179   0.600  -5.567 -0.2835  0.3468 -0.6636
 6122TIP3    H142561  -1.156   0.647  -5.647  0.2426  0.4229 -0.4753
 6122TIP3    H242562  -1.095   0.566  -5.535 -0.0903  2.2785  1.1217
 6123TIP3   OH242563  -0.328  -1.039  -2.855 -0.4078  0.0926  0.4661
 6123TIP3    H142564  -0.251  -1.006  -2.808  0.1046  0.2293 -0.4439
 6123TIP3    H242565  -0.314  -1.134  -2.860 -2.3353 -0.5597  3.9115
 6124TIP3   OH242566   2.113   0.505  -4.961 -0.4600 -0.1866  0.3525
 6124TIP3    H142567   2.095   0.590  -4.922  0.1592  1.3450 -2.4350
 6124TIP3    H242568   2.200   0.481  -4.931  0.7849  1.8487 -1.3765
 6125TIP3   OH242569   1.558  -2.501  -4.731 -0.1793 -0.5905  0.8355
 6125TIP3    H142570   1.529  -2.426  -4.783 -0.3772 -0.9268  0.4542
 6125TIP3    H242571   1.477  -2.547  -4.709  0.0632 -1.9955 -0.9373
 6126TIP3   OH242572   2.047   1.336  -5.032  0.0664  0.3851 -0.0414
 6126TIP3    H142573   1.973   1.378  -4.990 -0.5859 -0.0402 -0.7449
 6126TIP3    H242574   2.025   1.333  -5.125 -0.6373 -2.7727  0.0896
 6127TIP3   OH242575  -0.224  -0.372  -3.686  0.2457 -0.7105  0.0868
 6127TIP3    H142576  -0.213  -0.293  -3.739  0.0736 -0.8323 -0.1305
 6127TIP3    H242577  -0.176  -0.353  -3.605  0.5058 -0.5232 -0.1096
 6128TIP3   OH242578  -1.827   3.265  -3.577 -0.0190 -1.0978  0.0502
 6128TIP3    H142579  -1.763   3.197  -3.555  0.7248  0.0111  1.4539
 6128TIP3    H242580  -1.908   3.237  -3.536  0.5255 -0.6904  1.4383
 6129TIP3   OH242581  -0.250   1.363  -4.796  0.2540 -0.2527  0.3003
 6129TIP3    H142582  -0.336   1.385  -4.831  1.0440  1.8865 -0.4938
 6129TIP3    H242583  -0.188   1.406  -4.856  1.7891  0.2016  2.1135
 6130TIP3   OH242584   0.373   0.341  -5.263 -0.2582  0.1129  0.2497
 6130TIP3    H142585   0.321   0.318  -5.340  2.8002  2.8809 -2.9628
 6130TIP3    H242586   0.447   0.280  -5.265 -0.0805  0.2948  0.9244
 6131TIP3   OH242587   2.642   2.363  -5.403 -0.2820  0.5801 -0.0779
 6131TIP3    H142588   2.620   2.354  -5.496  1.2213  1.5430 -0.5651
 6131TIP3    H242589   2.648   2.457  -5.389  0.8167  0.4188  0.6482
 6132TIP3   OH242590  -1.950   0.341  -4.299  0.8644 -0.1248 -0.2642
 6132TIP3    H142591  -1.984   0.270  -4.353  1.0091 -0.7903  0.4925
 6132TIP3    H242592  -1.912   0.403  -4.361 -0.1925 -0.1957 -1.0057
 6133TIP3   OH242593   1.931  -0.952  -3.761 -0.1963 -0.5451  0.2670
 6133TIP3    H142594   1.919  -0.981  -3.671 -1.4954  0.7468  0.5531
 6133TIP3    H242595   1.995  -1.013  -3.798 -1.3403 -2.5097  1.3655
 6134TIP3   OH242596  -1.771   2.447  -2.987  0.2143  0.0457 -0.2536
 6134TIP3    H142597  -1.767   2.505  -2.911  2.7154  0.1669 -0.3842
 6134TIP3    H242598  -1.769   2.359  -2.951  0.4266  0.0947 -0.1436
 6135TIP3   OH242599   0.503   2.865  -5.587 -0.0278  0.0186  0.1873
 6135TIP3    H142600   0.443   2.938  -5.597  0.1997  0.2861  0.7401
 6135TIP3    H242601   0.448   2.787  -5.594 -0.8319  0.2579  2.7881
 6136TIP3   OH242602  -2.238   2.751  -2.003  0.0806  0.0246 -0.5702
 6136TIP3    H142603  -2.168   2.767  -1.940 -0.0585 -0.7603 -0.2102
 6136TIP3    H242604  -2.245   2.833  -2.052 -0.8483  1.2032  1.4301
 6137TIP3   OH242605   3.123   2.663  -3.604 -0.1423  0.0681  0.5381
 6137TIP3    H142606   3.119   2.570  -3.627 -2.1378 -0.1177  1.4812
 6137TIP3    H242607   3.148   2.706  -3.686  0.6092 -1.2577  0.0330
 6138TIP3   OH242608  -0.769  -0.305  -4.669  0.4427  0.4235  0.2767
 6138TIP3    H142609  -0.804  -0.216  -4.662 -0.3973  0.1290 -0.0823
 6138TIP3    H242610  -0.674  -0.293  -4.671  0.3284  1.4936 -2.1126
 6139TIP3   OH242611   2.477  -0.717  -3.733 -0.0236  0.0153  0.0771
 6139TIP3    H142612   2.477  -0.701  -3.827 -0.1244  0.2084  0.1088
 6139TIP3    H242613   2.403  -0.666  -3.700 -0.1948 -0.3146  0.2140
 6140TIP3   OH242614   1.280   1.473  -4.543  0.3416  0.3516  0.4673
 6140TIP3    H142615   1.258   1.492  -4.634 -0.5361  0.7853  0.7613
 6140TIP3    H242616   1.256   1.553  -4.496  0.3636 -0.0440  1.1483
 6141TIP3   OH242617   3.292   1.040  -3.787 -0.6153 -0.9171  0.4613
 6141TIP3    H142618   3.224   0.975  -3.808 -2.0176  0.5575  0.2394
 6141TIP3    H242619   3.258   1.122  -3.823  1.5018 -0.1943 -0.0223
 6142TIP3   OH242620   2.109   2.262  -3.096 -0.4138 -0.2965 -0.0559
 6142TIP3    H142621   2.120   2.281  -3.003 -0.9828 -1.5645  0.2984
 6142TIP3    H242622   2.016   2.241  -3.105 -0.0980 -1.5483 -0.6302
 6143TIP3   OH242623   2.199   2.304  -2.852  0.1980  0.6481  0.0868
 6143TIP3    H142624   2.137   2.333  -2.785 -2.8870  0.9287 -2.6254
 6143TIP3    H242625   2.253   2.239  -2.808 -1.4998  0.9576  2.8963
 6144TIP3   OH242626  -1.649   1.120  -2.066  0.2040  0.5343 -0.3498
 6144TIP3    H142627  -1.640   1.029  -2.095 -2.3730  0.3428 -0.7282
 6144TIP3    H242628  -1.567   1.161  -2.092 -0.3465 -0.5500 -4.5415
 6145TIP3   OH242629  -0.158   0.440  -3.312 -0.1285 -0.2792  0.4085
 6145TIP3    H142630  -0.093   0.417  -3.245 -1.2709 -1.7306  1.0937
 6145TIP3    H242631  -0.214   0.362  -3.318 -3.2859  1.6848  1.6331
 6146TIP3   OH242632   3.123   0.124  -4.426 -0.4215 -0.4175 -0.0572
 6146TIP3    H142633   3.062   0.061  -4.387 -0.4225 -0.2414  0.2257
 6146TIP3    H242634   3.197   0.071  -4.455 -0.9769 -0.7191 -0.9676
 6147TIP3   OH242635  -2.248  -2.258  -3.880  0.2890 -0.0042  0.2927
 6147TIP3    H142636  -2.188  -2.205  -3.932 -1.1714  0.7132 -0.7022
 6147TIP3    H242637  -2.229  -2.348  -3.906 -1.0996  0.3823 -2.3180
 6148TIP3   OH242638  -1.615  -2.423  -3.870 -0.3416  0.2338  0.0793
 6148TIP3    H142639  -1.630  -2.508  -3.912 -0.8182  0.4090 -0.1095
 6148TIP3    H242640  -1.588  -2.365  -3.942  3.3584 -0.5294  0.6386
 6149TIP3   OH242641  -0.555  -3.037  -3.693 -0.6012 -0.2341  0.1886
 6149TIP3    H142642  -0.644  -3.045  -3.725 -1.0493 -1.2818  1.5928
 6149TIP3    H242643  -0.562  -2.979  -3.617 -0.0746 -0.2618  0.2643
 6150TIP3   OH242644   0.045   0.979  -2.516 -0.2270 -0.0429 -0.3268
 6150TIP3    H142645  -0.046   1.002  -2.535 -0.0651  0.3582 -0.6439
 6150TIP3    H242646   0.094   1.061  -2.529 -0.0175  0.1140  1.2853
 6151TIP3   OH242647  -1.382   0.150  -3.534  0.0520 -0.3543 -0.3449
 6151TIP3    H142648  -1.318   0.144  -3.463 -0.1405 -0.4532 -0.1776
 6151TIP3    H242649  -1.444   0.217  -3.505 -0.8987 -1.4545  0.2987
 6152TIP3   OH242650  -1.386   1.932  -4.354 -0.3698 -0.2830 -0.5745
 6152TIP3    H142651  -1.481   1.943  -4.358 -0.2046  1.6230 -0.5591
 6152TIP3    H242652  -1.361   1.972  -4.271  0.5270  0.2140 -1.0603
 6153TIP3   OH242653  -0.638  -0.894  -4.548 -0.3827 -0.2134 -0.0683
 6153TIP3    H142654  -0.664  -0.857  -4.632  0.0912  0.6159  0.1388
 6153TIP3    H242655  -0.554  -0.853  -4.528 -0.5772 -0.2604  0.8979
 6154TIP3   OH242656  -0.875   2.546  -3.113  0.4336 -0.2404  0.0754
 6154TIP3    H142657  -0.966   2.567  -3.092  0.3997  0.1517 -0.4526
 6154TIP3    H242658  -0.858   2.464  -3.066 -0.6109 -1.0567 -0.8996
 6155TIP3   OH242659  -1.408  -1.762  -3.493 -0.2952  0.2299 -0.0906
 6155TIP3    H142660  -1.331  -1.784  -3.441 -1.8512 -1.0465  1.7556
 6155TIP3    H242661  -1.379  -1.775  -3.584  1.5429 -0.5550  0.5581
 6156TIP3   OH242662  -0.600   0.446  -5.060  0.3458  0.0883  0.0502
 6156TIP3    H142663  -0.583   0.533  -5.022 -1.0186 -0.2959  1.7050
 6156TIP3    H242664  -0.691   0.452  -5.091  0.4117 -0.5973 -0.2767
 6157TIP3   OH242665  -1.401   2.954  -2.876 -0.0383  0.6959 -0.3600
 6157TIP3    H142666  -1.465   2.896  -2.919  0.1572  0.5058 -0.3965
 6157TIP3    H242667  -1.447   3.037  -2.866 -0.4868  0.3993  0.1114
 6158TIP3   OH242668   0.814  -0.875  -5.722 -0.1599  0.5496 -0.2691
 6158TIP3    H142669   0.824  -0.887  -5.627  1.0373  3.0431  0.0037
 6158TIP3    H242670   0.879  -0.935  -5.760 -1.9949 -1.9717  0.2925
 6159TIP3   OH242671   0.098  -0.436  -4.467 -0.2548  0.0308  0.4389
 6159TIP3    H142672   0.152  -0.417  -4.390 -1.2589  2.1462  0.6905
 6159TIP3    H242673   0.162  -0.450  -4.537  0.6452  0.1005  1.2143
 6160TIP3   OH242674   0.975  -1.012  -3.081 -0.1478 -0.3592 -0.5366
 6160TIP3    H142675   1.053  -1.061  -3.105  0.8648  0.9439 -0.0209
 6160TIP3    H242676   0.915  -1.078  -3.046  1.8628 -1.0719  1.9262
 6161TIP3   OH242677  -0.560   2.843  -3.547  0.2282 -0.4186 -0.1749
 6161TIP3    H142678  -0.511   2.761  -3.546 -0.4215 -0.8197  0.9821
 6161TIP3    H242679  -0.607   2.843  -3.630  1.1616 -0.6409 -0.7152
 6162TIP3   OH242680   1.930  -1.890  -2.419  0.8746 -0.0524 -0.2441
 6162TIP3    H142681   1.894  -1.920  -2.503  0.3985  2.9072 -1.2100
 6162TIP3    H242682   2.025  -1.901  -2.428  0.6810 -2.3395 -0.0148
 6163TIP3   OH242683  -0.840   0.156  -3.671 -0.2461  0.7659 -0.0034
 6163TIP3    H142684  -0.932   0.137  -3.689 -0.4141  1.6310 -0.1066
 6163TIP3    H242685  -0.829   0.138  -3.578 -0.0554 -1.1066 -0.3586
 6164TIP3   OH242686  -1.711  -1.020  -4.907 -0.5514 -0.0768 -0.3384
 6164TIP3    H142687  -1.725  -1.105  -4.866 -1.9987 -0.9437 -2.4752
 6164TIP3    H242688  -1.777  -0.963  -4.866  0.1953 -0.0371  0.8492
 6165TIP3   OH242689  -0.981   1.977  -4.952  0.6135 -0.4474  0.1352
 6165TIP3    H142690  -1.024   2.058  -4.981  0.7202 -0.7987 -1.0685
 6165TIP3    H242691  -0.948   1.997  -4.865 -1.0112  0.1892  0.6371
 6166TIP3   OH242692   3.208  -2.700  -3.237  0.3355 -0.2600  0.3125
 6166TIP3    H142693   3.144  -2.732  -3.301  0.2214  1.0104 -0.2470
 6166TIP3    H242694   3.268  -2.647  -3.289  1.2084 -0.5462  1.0174
 6167TIP3   OH242695   2.998   0.838  -3.738  0.1507  0.9462 -0.1427
 6167TIP3    H142696   2.918   0.888  -3.721  1.0571  2.0591  1.0553
 6167TIP3    H242697   3.025   0.866  -3.825 -1.8815 -1.0697 -1.5201
 6168TIP3   OH242698   0.433   3.146  -5.263  0.5162  0.2582 -0.0624
 6168TIP3    H142699   0.447   3.156  -5.169 -1.6470 -0.4903  0.3747
 6168TIP3    H242700   0.383   3.224  -5.288 -0.5682 -0.4691 -0.1977
 6169TIP3   OH242701   0.248  -0.214   4.615 -0.1304  0.5020  0.2230
 6169TIP3    H142702   0.180  -0.230   4.681  0.4875 -0.1282  0.7340
 6169TIP3    H242703   0.200  -0.198   4.534 -0.9565 -2.9929 -0.1632
 6170TIP3   OH242704  -1.875  -0.358  -3.422 -0.5499 -0.2131  0.0551
 6170TIP3    H142705  -1.840  -0.270  -3.435 -0.6329  0.0904  1.6688
 6170TIP3    H242706  -1.844  -0.383  -3.335 -1.6789 -1.2114  0.1911
 6171TIP3   OH242707   2.063  -0.840  -4.032  0.3049  0.0173  0.2543
 6171TIP3    H142708   2.119  -0.915  -4.010  0.3635 -0.1717 -0.5374
 6171TIP3    H242709   2.113  -0.764  -4.001  0.2851 -0.2517  0.9822
 6172TIP3   OH242710   0.912   2.628  -4.813  0.0194 -0.7597  0.3298
 6172TIP3    H142711   0.866   2.652  -4.732 -0.7399 -0.1630 -0.2661
 6172TIP3    H242712   0.990   2.683  -4.812  0.1339 -0.9249  0.7729
 6173TIP3   OH242713  -2.908   2.825  -4.657 -0.5491  0.1436  0.1280
 6173TIP3    H142714  -2.957   2.893  -4.704  0.6882  0.4658 -0.7536
 6173TIP3    H242715  -2.976   2.769  -4.618 -1.5977  1.2018 -0.1057
 6174TIP3   OH242716   3.332   2.558  -5.869 -0.1576 -0.1897  0.0102
 6174TIP3    H142717   3.318   2.465  -5.850  0.3175  0.1565  2.4174
 6174TIP3    H242718   3.416   2.560  -5.915  0.5750 -0.8961  1.2394
 6175TIP3   OH242719   2.778   1.897  -3.625 -0.3931  0.1497  0.0686
 6175TIP3    H142720   2.715   1.923  -3.558 -0.6104  1.1067 -0.4773
 6175TIP3    H242721   2.730   1.909  -3.708 -0.2483 -1.3158 -0.2595
 6176TIP3   OH242722   2.331   2.653  -3.492  0.1137  0.0818 -0.2718
 6176TIP3    H142723   2.258   2.590  -3.492  0.3227 -0.2345  1.7742
 6176TIP3    H242724   2.389   2.623  -3.562 -1.4571  0.0598 -1.6324
 6177TIP3   OH242725   1.611  -2.206  -5.067 -0.2682 -0.1900 -0.3802
 6177TIP3    H142726   1.570  -2.239  -4.987 -0.9637  0.3307 -0.5124
 6177TIP3    H242727   1.613  -2.282  -5.125  0.6668 -0.6907  0.2884
 6178TIP3   OH242728  -0.515  -0.198  -3.209  0.3421  0.9167 -0.2733
 6178TIP3    H142729  -0.503  -0.292  -3.217  2.7576  1.0973  0.4769
 6178TIP3    H242730  -0.607  -0.187  -3.183  0.8971 -1.4685  3.3831
 6179TIP3   OH242731  -2.420  -2.209  -5.302  0.0990  0.2372  0.0593
 6179TIP3    H142732  -2.445  -2.119  -5.321 -0.7598 -0.3652 -2.0119
 6179TIP3    H242733  -2.473  -2.262  -5.362 -0.5795 -1.7842  2.2642
 6180TIP3   OH242734  -1.035   1.787  -5.186  0.2131 -0.2798 -0.1954
 6180TIP3    H142735  -0.949   1.758  -5.155  0.9292  2.7065  0.9505
 6180TIP3    H242736  -1.018   1.826  -5.272 -0.1152 -0.2987 -0.2713
 6181TIP3   OH242737  -2.775  -2.372  -4.114  0.1981 -0.8687  0.5554
 6181TIP3    H142738  -2.848  -2.323  -4.077  0.5832  0.2362 -0.0954
 6181TIP3    H242739  -2.769  -2.343  -4.205  0.8709 -1.6235  0.3408
 6182TIP3   OH242740  -2.391   1.819  -3.756  0.4875  0.4204 -0.3958
 6182TIP3    H142741  -2.459   1.773  -3.805 -0.6263  0.7734  0.7691
 6182TIP3    H242742  -2.366   1.892  -3.813 -0.9307  0.9459 -0.3831
 6183TIP3   OH242743  -0.091   1.653  -4.212  0.8927  0.9568 -0.1264
 6183TIP3    H142744  -0.110   1.687  -4.124  0.9519  1.2185 -0.2153
 6183TIP3    H242745  -0.005   1.687  -4.233  1.0661  0.5365 -0.1118
 6184TIP3   OH242746  -0.322  -2.655  -4.989 -0.0292  0.2197 -0.3852
 6184TIP3    H142747  -0.287  -2.568  -5.005 -1.3106  1.2455  1.8730
 6184TIP3    H242748  -0.246  -2.709  -4.969  0.6589  1.1998 -0.3160
 6185TIP3   OH242749  -3.051   3.050  -4.729 -0.4222  0.2315 -0.1216
 6185TIP3    H142750  -3.018   3.140  -4.729  1.1723 -0.2913 -1.3682
 6185TIP3    H242751  -3.135   3.056  -4.774 -2.3969  1.6460  3.3800
 6186TIP3   OH242752   0.171  -0.879  -4.832 -0.3152  0.1164 -0.3295
 6186TIP3    H142753   0.179  -0.799  -4.884  0.2730  1.3880  1.6014
 6186TIP3    H242754   0.115  -0.854  -4.758 -1.6686 -1.8084 -0.6437
 6187TIP3   OH242755  -0.294   1.914  -4.748 -0.3957 -0.1038 -0.1126
 6187TIP3    H142756  -0.318   1.970  -4.674  0.9161 -1.6203  1.5510
 6187TIP3    H242757  -0.368   1.854  -4.757  0.0792 -0.9076  1.0447
 6188TIP3   OH242758  -1.854   1.738  -5.010  0.5116 -0.1980 -0.2739
 6188TIP3    H142759  -1.929   1.765  -5.062 -0.9326 -0.2198  1.6549
 6188TIP3    H242760  -1.790   1.706  -5.073 -1.1759 -0.3389 -1.9794
 6189TIP3   OH242761  -1.995  -2.522  -4.568  0.0898  0.1732 -0.1071
 6189TIP3    H142762  -1.980  -2.535  -4.662 -1.8087 -1.1112 -0.2844
 6189TIP3    H242763  -1.910  -2.539  -4.528  0.5465 -0.9308 -1.4666
 6190TIP3   OH242764   1.923   1.701  -2.131  0.4776  0.0275  0.1439
 6190TIP3    H142765   1.929   1.783  -2.180  0.7757 -0.6827 -1.0541
 6190TIP3    H242766   1.985   1.712  -2.059  0.5244  0.8426 -0.0091
 6191TIP3   OH242767   2.806   0.334  -4.723 -0.5578  0.4113  0.0946
 6191TIP3    H142768   2.900   0.342  -4.708 -1.1230  2.1384  3.7888
 6191TIP3    H242769   2.784   0.247  -4.691 -0.1650 -0.3635 -1.6345
 6192TIP3   OH242770   3.059  -2.635  -2.251  0.0826 -0.1800  0.5637
 6192TIP3    H142771   3.024  -2.623  -2.339 -0.8190 -0.0506  0.9311
 6192TIP3    H242772   3.076  -2.729  -2.245  2.4040  0.0859 -0.5514
 6193TIP3   OH242773   2.804  -3.144  -3.434 -0.1150 -0.4588 -0.1234
 6193TIP3    H142774   2.812  -3.177  -3.524 -0.3152  2.2353 -1.2404
 6193TIP3    H242775   2.819  -3.049  -3.443  0.3261 -0.1781  2.7814
 6194TIP3   OH242776  -2.920   0.215  -2.879 -0.4952 -0.0803 -0.3658
 6194TIP3    H142777  -2.949   0.207  -2.970 -0.8484 -0.1477 -0.2486
 6194TIP3    H242778  -2.977   0.155  -2.830  1.0325 -1.6518 -0.3868
 6195TIP3   OH242779   1.616   0.672  -4.730  0.5310  0.2452 -0.1658
 6195TIP3    H142780   1.638   0.736  -4.798  1.4572  0.7419  0.5778
 6195TIP3    H242781   1.697   0.663  -4.679 -0.0629 -0.3386  0.6919
 6196TIP3   OH242782  -0.479   3.126  -4.061  0.1996 -0.1712  0.3592
 6196TIP3    H142783  -0.497   3.160  -4.148  1.3664  0.4264  0.3399
 6196TIP3    H242784  -0.566   3.109  -4.024 -0.4759  2.7233  0.3169
 6197TIP3   OH242785   1.346   2.264  -3.754 -0.3558  0.2411  0.1203
 6197TIP3    H142786   1.353   2.241  -3.847 -0.1599  0.3557  0.1074
 6197TIP3    H242787   1.386   2.351  -3.748  0.9829 -0.3778  0.5676
 6198TIP3   OH242788   3.310  -1.506  -5.285 -0.3747 -0.0597  0.0170
 6198TIP3    H142789   3.336  -1.476  -5.198  0.8542  1.2198 -0.7607
 6198TIP3    H242790   3.296  -1.600  -5.274  1.4233 -0.2312  1.2252
 6199TIP3   OH242791  -2.225  -1.354  -3.414 -0.6690  0.1078  0.6596
 6199TIP3    H142792  -2.301  -1.298  -3.429 -0.9475  0.2171  2.2987
 6199TIP3    H242793  -2.181  -1.314  -3.339  0.7954 -0.1840 -0.0119
 6200TIP3   OH242794  -2.505   1.013  -4.019 -0.1718 -0.0647 -0.5547
 6200TIP3    H142795  -2.464   1.009  -3.933 -0.6522  1.4135 -0.2147
 6200TIP3    H242796  -2.579   1.073  -4.007 -0.9729 -0.7906 -1.7171
 6201TIP3   OH242797  -2.334  -0.208  -2.373 -0.0572 -0.2287 -0.6382
 6201TIP3    H142798  -2.284  -0.289  -2.363 -0.0630 -0.2344 -0.6558
 6201TIP3    H242799  -2.281  -0.155  -2.432  1.3552  0.9158  1.4940
 6202TIP3   OH242800  -3.296  -2.792  -3.988  0.5238 -0.8314  0.1761
 6202TIP3    H142801  -3.292  -2.817  -4.080 -2.2077 -0.7688 -0.0302
 6202TIP3    H242802  -3.356  -2.855  -3.948 -0.1423  0.5240  1.3997
 6203TIP3   OH242803   1.373   0.489  -3.392 -0.4103  0.3990  0.5545
 6203TIP3    H142804   1.347   0.528  -3.309 -0.3217 -0.2514  0.8941
 6203TIP3    H242805   1.293   0.450  -3.427 -0.3816  0.3952  0.4925
 6204TIP3   OH242806   0.166  -2.515  -2.743 -0.1090  0.7848 -0.2662
 6204TIP3    H142807   0.135  -2.502  -2.653 -1.3265  2.2657 -0.8534
 6204TIP3    H242808   0.260  -2.497  -2.738 -0.0230  0.1470  0.8223
 6205TIP3   OH242809  -2.232  -2.945  -2.448 -0.3422  0.1993  0.3845
 6205TIP3    H142810  -2.319  -2.907  -2.459 -0.6847 -0.5373  0.4994
 6205TIP3    H242811  -2.208  -2.925  -2.358 -1.1723 -1.1312  0.9415
 6206TIP3   OH242812  -1.086  -2.560  -5.366 -0.0992  0.3703  0.3872
 6206TIP3    H142813  -1.006  -2.516  -5.337  1.5369 -0.9742 -1.7418
 6206TIP3    H242814  -1.104  -2.523  -5.453 -1.4655  0.2201  0.5805
 6207TIP3   OH242815  -1.216  -3.179  -4.292  0.4132 -0.2262 -0.1966
 6207TIP3    H142816  -1.176  -3.106  -4.245  2.0292 -0.1374 -1.6378
 6207TIP3    H242817  -1.190  -3.166  -4.383 -1.8960 -0.8833 -1.0113
 6208TIP3   OH242818   1.037  -0.951  -2.436  0.2519 -0.7856  0.0451
 6208TIP3    H142819   1.114  -0.916  -2.390  0.0811 -0.4637  0.0927
 6208TIP3    H242820   1.018  -0.885  -2.502  0.6056 -1.3308 -0.6132
 6209TIP3   OH242821   1.950  -2.423  -3.511 -0.4593 -0.5017 -0.3688
 6209TIP3    H142822   1.972  -2.491  -3.575  2.1657  0.5825 -0.7367
 6209TIP3    H242823   1.976  -2.461  -3.427 -1.5378 -0.9571 -0.2291
 6210TIP3   OH242824   0.094   1.797  -3.290  0.2924  0.5922  0.1410
 6210TIP3    H142825   0.128   1.711  -3.314  1.2202  1.5434 -2.3089
 6210TIP3    H242826   0.138   1.819  -3.208 -0.0062 -1.2290  0.8403
 6211TIP3   OH242827   0.661   1.611  -2.639 -0.4913  0.3231  1.4298
 6211TIP3    H142828   0.580   1.656  -2.663 -0.0613 -0.0813 -0.9936
 6211TIP3    H242829   0.730   1.676  -2.654  0.0640 -0.7801 -1.4048
 6212TIP3   OH242830  -2.848   0.093  -4.177 -0.0519  0.1095  0.4344
 6212TIP3    H142831  -2.805   0.092  -4.092 -0.2397 -0.6420  0.5274
 6212TIP3    H242832  -2.776   0.098  -4.240  0.2053 -1.1941  0.5855
 6213TIP3   OH242833   3.038   0.237  -2.979 -0.4220  0.5563  0.4210
 6213TIP3    H142834   3.115   0.243  -3.035  1.7462 -1.0567  2.9885
 6213TIP3    H242835   3.064   0.277  -2.896 -2.0016 -0.8193  1.6747
 6214TIP3   OH242836   1.638   1.283  -3.700 -0.3736  0.5077 -0.2977
 6214TIP3    H142837   1.566   1.346  -3.692 -0.5702  0.1746  0.8019
 6214TIP3    H242838   1.707   1.331  -3.745 -1.3340  0.7820 -1.5238
 6215TIP3   OH242839  -2.606   1.970  -2.498 -0.5511 -0.2202  0.2844
 6215TIP3    H142840  -2.640   2.059  -2.512 -0.5601 -0.2360  0.2033
 6215TIP3    H242841  -2.656   1.936  -2.424 -0.5973 -0.1826  0.2709
 6216TIP3   OH242842  -1.612   0.586  -2.645  0.3395 -0.2092 -0.1407
 6216TIP3    H142843  -1.556   0.637  -2.586 -0.5771  0.8639 -0.1795
 6216TIP3    H242844  -1.616   0.639  -2.725  0.3341 -0.9235 -0.6195
 6217TIP3   OH242845  -2.365  -1.192  -4.206 -0.2727  0.3400 -0.0150
 6217TIP3    H142846  -2.425  -1.140  -4.259 -0.8078 -0.4848 -0.2298
 6217TIP3    H242847  -2.422  -1.237  -4.143  0.1346 -0.3012 -0.0998
 6218TIP3   OH242848  -1.541   1.242  -2.381 -0.0800  0.3792 -0.2017
 6218TIP3    H142849  -1.538   1.168  -2.321  0.9213  0.6452  0.1149
 6218TIP3    H242850  -1.450   1.253  -2.409 -0.2993  1.1638 -0.6362
 6219TIP3   OH242851  -2.314   1.698  -4.042  0.3594  0.1184  0.2937
 6219TIP3    H142852  -2.361   1.716  -4.124  0.4177 -2.1867 -0.3011
 6219TIP3    H242853  -2.224   1.722  -4.061  0.4710 -0.8826 -0.5290
 6220TIP3   OH242854  -0.894   2.303  -2.976  0.2239 -0.0740 -0.1552
 6220TIP3    H142855  -0.846   2.223  -2.956 -1.3036 -0.7577  0.9493
 6220TIP3    H242856  -0.973   2.298  -2.923 -1.4449  0.6721 -2.4192
 6221TIP3   OH242857  -2.343  -1.696  -3.354  0.0131 -0.3049 -0.0155
 6221TIP3    H142858  -2.327  -1.769  -3.295 -0.1869 -0.6513 -0.3830
 6221TIP3    H242859  -2.388  -1.631  -3.300 -0.0922 -0.5825  0.2328
 6222TIP3   OH242860   1.635   2.665  -3.723  0.3078  0.2162  0.3714
 6222TIP3    H142861   1.577   2.601  -3.683  1.9945 -1.4751  0.2702
 6222TIP3    H242862   1.719   2.620  -3.730  2.0535  2.9678  1.7854
 6223TIP3   OH242863  -0.535  -1.067  -5.376  0.5417  0.6962  0.0860
 6223TIP3    H142864  -0.616  -1.102  -5.339  0.8911  0.9724  1.1569
 6223TIP3    H242865  -0.538  -1.092  -5.468 -0.6166  0.4407  0.1725
 6224TIP3   OH242866   1.512   0.874  -3.994  0.7314 -0.5364  1.1089
 6224TIP3    H142867   1.500   0.944  -4.057 -0.9447 -1.6731  0.0572
 6224TIP3    H242868   1.564   0.808  -4.041  0.0841 -1.0779  1.1259
 6225TIP3   OH242869   1.768   2.456  -4.673 -0.0429 -0.3909  0.4303
 6225TIP3    H142870   1.709   2.514  -4.625  0.0682  0.4344 -0.4107
 6225TIP3    H242871   1.714   2.421  -4.744  0.2609 -0.2523  0.1307
 6226TIP3   OH242872  -0.991  -1.867  -4.092 -0.1532 -0.2569 -0.3429
 6226TIP3    H142873  -0.941  -1.865  -4.011 -2.1512 -0.2232  0.9676
 6226TIP3    H242874  -1.064  -1.926  -4.074 -1.7966  1.3378 -1.3617
 6227TIP3   OH242875   2.113   1.207  -4.782 -0.4658 -0.4171  0.0496
 6227TIP3    H142876   2.110   1.262  -4.860 -1.0024 -1.3116 -0.5680
 6227TIP3    H242877   2.206   1.191  -4.768 -0.2145  1.3882  0.7889
 6228TIP3   OH242878  -2.784   0.514  -5.084 -0.4059 -0.7562 -0.7137
 6228TIP3    H142879  -2.876   0.493  -5.099 -0.3875 -1.1519 -0.3067
 6228TIP3    H242880  -2.775   0.606  -5.112 -1.1508 -0.4072  0.1397
 6229TIP3   OH242881  -3.126   0.409  -3.059 -0.2315  0.0248  0.5262
 6229TIP3    H142882  -3.152   0.458  -3.137  0.0772 -2.0347 -0.9469
 6229TIP3    H242883  -3.087   0.328  -3.093 -0.1012 -0.9537  2.8281
 6230TIP3   OH242884  -1.396  -2.931  -3.600 -0.2376  0.3025 -0.5491
 6230TIP3    H142885  -1.348  -2.921  -3.518 -2.0714 -1.0695  0.7800
 6230TIP3    H242886  -1.333  -2.968  -3.661  0.6679 -0.5284  0.8414
 6231TIP3   OH242887  -1.105  -1.074  -5.603 -0.1165 -0.3527 -0.5724
 6231TIP3    H142888  -1.072  -1.135  -5.669  1.3479 -0.8866  0.5855
 6231TIP3    H242889  -1.187  -1.114  -5.572  0.8861 -1.8768  0.2744
 6232TIP3   OH242890  -1.098  -2.003  -2.463 -0.2492 -0.2711 -0.2070
 6232TIP3    H142891  -1.010  -1.967  -2.473 -0.1059 -0.0350  1.5673
 6232TIP3    H242892  -1.156  -1.927  -2.459 -0.1824 -0.2670  1.4522
 6233TIP3   OH242893   1.973  -0.545  -4.831  0.2045 -0.0610  0.0860
 6233TIP3    H142894   1.934  -0.460  -4.850 -0.2352  0.3311  2.4449
 6233TIP3    H242895   2.050  -0.550  -4.888 -0.1113  1.6374 -0.5265
 6234TIP3   OH242896   1.350   1.726  -5.400 -0.1332  0.3376  0.5941
 6234TIP3    H142897   1.423   1.673  -5.434 -0.2477 -0.0220  0.9066
 6234TIP3    H242898   1.309   1.763  -5.478 -0.5600 -0.7008  0.3179
 6235TIP3   OH242899  -0.907   0.499  -4.397  0.4049 -0.3392  0.4107
 6235TIP3    H142900  -1.000   0.496  -4.420  0.7441 -1.5003 -0.9666
 6235TIP3    H242901  -0.894   0.423  -4.342  0.5491 -0.1608  0.6248
 6236TIP3   OH242902  -0.410  -2.255  -4.795 -0.0279 -0.2497  1.0790
 6236TIP3    H142903  -0.390  -2.292  -4.709  1.5138  0.3374  1.0063
 6236TIP3    H242904  -0.437  -2.330  -4.848  0.8362 -0.9269  1.5628
 6237TIP3   OH242905   0.605   1.487  -4.313  0.0074 -0.1770  1.0778
 6237TIP3    H142906   0.578   1.410  -4.363  0.0357  1.6051 -1.9592
 6237TIP3    H242907   0.701   1.486  -4.318 -0.0154  0.3584  0.5181
 6238TIP3   OH242908   1.341  -3.166  -2.392 -0.0437  0.0108  0.0837
 6238TIP3    H142909   1.346  -3.251  -2.350  1.7307 -1.0174 -1.9793
 6238TIP3    H242910   1.397  -3.174  -2.470  0.4451  3.1458 -0.0537
 6239TIP3   OH242911   1.202  -1.338  -4.310  0.0750  0.2217 -0.1040
 6239TIP3    H142912   1.107  -1.332  -4.299  0.1873  0.1610  1.0582
 6239TIP3    H242913   1.231  -1.387  -4.233  0.7266 -2.5532 -1.9737
 6240TIP3   OH242914   2.992   1.331  -3.124 -0.1799 -0.2562  0.0185
 6240TIP3    H142915   2.964   1.402  -3.066 -1.7889 -0.2325 -0.7406
 6240TIP3    H242916   3.059   1.285  -3.074 -1.5529 -0.2793  1.9673
 6241TIP3   OH242917  -0.235  -1.400  -3.322  0.1365  0.0228 -0.1361
 6241TIP3    H142918  -0.229  -1.377  -3.415  0.9891 -0.8192 -0.3051
 6241TIP3    H242919  -0.158  -1.455  -3.306  0.8479  1.3801  1.4348
 6242TIP3   OH242920  -0.933  -2.096  -2.165 -0.1426 -0.0371  0.2546
 6242TIP3    H142921  -0.899  -2.009  -2.144  0.5496 -0.7750  2.5772
 6242TIP3    H242922  -0.912  -2.109  -2.257 -0.5428  2.3442 -0.2447
 6243TIP3   OH242923   0.025  -2.066  -5.823  0.1206  0.6925 -0.6554
 6243TIP3    H142924  -0.034  -2.134  -5.791  1.3453 -0.1399 -0.1010
 6243TIP3    H242925   0.047  -2.094  -5.912  0.3146  0.5769 -0.5705
 6244TIP3   OH242926   1.963  -3.028  -2.312 -0.5765 -0.3328  0.1546
 6244TIP3    H142927   2.005  -2.943  -2.299  2.2615 -1.7191  0.9065
 6244TIP3    H242928   2.028  -3.080  -2.359 -1.8361 -2.3771  0.5442
 6245TIP3   OH242929   1.664  -0.370  -4.186  0.0097  0.1092  0.4222
 6245TIP3    H142930   1.695  -0.353  -4.275 -1.7019 -0.7935 -0.3838
 6245TIP3    H242931   1.667  -0.465  -4.177  0.7872  0.2203  1.5945
 6246TIP3   OH242932  -2.208   0.631  -2.717 -0.1263 -0.5009 -0.0737
 6246TIP3    H142933  -2.204   0.709  -2.662  1.2229 -1.0245  0.6206
 6246TIP3    H242934  -2.201   0.558  -2.655 -0.5485 -1.1570 -0.7859
 6247TIP3   OH242935  -1.875  -0.704  -4.548  0.1621  0.1213  0.1234
 6247TIP3    H142936  -1.854  -0.778  -4.491  0.2196  0.0580  0.0202
 6247TIP3    H242937  -1.810  -0.638  -4.527  0.6516 -0.1819 -0.4042
 6248TIP3   OH242938  -1.524  -1.295  -4.117 -0.6042 -0.3089 -0.1494
 6248TIP3    H142939  -1.599  -1.262  -4.068 -0.4288 -0.5784  0.2997
 6248TIP3    H242940  -1.510  -1.230  -4.185  0.3719  1.0801  1.3265
 6249TIP3   OH242941   1.507   2.567  -4.511  0.7386  0.4364 -0.0129
 6249TIP3    H142942   1.537   2.614  -4.433  1.9769  1.1764 -0.8788
 6249TIP3    H242943   1.450   2.629  -4.555 -0.4911 -0.2255  0.6147
 6250TIP3   OH242944  -3.335  -0.117  -4.078 -0.1588  0.2766 -0.1633
 6250TIP3    H142945  -3.259  -0.091  -4.027  0.0180 -0.1096 -0.2262
 6250TIP3    H242946  -3.325  -0.212  -4.090 -1.5496 -0.1176  1.3451
 6251TIP3   OH242947  -2.658  -0.807  -4.658 -0.3987 -0.3761 -0.1849
 6251TIP3    H142948  -2.569  -0.840  -4.673 -1.8043 -4.2369 -1.2629
 6251TIP3    H242949  -2.697  -0.801  -4.745 -1.5850 -0.0043  0.3473
 6252TIP3   OH242950  -1.630   0.926  -2.519 -0.3502  0.1419 -0.0069
 6252TIP3    H142951  -1.714   0.895  -2.486  0.4382 -3.3694 -0.8633
 6252TIP3    H242952  -1.651   1.001  -2.574 -2.7741 -0.0343  0.5761
 6253TIP3   OH242953   0.851  -2.862  -3.709 -0.4885 -0.3830 -0.1189
 6253TIP3    H142954   0.857  -2.832  -3.619  1.8472 -1.0901  0.0270
 6253TIP3    H242955   0.828  -2.783  -3.759  1.4938  0.8351  0.7331
 6254TIP3   OH242956  -2.602   2.711  -3.368 -0.5902  0.0143  0.0471
 6254TIP3    H142957  -2.570   2.709  -3.278  1.8311  0.4502 -0.7335
 6254TIP3    H242958  -2.681   2.764  -3.364  0.2090  1.1693  1.7103
 6255TIP3   OH242959   0.143   0.890  -3.686  0.1121  0.4058  0.7033
 6255TIP3    H142960   0.101   0.808  -3.711 -1.4574  0.9728  1.3385
 6255TIP3    H242961   0.088   0.958  -3.724  2.1274  1.2068 -0.9729
 6256TIP3   OH242962   2.050   3.338  -5.108 -0.4059 -0.2447 -0.4529
 6256TIP3    H142963   2.073   3.307  -5.196  1.7103  1.2198 -0.5078
 6256TIP3    H242964   2.102   3.283  -5.049  0.3526  0.5708 -0.3300
 6257TIP3   OH242965  -1.586   2.652  -4.037  0.1420 -0.3687 -0.4847
 6257TIP3    H142966  -1.565   2.582  -4.099 -1.6087  0.5168 -2.1793
 6257TIP3    H242967  -1.501   2.680  -4.004  1.0563 -1.7216 -1.5479
 6258TIP3   OH242968   0.669   2.355  -4.274  0.0238  0.4117  0.2185
 6258TIP3    H142969   0.762   2.376  -4.281  0.4595 -1.7168 -1.7055
 6258TIP3    H242970   0.638   2.408  -4.201  3.0482  0.2030  1.8443
 6259TIP3   OH242971  -1.893  -2.273  -5.799 -0.2530  0.4902  0.2185
 6259TIP3    H142972  -1.818  -2.217  -5.819 -0.9071  1.5392  0.6364
 6259TIP3    H242973  -1.970  -2.219  -5.817 -0.9174 -0.4337  0.1721
 6260TIP3   OH242974   1.987   1.865  -4.498 -0.5782 -0.1458 -0.2138
 6260TIP3    H142975   2.015   1.944  -4.546 -0.6014 -1.0201 -1.7475
 6260TIP3    H242976   1.966   1.896  -4.410  2.5354  1.0312  0.2328
 6261TIP3   OH242977  -0.286  -0.430  -2.421  0.2663 -0.1698  0.0903
 6261TIP3    H142978  -0.198  -0.468  -2.413  0.9911  0.9617 -1.6862
 6261TIP3    H242979  -0.270  -0.343  -2.459 -1.6043  0.1939  0.0800
 6262TIP3   OH242980   0.369   3.242  -3.472 -0.1274 -0.8164 -0.3933
 6262TIP3    H142981   0.280   3.231  -3.439 -1.0466  0.3115 -2.3646
 6262TIP3    H242982   0.419   3.172  -3.430 -1.8173 -1.1627  1.1322
 6263TIP3   OH242983   2.838   0.173  -5.559  0.0631 -0.1177  0.4452
 6263TIP3    H142984   2.921   0.128  -5.543  0.2341 -0.5075 -1.2742
 6263TIP3    H242985   2.777   0.134  -5.497  0.7877 -1.0234  0.6071
 6264TIP3   OH242986   1.488  -0.932  -5.151  0.0776  0.0234  0.1651
 6264TIP3    H142987   1.398  -0.937  -5.184  0.6473 -3.0902 -1.2815
 6264TIP3    H242988   1.500  -1.013  -5.102  2.3421 -0.0760 -0.4308
 6265TIP3   OH242989  -2.753  -0.132  -3.932  0.2054  0.4332 -0.1709
 6265TIP3    H142990  -2.727  -0.046  -3.899 -0.7296  1.3797 -1.7544
 6265TIP3    H242991  -2.819  -0.163  -3.870  1.0427  0.5270  0.7878
 6266TIP3   OH242992  -0.761   2.025  -5.111 -0.4266  0.9309  0.3411
 6266TIP3    H142993  -0.835   2.026  -5.050  0.4250  0.3275  1.4371
 6266TIP3    H242994  -0.712   1.947  -5.086  0.9408  1.6890  0.0821
 6267TIP3   OH242995   1.283  -2.172  -5.044 -0.3490  0.5384 -0.4748
 6267TIP3    H142996   1.238  -2.094  -5.077  0.4765  0.1314 -2.6973
 6267TIP3    H242997   1.260  -2.241  -5.107  0.9492 -0.3984  0.0465
 6268TIP3   OH242998   3.048   2.423  -3.681  0.6398  0.2690  0.1135
 6268TIP3    H142999   3.114   2.374  -3.731  0.6088 -0.2841  0.5988
 6268TIP3    H243000   3.006   2.480  -3.745  0.9311 -0.0764 -0.3894
 6269TIP3   OH243001   0.808   2.880  -3.800  0.1671 -0.1257  0.1043
 6269TIP3    H143002   0.897   2.913  -3.797  0.0925  0.0756  0.0749
 6269TIP3    H243003   0.815   2.791  -3.765  0.7391 -0.9146 -1.8571
 6270TIP3   OH243004   1.285  -1.039  -5.806 -0.3216  0.3697  0.3321
 6270TIP3    H143005   1.351  -1.095  -5.848 -1.0356 -0.4058  0.2309
 6270TIP3    H243006   1.336  -0.977  -5.754  0.4442 -1.4533  1.8435
 6271TIP3   OH243007   0.103   1.468  -3.263  0.1227  0.0874  0.1967
 6271TIP3    H143008   0.061   1.532  -3.206  0.7675  1.1338 -0.4646
 6271TIP3    H243009   0.197   1.481  -3.248  0.2620 -0.8930  0.2435
 6272TIP3   OH243010  -2.419   3.239  -5.567 -0.1359  0.4269  0.3435
 6272TIP3    H143011  -2.340   3.274  -5.608 -0.0998  0.1461  0.1739
 6272TIP3    H243012  -2.407   3.257  -5.473  0.5439 -0.4121  0.4330
 6273TIP3   OH243013   1.463   1.305  -5.001 -0.5291  0.4422 -0.1077
 6273TIP3    H143014   1.473   1.325  -5.094  0.4547  0.8051  0.0589
 6273TIP3    H243015   1.373   1.330  -4.981 -1.4359 -1.5609 -1.4078
 6274TIP3   OH243016   2.206   2.242  -5.752  0.9562 -0.2495 -0.5045
 6274TIP3    H143017   2.257   2.239  -5.671 -1.4833 -1.1902  1.1108
 6274TIP3    H243018   2.192   2.150  -5.776 -1.8554 -0.1581  0.4500
 6275TIP3   OH243019  -1.036  -1.530  -3.687  0.0686 -1.0394 -0.1626
 6275TIP3    H143020  -1.085  -1.583  -3.751 -0.0706 -1.7329  0.5013
 6275TIP3    H243021  -0.944  -1.544  -3.710  0.0278 -1.4654 -0.0859
 6276TIP3   OH243022  -0.611  -1.790  -2.457  0.2700 -0.0826  0.0058
 6276TIP3    H143023  -0.559  -1.870  -2.455  0.4656  0.0447  0.0338
 6276TIP3    H243024  -0.548  -1.720  -2.441 -0.2617 -0.0898  2.5075
 6277TIP3   OH243025  -2.429   2.959  -5.330  0.6101  0.5314 -0.2509
 6277TIP3    H143026  -2.363   2.946  -5.398  2.4828  0.1098  1.5477
 6277TIP3    H243027  -2.385   3.013  -5.264 -0.7453 -0.0098  1.1596
 6278TIP3   OH243028   0.399  -0.044  -4.931  0.1745  0.5642  0.1471
 6278TIP3    H143029   0.414   0.050  -4.922  1.5603  0.4175 -0.3640
 6278TIP3    H243030   0.320  -0.061  -4.879 -1.1097  2.2781 -1.1558
 6279TIP3   OH243031   0.358   1.595  -3.337 -0.0001  0.1389 -0.2541
 6279TIP3    H143032   0.449   1.598  -3.367 -0.2662 -1.4969 -1.3454
 6279TIP3    H243033   0.365   1.588  -3.242  0.8852  3.9029  0.1122
 6280TIP3   OH243034   2.581  -0.649  -4.011 -0.0035 -0.2759  0.4036
 6280TIP3    H143035   2.623  -0.575  -3.968  0.3517 -0.6322  0.6745
 6280TIP3    H243036   2.619  -0.652  -4.099 -0.3932  0.1704  0.2157
 6281TIP3   OH243037   0.525   2.285  -4.850  0.0986 -0.3045  0.0471
 6281TIP3    H143038   0.595   2.257  -4.909 -0.6806 -0.0280 -1.0203
 6281TIP3    H243039   0.521   2.216  -4.783  2.8156  0.6874  1.3961
 6282TIP3   OH243040   2.471   0.643  -4.804 -0.7289  0.1455 -0.7692
 6282TIP3    H143041   2.458   0.721  -4.859 -0.6857  0.1992 -0.7035
 6282TIP3    H243042   2.566   0.642  -4.787 -0.8760  0.7140  0.1721
 6283TIP3   OH243043  -1.655  -1.863  -2.130 -0.4212  0.3785 -0.3027
 6283TIP3    H143044  -1.669  -1.771  -2.107 -0.1334  0.1782  0.7133
 6283TIP3    H243045  -1.683  -1.870  -2.221  0.1027  1.6050 -0.5747
 6284TIP3   OH243046  -3.046   2.504  -4.998 -0.1726 -0.1001  0.0503
 6284TIP3    H143047  -3.037   2.408  -5.002 -0.0817 -0.1053 -3.6303
 6284TIP3    H243048  -3.047   2.531  -5.090  3.3312  3.7959  0.8686
 6285TIP3   OH243049  -3.187   2.679  -5.418 -0.4028  0.4709  0.6685
 6285TIP3    H143050  -3.133   2.648  -5.491 -0.0215 -0.8677  1.4894
 6285TIP3    H243051  -3.193   2.773  -5.432  0.2568  0.3390 -0.6973
 6286TIP3   OH243052   1.014  -2.892  -3.987  0.0665  0.5161  0.4309
 6286TIP3    H143053   1.105  -2.918  -3.997  0.7313  2.4975  0.8415
 6286TIP3    H243054   0.965  -2.974  -3.987  1.7089 -0.5234 -1.0330
 6287TIP3   OH243055  -1.783   2.115  -3.655 -0.0918  0.3084  0.0486
 6287TIP3    H143056  -1.829   2.033  -3.671  0.4430 -0.2366  1.1930
 6287TIP3    H243057  -1.837   2.182  -3.697 -0.3219 -0.6622 -1.2620
 6288TIP3   OH243058   2.112  -2.844  -3.820  0.1823 -0.0895  0.2472
 6288TIP3    H143059   2.129  -2.854  -3.914 -0.3570 -1.4715  0.2750
 6288TIP3    H243060   2.038  -2.902  -3.803 -1.0220  1.6477  1.1592
 6289TIP3   OH243061   0.792   0.494  -3.253 -0.1141  0.8111  0.7462
 6289TIP3    H143062   0.852   0.494  -3.179 -0.5441  3.0520  1.1699
 6289TIP3    H243063   0.726   0.429  -3.230  0.7870  0.0994  1.4174
 6290TIP3   OH243064   3.134   2.708  -5.733 -0.1253  0.0173 -0.4135
 6290TIP3    H143065   3.203   2.656  -5.773  0.7431 -2.3126  3.5204
 6290TIP3    H243066   3.181   2.770  -5.677 -1.1997  0.2071  0.3021
 6291TIP3   OH243067  -0.377   1.019  -4.210  0.2117 -0.6356 -0.0729
 6291TIP3    H143068  -0.327   1.021  -4.292  0.5275  1.8322  0.1239
 6291TIP3    H243069  -0.449   0.959  -4.228  0.1631  0.0055 -2.2365
 6292TIP3   OH243070   1.835   0.638  -4.534  0.4331 -0.0721 -0.2495
 6292TIP3    H143071   1.923   0.655  -4.499  0.0336 -0.3022  0.9011
 6292TIP3    H243072   1.824   0.543  -4.526 -0.3505  0.0892  0.6658
 6293TIP3   OH243073  -1.352   2.090  -2.981  0.7052  0.0104  0.6934
 6293TIP3    H143074  -1.438   2.064  -3.015  1.7298 -3.7495  0.4758
 6293TIP3    H243075  -1.371   2.126  -2.894 -1.1693  0.2793  0.2164
 6294TIP3   OH243076  -2.060  -0.813  -4.208 -0.1940  0.3704 -0.5309
 6294TIP3    H143077  -2.099  -0.836  -4.292  0.6588 -2.1020 -0.3380
 6294TIP3    H243078  -2.127  -0.833  -4.143 -0.0061 -0.1504 -0.4842
 6295TIP3   OH243079   0.838  -1.970  -5.385 -0.0429  0.3800 -0.2284
 6295TIP3    H143080   0.765  -1.927  -5.429  1.5107  1.4306 -1.9052
 6295TIP3    H243081   0.823  -2.064  -5.399 -0.4150  0.6323 -1.6371
 6296TIP3   OH243082   1.223   2.248  -4.237 -0.5368  0.0468  0.1903
 6296TIP3    H143083   1.174   2.304  -4.298  1.2763  1.0623 -0.3976
 6296TIP3    H243084   1.314   2.278  -4.245  0.4354 -2.6739  0.2142
 6297TIP3   OH243085   0.261   0.628  -4.048 -0.1124  0.5495  0.4016
 6297TIP3    H143086   0.274   0.559  -3.982 -0.2151 -0.2403 -0.3893
 6297TIP3    H243087   0.278   0.710  -4.001 -1.1090  0.0675  1.6723
 6298TIP3   OH243088  -3.186   2.927  -5.685  0.0112  0.2180 -0.8829
 6298TIP3    H143089  -3.125   2.855  -5.705 -0.3534  0.0638 -1.4488
 6298TIP3    H243090  -3.129   3.000  -5.661  0.4920  0.4487 -2.5845
 6299TIP3   OH243091  -3.091  -0.618  -5.078  0.0087 -0.1022  0.1121
 6299TIP3    H143092  -3.090  -0.570  -4.995  0.2689 -0.8217  0.5370
 6299TIP3    H243093  -3.067  -0.707  -5.054  0.0843 -0.3205 -0.7421
 6300TIP3   OH243094   2.737   0.681  -3.554 -0.0132 -0.2024 -0.4491
 6300TIP3    H143095   2.741   0.771  -3.585 -0.1738 -0.3618 -0.9428
 6300TIP3    H243096   2.725   0.629  -3.633  2.8022 -0.8984 -0.5469
 6301TIP3   OH243097  -1.588  -0.202  -5.493  0.4136  0.2260  0.3761
 6301TIP3    H143098  -1.665  -0.247  -5.527  0.3560  0.7329 -0.2018
 6301TIP3    H243099  -1.546  -0.265  -5.436  0.7442 -0.8339 -0.9761
 6302TIP3   OH243100  -1.045   3.373  -3.820  0.0517  0.5104 -0.6201
 6302TIP3    H143101  -0.997   3.329  -3.749  1.4757  0.0219 -1.8447
 6302TIP3    H243102  -1.115   3.420  -3.775  0.4332 -0.4113  1.0451
 6303TIP3   OH243103   1.061  -1.601  -4.181  0.3360 -0.7432  0.3502
 6303TIP3    H143104   1.145  -1.622  -4.140 -0.0588 -1.8178  0.6223
 6303TIP3    H243105   1.039  -1.677  -4.233  0.0201 -0.0458 -0.5628
 6304TIP3   OH243106   2.082   0.366  -4.650  0.3003 -0.5846  0.0310
 6304TIP3    H143107   2.124   0.450  -4.633  0.2948 -0.7481  0.9519
 6304TIP3    H243108   2.019   0.384  -4.720  0.6227  0.0694 -0.0963
 6305TIP3   OH243109  -1.978  -2.779  -5.436  0.1568 -0.5567  0.2150
 6305TIP3    H143110  -2.059  -2.775  -5.486  2.3366  1.0423 -3.5768
 6305TIP3    H243111  -1.979  -2.701  -5.381  0.2502  1.0676 -1.9477
 6306TIP3   OH243112  -2.618  -0.411  -5.570  0.1573 -0.0976 -0.4009
 6306TIP3    H143113  -2.582  -0.322  -5.574 -0.6782  0.3119  0.4809
 6306TIP3    H243114  -2.575  -0.450  -5.494 -0.6785  0.1445  0.2167
 6307TIP3   OH243115  -0.765  -0.226  -3.075  0.1060  0.4684  0.5210
 6307TIP3    H143116  -0.821  -0.266  -3.009  0.5096  1.2862  1.3813
 6307TIP3    H243117  -0.823  -0.169  -3.125 -0.2204 -0.2271  0.0940
 6308TIP3   OH243118  -1.585  -0.390  -3.874  0.1235 -0.5326  0.1970
 6308TIP3    H143119  -1.675  -0.423  -3.879  0.0088 -0.0281 -3.1316
 6308TIP3    H243120  -1.535  -0.463  -3.838 -1.4613 -1.0376  1.5228
 6309TIP3   OH243121   2.729   3.154  -1.928  0.1423 -0.1935  0.6489
 6309TIP3    H143122   2.806   3.211  -1.928  0.2172 -0.1811 -1.8340
 6309TIP3    H243123   2.762   3.068  -1.902  1.3966 -0.5566 -1.8419
 6310TIP3   OH243124   2.423  -2.152  -2.796 -0.6576  0.0643 -0.8368
 6310TIP3    H143125   2.473  -2.153  -2.878 -0.3134  2.0800 -0.6807
 6310TIP3    H243126   2.390  -2.242  -2.788  0.4671 -0.5406 -2.4550
 6311TIP3   OH243127   1.403   1.351  -5.270  0.6045  0.6185  0.0918
 6311TIP3    H143128   1.315   1.383  -5.286  0.7308  0.1224 -1.9404
 6311TIP3    H243129   1.399   1.257  -5.291  1.6266  0.6290 -0.2498
 6312TIP3   OH243130  -2.888  -3.009  -4.191  0.4333 -0.2700  0.2632
 6312TIP3    H143131  -2.892  -3.075  -4.122  1.8899 -0.6438  0.0226
 6312TIP3    H243132  -2.926  -2.931  -4.151 -0.8823 -1.0907  0.7034
 6313TIP3   OH243133   2.853  -1.680  -5.725 -0.2211  0.1607  0.2103
 6313TIP3    H143134   2.882  -1.602  -5.677  2.0461 -1.3346  1.4173
 6313TIP3    H243135   2.767  -1.700  -5.688 -1.2420  2.4743 -0.6885
 6314TIP3   OH243136   2.088  -3.301  -3.315 -0.1501  0.7062  0.0795
 6314TIP3    H143137   2.150  -3.358  -3.270 -1.3836  0.0067  0.9444
 6314TIP3    H243138   2.140  -3.224  -3.339  1.2749 -0.2766 -0.1071
 6315TIP3   OH243139   0.692  -2.552  -5.006 -0.1051 -0.4044 -0.2370
 6315TIP3    H143140   0.738  -2.476  -5.043  1.0238 -1.1458 -0.3800
 6315TIP3    H243141   0.606  -2.518  -4.982 -0.0149  0.6646 -1.3392
 6316TIP3   OH243142   2.609  -1.912  -5.691 -0.0673  0.4391 -0.2773
 6316TIP3    H143143   2.517  -1.939  -5.703  0.1894  0.1012 -1.7056
 6316TIP3    H243144   2.603  -1.820  -5.667 -0.7971  0.3364 -0.0182
 6317TIP3   OH243145  -1.909   2.084  -3.180  0.5545  0.3616  0.0130
 6317TIP3    H143146  -1.870   2.002  -3.211  1.1595  0.9671 -0.8667
 6317TIP3    H243147  -1.923   2.069  -3.086  0.5718 -0.7729 -0.1406
 6318TIP3   OH243148  -0.769  -2.038  -3.413 -0.7793  0.0548  0.0213
 6318TIP3    H143149  -0.748  -2.122  -3.453  1.0569  0.9309 -1.0247
 6318TIP3    H243150  -0.864  -2.035  -3.412 -0.8843 -1.7238 -0.5797
 6319TIP3   OH243151  -2.918  -1.034  -3.681 -0.4562 -0.0999  0.7203
 6319TIP3    H143152  -3.010  -1.041  -3.656 -0.2918 -1.4684  1.0518
 6319TIP3    H243153  -2.892  -1.124  -3.702  0.3827  0.4854 -0.9438
 6320TIP3   OH243154  -1.700   2.286  -2.728  0.6130 -0.3493 -0.1356
 6320TIP3    H143155  -1.741   2.301  -2.643  1.2326  0.3125  0.0612
 6320TIP3    H243156  -1.756   2.222  -2.771  1.3189 -2.1738  1.5365
 6321TIP3   OH243157   1.392  -0.793  -4.264 -0.2395  0.6881 -0.3694
 6321TIP3    H143158   1.391  -0.882  -4.299  0.3807  0.7540 -0.5702
 6321TIP3    H243159   1.412  -0.737  -4.339  1.4670  0.8025  0.1219
 6322TIP3   OH243160   1.550   1.109  -5.531  0.8299 -0.5956 -0.3737
 6322TIP3    H143161   1.538   1.094  -5.438  0.1278 -0.9184 -0.5112
 6322TIP3    H243162   1.630   1.162  -5.537  1.0624 -0.8559  0.3801
 6323TIP3   OH243163   2.201  -1.300  -2.795  0.8050 -0.4897  0.2258
 6323TIP3    H143164   2.213  -1.322  -2.702  1.4290 -0.1158  0.2402
 6323TIP3    H243165   2.106  -1.291  -2.805  0.7838  0.4904  1.0714
 6324TIP3   OH243166  -2.415   0.932  -3.748 -0.0865 -0.2185  0.5875
 6324TIP3    H143167  -2.453   0.845  -3.736 -1.3048 -0.0150 -1.3942
 6324TIP3    H243168  -2.481   0.992  -3.713 -0.6373  0.0114 -0.7521
 6325TIP3   OH243169  -2.792  -2.104  -5.542 -0.1538 -0.2379 -0.0617
 6325TIP3    H143170  -2.877  -2.140  -5.517 -1.4434  2.9554  0.5801
 6325TIP3    H243171  -2.802  -2.081  -5.635  0.4719 -0.9701 -0.3228
 6326TIP3   OH243172   1.849  -1.133  -2.130 -0.0684 -0.3532 -0.1460
 6326TIP3    H143173   1.817  -1.101  -2.214 -3.6001 -1.7841  0.4349
 6326TIP3    H243174   1.834  -1.228  -2.133 -0.3055 -0.4451  2.0473
 6327TIP3   OH243175   1.516  -2.095  -5.367 -0.1036 -0.2411 -0.1711
 6327TIP3    H143176   1.507  -2.159  -5.296 -1.0643  0.7655  0.6430
 6327TIP3    H243177   1.579  -2.031  -5.333  0.5276 -0.4971 -0.8168
 6328TIP3   OH243178   3.328   3.155  -3.176  0.1010  0.1653  0.3085
 6328TIP3    H143179   3.341   3.061  -3.161 -1.9660  0.0191  1.5362
 6328TIP3    H243180   3.249   3.159  -3.230 -1.6171  1.2373  2.7408
 6329TIP3   OH243181  -3.011   2.447  -3.927  0.2486  0.5246  0.3841
 6329TIP3    H143182  -3.043   2.536  -3.913  1.1637  0.8782  0.2664
 6329TIP3    H243183  -2.926   2.445  -3.884  0.8703  0.1334 -0.8394
 6330TIP3   OH243184   2.361   3.011  -2.069 -0.7874  0.0408  0.5017
 6330TIP3    H143185   2.357   2.921  -2.101 -0.1046 -0.3165  1.3675
 6330TIP3    H243186   2.269   3.035  -2.055 -0.9358 -0.9564  1.3970
 6331TIP3   OH243187  -2.080  -3.236  -4.428 -0.4054 -0.2945  0.0142
 6331TIP3    H143188  -2.034  -3.160  -4.464 -0.4979  0.2467  1.0026
 6331TIP3    H243189  -2.028  -3.311  -4.456  0.5361  0.2452  0.2650
 6332TIP3   OH243190  -2.020   1.139  -5.609  0.1729 -0.1769 -0.5443
 6332TIP3    H143191  -1.986   1.219  -5.569 -1.0101  0.0793 -0.0071
 6332TIP3    H243192  -1.952   1.073  -5.592  0.4709  0.3468  0.3595
 6333TIP3   OH243193   3.247  -2.015  -5.381 -0.1337 -0.0305 -0.3370
 6333TIP3    H143194   3.182  -2.031  -5.313  1.2008  1.1942  1.3063
 6333TIP3    H243195   3.299  -2.096  -5.383  0.3836  0.2467  0.8001
 6334TIP3   OH243196   0.517   2.801  -5.289  0.3892  0.2945  0.5980
 6334TIP3    H143197   0.545   2.749  -5.364 -0.1830  0.4285  0.2836
 6334TIP3    H243198   0.431   2.835  -5.314 -0.6560 -1.1367  2.0377
 6335TIP3   OH243199   0.269   2.982  -3.187 -0.1067  1.3526  0.0351
 6335TIP3    H143200   0.302   2.913  -3.129 -0.5513  1.6861  0.6993
 6335TIP3    H243201   0.307   2.962  -3.272 -1.0869 -0.3419 -0.0409
 6336TIP3   OH243202  -1.367  -1.035  -4.001 -0.2710  0.3015 -0.0886
 6336TIP3    H143203  -1.384  -1.118  -4.046 -1.0463 -1.3154  2.9316
 6336TIP3    H243204  -1.307  -1.057  -3.930 -0.1948  2.4140  0.5860
 6337TIP3   OH243205   2.532  -2.761  -4.310  0.8553 -0.5546  0.8409
 6337TIP3    H143206   2.576  -2.678  -4.292 -0.9686  0.6758 -0.0323
 6337TIP3    H243207   2.548  -2.778  -4.403  1.4514 -1.3561  1.0745
 6338TIP3   OH243208  -0.513  -2.646  -5.521 -0.0456 -0.8195 -0.4103
 6338TIP3    H143209  -0.568  -2.723  -5.535 -0.7489 -0.5133  0.5262
 6338TIP3    H243210  -0.480  -2.657  -5.432  0.1921 -0.2489 -0.4278
 6339TIP3   OH243211   2.297   1.193  -4.100 -0.6887  0.1254 -0.9885
 6339TIP3    H143212   2.298   1.196  -4.196 -2.2222 -0.7453 -1.0713
 6339TIP3    H243213   2.325   1.105  -4.078 -0.2841  0.3404 -0.6240
 6340TIP3   OH243214   2.570  -1.635  -5.652 -0.4123 -0.6082 -0.5413
 6340TIP3    H143215   2.627  -1.563  -5.678  1.4272 -1.4379  0.9976
 6340TIP3    H243216   2.483  -1.596  -5.648  0.5758  1.6416  0.6651
 6341TIP3   OH243217  -0.398   2.446  -2.574  0.0012 -0.0212 -0.2435
 6341TIP3    H143218  -0.370   2.480  -2.489 -1.2527 -0.3528  0.3288
 6341TIP3    H243219  -0.321   2.402  -2.609  0.8368  0.9964  0.2516
 6342TIP3   OH243220  -2.884  -3.226  -2.209  0.2465  0.2720  0.1938
 6342TIP3    H143221  -2.791  -3.204  -2.207  0.4585 -0.6566  0.7742
 6342TIP3    H243222  -2.907  -3.248  -2.119 -0.0966 -1.2464 -0.2289
 6343TIP3   OH243223   0.868  -0.871  -4.726  0.0157 -0.4938  0.2877
 6343TIP3    H143224   0.894  -0.779  -4.727 -0.4663 -0.3544  0.1709
 6343TIP3    H243225   0.775  -0.870  -4.706 -1.2097 -0.6178 -4.3448
 6344TIP3   OH243226   1.312  -2.777  -5.601  0.1665  0.3693  0.2925
 6344TIP3    H143227   1.393  -2.762  -5.553 -0.6758 -0.7395  2.1811
 6344TIP3    H243228   1.282  -2.862  -5.571 -2.3665  1.3122  0.6799
 6345TIP3   OH243229  -1.066  -1.286  -3.932  0.0831  0.1539  0.3808
 6345TIP3    H143230  -1.092  -1.300  -3.841  0.4847  1.3971  0.7092
 6345TIP3    H243231  -1.045  -1.373  -3.965 -1.4551 -0.4964  1.0273
 6346TIP3   OH243232  -0.398  -2.039  -2.786 -0.0707 -0.0921  0.6478
 6346TIP3    H143233  -0.359  -1.976  -2.847  0.8786  0.1711  1.4965
 6346TIP3    H243234  -0.479  -2.067  -2.829  0.7336 -0.1883 -0.9102
 6347TIP3   OH243235   1.866  -1.475  -6.031 -0.0654 -0.6769  0.0941
 6347TIP3    H143236   1.889  -1.383  -6.046 -1.0899 -0.3638  0.4138
 6347TIP3    H243237   1.775  -1.474  -6.004  0.9233 -1.4017  4.0828
 6348TIP3   OH243238   0.792  -2.370  -3.637 -0.2515 -0.3729 -0.1610
 6348TIP3    H143239   0.774  -2.429  -3.711  0.0667  1.4783 -1.8168
 6348TIP3    H243240   0.717  -2.310  -3.636 -0.2124 -0.3243  1.0059
 6349TIP3   OH243241  -2.759   2.390  -4.759  0.0758  0.0299  0.4732
 6349TIP3    H143242  -2.708   2.310  -4.747  2.2998  1.0775 -1.3520
 6349TIP3    H243243  -2.696   2.454  -4.791 -2.1809  1.7296 -0.8286
 6350TIP3   OH243244  -3.225  -0.177  -4.732 -0.4868  0.0966 -0.1359
 6350TIP3    H143245  -3.178  -0.225  -4.663 -0.6570  1.2713  0.8280
 6350TIP3    H243246  -3.317  -0.180  -4.705 -0.2472  3.5500  1.7243
 6351TIP3   OH243247  -2.393  -0.272  -5.105  0.2636 -0.2146 -0.0529
 6351TIP3    H143248  -2.337  -0.197  -5.127 -0.1893  0.0540 -0.3048
 6351TIP3    H243249  -2.410  -0.263  -5.012 -0.3161  0.3619 -0.2071
 6352TIP3   OH243250   0.610   0.442  -3.938  0.7747  0.0316 -0.1859
 6352TIP3    H143251   0.581   0.493  -4.014 -0.3480  0.7491  0.6749
 6352TIP3    H243252   0.688   0.396  -3.968 -0.1301 -0.3912 -2.0298
 6353TIP3   OH243253   1.186  -1.971  -4.795  0.5028 -0.3134  0.2003
 6353TIP3    H143254   1.231  -1.957  -4.878 -0.3419  0.5250 -0.1354
 6353TIP3    H243255   1.171  -1.884  -4.760 -1.7631 -0.4694 -0.2229
 6354TIP3   OH243256  -0.837   2.267  -4.547  0.0340 -0.5924  0.0114
 6354TIP3    H143257  -0.758   2.216  -4.529 -0.3667 -0.8618  1.0243
 6354TIP3    H243258  -0.904   2.229  -4.491 -0.1680  1.3414  1.1709
 6355TIP3   OH243259  -2.767  -1.390  -2.816 -0.2897 -0.2260  0.2915
 6355TIP3    H143260  -2.731  -1.380  -2.728  0.2024 -1.1037  0.2015
 6355TIP3    H243261  -2.861  -1.378  -2.805 -0.1631  0.3303  0.8211
 6356TIP3   OH243262  -0.507  -2.789  -4.835 -0.5196  0.0594  0.8089
 6356TIP3    H143263  -0.454  -2.773  -4.914 -0.8605  0.0593  0.5760
 6356TIP3    H243264  -0.587  -2.829  -4.869 -1.0040  0.7786  1.0741
 6357TIP3   OH243265  -1.509   0.495  -3.658  0.9057  0.0885  0.1244
 6357TIP3    H143266  -1.414   0.497  -3.665  0.8991 -0.7730 -0.3461
 6357TIP3    H243267  -1.539   0.560  -3.721  1.1875  0.7242  0.6312
 6358TIP3   OH243268  -1.577   2.541  -5.185 -0.6223 -0.3652 -0.3372
 6358TIP3    H143269  -1.566   2.604  -5.256 -0.5302 -0.2410 -0.2111
 6358TIP3    H243270  -1.625   2.468  -5.225 -3.3283  1.0051  0.2142
 6359TIP3   OH243271   1.066  -0.200  -3.775  0.0289  0.0669  0.3989
 6359TIP3    H143272   1.027  -0.259  -3.839 -0.6551  2.0421 -1.1118
 6359TIP3    H243273   1.001  -0.194  -3.705 -0.6763  0.3439 -0.2657
 6360TIP3   OH243274  -0.002  -0.159  -3.695  0.1059  0.6834  0.5550
 6360TIP3    H143275  -0.021  -0.165  -3.788 -1.1552  0.0476  0.8320
 6360TIP3    H243276   0.083  -0.202  -3.685 -1.3929 -2.7172  0.1729
 6361TIP3   OH243277   1.014  -0.357  -5.374 -0.3973  0.0457  0.3087
 6361TIP3    H143278   1.084  -0.390  -5.318 -0.9724 -1.8374  0.0005
 6361TIP3    H243279   0.970  -0.291  -5.322  0.7501  0.2609  1.0346
 6362TIP3   OH243280   1.945  -3.109  -4.995 -0.5385 -0.5144 -0.3830
 6362TIP3    H143281   1.940  -3.112  -4.899  1.6263  0.1540 -0.2000
 6362TIP3    H243282   1.944  -3.201  -5.022  0.6835 -0.7968  0.4427
 6363TIP3   OH243283   2.547   2.804  -4.260 -0.0536 -0.1921  0.0614
 6363TIP3    H143284   2.465   2.761  -4.287 -0.0917 -1.0878  1.4654
 6363TIP3    H243285   2.582   2.842  -4.340  1.1831 -4.7849 -1.9523
 6364TIP3   OH243286   0.786  -1.669  -4.141 -0.0590  0.2452  0.2191
 6364TIP3    H143287   0.747  -1.667  -4.054  1.7291  1.0437  1.0671
 6364TIP3    H243288   0.851  -1.739  -4.137  0.1902  0.4340 -0.3860
 6365TIP3   OH243289   2.414   0.351  -4.979 -0.4107  0.4325 -0.0147
 6365TIP3    H143290   2.472   0.422  -4.951  1.3398 -0.2591 -1.6890
 6365TIP3    H243291   2.416   0.289  -4.907  0.8884  0.4636 -0.0066
 6366TIP3   OH243292   3.201   1.162  -4.525  0.1912 -0.0042 -0.3071
 6366TIP3    H143293   3.271   1.158  -4.589 -0.2417 -0.4199 -0.7654
 6366TIP3    H243294   3.239   1.208  -4.450  1.4125 -1.4845  0.0344
 6367TIP3   OH243295   2.155   0.098  -4.754 -0.1170 -0.0898  0.4270
 6367TIP3    H143296   2.114   0.173  -4.713 -0.0109  0.1761  0.0529
 6367TIP3    H243297   2.209   0.059  -4.686 -0.4143 -0.0099  0.7083
 6368TIP3   OH243298   0.068  -2.258  -6.023 -0.5581  0.2452 -0.2233
 6368TIP3    H143299  -0.014  -2.287  -6.064 -0.4384 -0.2046 -0.1506
 6368TIP3    H243300   0.113  -2.339  -6.001 -0.6522  0.4864  0.8719
 6369TIP3   OH243301   3.074  -3.113  -3.026  0.2125  0.1696  0.2922
 6369TIP3    H143302   2.990  -3.144  -3.058  0.5529 -1.1723  0.6292
 6369TIP3    H243303   3.133  -3.189  -3.036  1.3618  1.0541  0.1191
 6370TIP3   OH243304  -1.097   0.231  -4.630 -0.3510  0.8871 -0.2288
 6370TIP3    H143305  -1.107   0.136  -4.643  0.0914  0.9463 -1.0713
 6370TIP3    H243306  -1.064   0.263  -4.714 -0.5240  1.7979  0.0430
 6371TIP3   OH243307   3.280  -2.382  -2.401 -0.4921 -0.0186  0.2643
 6371TIP3    H143308   3.187  -2.370  -2.418  0.1661  2.7440 -2.2023
 6371TIP3    H243309   3.316  -2.410  -2.485  1.0527 -0.0363  0.8995
 6372TIP3   OH243310  -1.879   1.150  -4.808  0.1241  0.2692  0.0340
 6372TIP3    H143311  -1.795   1.129  -4.767 -0.5774 -1.3970  0.7259
 6372TIP3    H243312  -1.859   1.221  -4.868  2.0671 -0.1991  0.0451
 6373TIP3   OH243313  -0.576   2.667  -4.537 -0.1756 -0.0651 -0.0845
 6373TIP3    H143314  -0.490   2.707  -4.525 -0.1971  0.3544 -1.2483
 6373TIP3    H243315  -0.609   2.654  -4.448  0.9240  0.1193  0.3630
 6374TIP3   OH243316  -2.428  -2.203  -5.669 -0.2061  0.3785 -0.3391
 6374TIP3    H143317  -2.447  -2.122  -5.622  0.9482 -0.5759  1.9389
 6374TIP3    H243318  -2.339  -2.225  -5.643 -0.3368 -1.3967 -1.2691
 6375TIP3   OH243319   1.077  -2.673  -4.168  0.0513  0.5582 -0.2446
 6375TIP3    H143320   1.049  -2.761  -4.142  0.7084  0.3136 -0.3452
 6375TIP3    H243321   1.013  -2.647  -4.234 -0.3110  0.2663 -0.0135
 6376TIP3   OH243322   2.438  -0.573  -4.357 -0.4322 -0.2411  0.2516
 6376TIP3    H143323   2.441  -0.518  -4.279 -0.5993  1.9730 -1.2015
 6376TIP3    H243324   2.479  -0.655  -4.330 -1.3134  0.1005  2.8841
 6377TIP3   OH243325   0.262  -0.298  -5.183  0.7542 -0.0829  0.3227
 6377TIP3    H143326   0.179  -0.346  -5.194  1.5966 -1.7565  0.8538
 6377TIP3    H243327   0.282  -0.265  -5.270  0.3739 -1.1488 -0.1946
 6378TIP3   OH243328   0.067  -2.303  -5.519  0.2568 -0.4140  0.1021
 6378TIP3    H143329   0.007  -2.296  -5.445 -0.1105  0.2290 -0.2460
 6378TIP3    H243330   0.139  -2.244  -5.497 -1.0624  1.7927 -1.1615
 6379TIP3   OH243331   0.357   1.559  -3.074  0.2463  0.1999 -0.1031
 6379TIP3    H143332   0.286   1.598  -3.024  0.5453 -0.0038  0.4908
 6379TIP3    H243333   0.393   1.492  -3.016  2.0658  1.4748  0.3389
 6380TIP3   OH243334   0.549  -0.748  -5.676 -0.2786 -0.1155  0.1718
 6380TIP3    H143335   0.474  -0.794  -5.712 -0.0280 -1.8041  1.6542
 6380TIP3    H243336   0.617  -0.815  -5.668  0.2600  0.5747  1.9763
 6381TIP3   OH243337  -1.880  -2.006  -4.490 -0.1497 -0.5709  0.1373
 6381TIP3    H143338  -1.925  -2.090  -4.489 -1.0757 -0.0866  0.1816
 6381TIP3    H243339  -1.790  -2.026  -4.464  0.4344 -1.9857 -2.5571
 6382TIP3   OH243340  -2.914   2.151  -5.785  0.0536  0.0468  0.4825
 6382TIP3    H143341  -2.967   2.183  -5.711  1.5220  1.3079  1.0457
 6382TIP3    H243342  -2.827   2.187  -5.769  0.6804 -0.5837 -1.3077
 6383TIP3   OH243343   3.064  -2.561  -2.627  0.0353  0.2270 -0.4560
 6383TIP3    H143344   3.039  -2.649  -2.597 -0.0452  0.2831 -0.3626
 6383TIP3    H243345   3.042  -2.503  -2.555  0.8316  0.2213 -0.1927
 6384TIP3   OH243346   1.206   1.270  -4.349  0.2399 -0.4683 -0.0098
 6384TIP3    H143347   1.169   1.313  -4.272 -0.9953 -0.6100 -0.4924
 6384TIP3    H243348   1.235   1.342  -4.405 -2.4355 -0.1199 -1.1208
 6385TIP3   OH243349  -1.377  -0.355  -4.454  0.2844  0.5862  0.4868
 6385TIP3    H143350  -1.302  -0.314  -4.410  0.1399  0.0675  1.2217
 6385TIP3    H243351  -1.448  -0.349  -4.391  0.8989 -3.1859  1.7987
 6386TIP3   OH243352  -0.338  -1.747  -3.856  0.0751  0.4553  0.9017
 6386TIP3    H143353  -0.372  -1.834  -3.834 -1.4182  0.3468 -1.4261
 6386TIP3    H243354  -0.244  -1.759  -3.865 -0.1737 -1.0979  0.0039
 6387TIP3   OH243355  -0.987   3.200  -5.691  0.4553  0.2555  0.1490
 6387TIP3    H143356  -1.080   3.222  -5.684  0.0800 -0.8412 -0.8917
 6387TIP3    H243357  -0.984   3.105  -5.676  1.6470  0.5180  1.8461
 6388TIP3   OH243358  -0.516  -0.787  -5.315 -0.2368  0.2248  0.0807
 6388TIP3    H143359  -0.461  -0.743  -5.379 -1.7197  0.1677 -1.3002
 6388TIP3    H243360  -0.497  -0.880  -5.326 -1.1295  0.1423 -0.9580
 6389TIP3   OH243361  -3.121  -1.161  -3.267 -0.1523 -0.5116  0.0702
 6389TIP3    H143362  -3.066  -1.086  -3.289 -0.6927 -0.2211 -0.3279
 6389TIP3    H243363  -3.128  -1.211  -3.349  0.4560 -1.1661  0.4086
 6390TIP3   OH243364  -0.822   2.038  -2.965  0.2960  0.7167 -0.3552
 6390TIP3    H143365  -0.855   1.956  -2.927 -0.5364  1.7736  1.3088
 6390TIP3    H243366  -0.793   2.013  -3.053  0.3241 -1.4101  0.2023
 6391TIP3   OH243367   1.959  -1.794  -6.006  0.3787  0.6884  0.0183
 6391TIP3    H143368   1.939  -1.735  -6.079  1.6600 -1.3614 -2.1021
 6391TIP3    H243369   2.041  -1.836  -6.030 -0.0441 -1.3523  1.8355
 6392TIP3   OH243370   1.693   1.189  -5.232 -0.0517  0.5015  0.4020
 6392TIP3    H143371   1.782   1.179  -5.265 -0.6957 -0.1802 -1.2394
 6392TIP3    H243372   1.701   1.251  -5.159  1.7142  0.6059  0.1602
 6393TIP3   OH243373  -1.052  -0.146  -3.498  0.2162  0.2839  0.1164
 6393TIP3    H143374  -0.982  -0.210  -3.487  1.2699  1.3159 -0.3980
 6393TIP3    H243375  -1.068  -0.114  -3.410 -0.5964 -0.9415  0.4404
 6394TIP3   OH243376  -3.088  -2.933  -5.113  0.5615  0.3025 -0.2725
 6394TIP3    H143377  -3.021  -2.972  -5.168 -0.2927 -0.2303 -0.9739
 6394TIP3    H243378  -3.091  -2.841  -5.140  0.4354  0.1358 -0.8352
 6395TIP3   OH243379  -2.854  -1.971  -2.695 -0.0635  0.4999 -0.3735
 6395TIP3    H143380  -2.862  -1.907  -2.625 -2.5240 -0.6037  0.4659
 6395TIP3    H243381  -2.917  -1.941  -2.761 -0.2922 -0.3263 -0.5389
 6396TIP3   OH243382  -1.408  -0.989   5.280 -0.4636 -0.2729  0.0730
 6396TIP3    H143383  -1.374  -0.913   5.234 -1.7392  0.5201  0.3943
 6396TIP3    H243384  -1.379  -0.976   5.371 -1.6430  0.4658  0.3723
 6397TIP3   OH243385   2.771  -2.870  -3.433  0.7716  0.8410 -0.4752
 6397TIP3    H143386   2.715  -2.831  -3.501  0.1369 -0.4093 -0.6965
 6397TIP3    H243387   2.751  -2.820  -3.354 -0.5393  0.5402 -0.5975
 6398TIP3   OH243388  -2.858  -1.194  -5.804  0.3796  0.3272 -0.0739
 6398TIP3    H143389  -2.887  -1.260  -5.741  0.0824  1.0818  0.5936
 6398TIP3    H243390  -2.798  -1.138  -5.755  0.9381  0.3207 -0.7433
 6399TIP3   OH243391   2.270  -2.033  -3.116  1.3861 -0.0122 -0.3328
 6399TIP3    H143392   2.273  -2.045  -3.210  0.3727 -0.4918 -0.3231
 6399TIP3    H243393   2.233  -1.946  -3.103  1.1002 -0.1253 -0.3821
 6400TIP3   OH243394  -3.169   1.265  -3.062 -0.9554 -0.1075  0.1046
 6400TIP3    H143395  -3.089   1.306  -3.095  0.2125 -0.7585  1.9952
 6400TIP3    H243396  -3.180   1.188  -3.118  1.2002 -1.4048  1.3299
 6401TIP3   OH243397  -1.726  -1.110  -3.774  0.1970 -0.2554 -0.1066
 6401TIP3    H143398  -1.757  -1.200  -3.781  0.6307 -0.6366  2.1762
 6401TIP3    H243399  -1.641  -1.117  -3.730  0.5333  1.2313 -0.4657
 6402TIP3   OH243400   0.797   1.896  -4.476 -0.4058  0.4348  0.2301
 6402TIP3    H143401   0.760   1.898  -4.388  0.5663 -0.6562  0.7001
 6402TIP3    H243402   0.836   1.982  -4.489  0.7472  0.1258  1.4772
 6403TIP3   OH243403  -3.223   2.426  -3.365  0.2821 -0.1474 -0.2323
 6403TIP3    H143404  -3.157   2.374  -3.411  1.3532 -0.7148  1.8384
 6403TIP3    H243405  -3.266   2.364  -3.306 -1.3391  0.4664 -0.7287
 6404TIP3   OH243406   2.304  -0.906  -3.917  0.1170  0.5495  0.1590
 6404TIP3    H143407   2.326  -0.813  -3.913 -0.2828  0.6112  3.0529
 6404TIP3    H243408   2.340  -0.936  -4.000 -0.6662  3.4789 -1.3377
 6405TIP3   OH243409   2.799  -0.851  -5.247 -0.1937 -0.4748 -0.3428
 6405TIP3    H143410   2.827  -0.784  -5.185  0.4867 -0.1219 -1.0159
 6405TIP3    H243411   2.879  -0.874  -5.295 -0.7811 -0.4456 -1.3710
 6406TIP3   OH243412  -0.299  -0.331  -5.230  0.4926  0.2835  0.0747
 6406TIP3    H143413  -0.324  -0.356  -5.141  0.2636  0.0885 -0.0431
 6406TIP3    H243414  -0.290  -0.236  -5.226  0.7757  0.2458  0.3786
 6407TIP3   OH243415  -1.005   0.870  -3.378  0.3453  0.8471 -0.5631
 6407TIP3    H143416  -0.931   0.812  -3.360 -0.2768 -0.2740 -1.4995
 6407TIP3    H243417  -1.051   0.829  -3.451 -2.9512 -0.1333  1.8495
 6408TIP3   OH243418   1.020  -0.720  -5.036 -0.2218  0.0604 -0.1788
 6408TIP3    H143419   1.024  -0.787  -5.105  0.9833  1.9656 -2.0711
 6408TIP3    H243420   0.948  -0.663  -5.063  1.7935  2.2204 -1.3176
 6409TIP3   OH243421  -0.805  -1.316  -5.105  0.2106 -0.1743 -0.0402
 6409TIP3    H143422  -0.797  -1.230  -5.064  1.9234  0.1277 -0.9132
 6409TIP3    H243423  -0.893  -1.316  -5.144  1.4473  2.7941 -3.3745
 6410TIP3   OH243424  -1.872  -1.287  -4.893 -0.4018  0.2232  0.2198
 6410TIP3    H143425  -1.906  -1.265  -4.980  1.4693 -1.5279 -1.0727
 6410TIP3    H243426  -1.832  -1.373  -4.905 -0.5889 -0.3302  3.0054
 6411TIP3   OH243427   1.412   1.357  -3.852 -0.4535  0.3026  0.3368
 6411TIP3    H143428   1.451   1.280  -3.893 -0.1801  0.4651  0.2921
 6411TIP3    H243429   1.331   1.324  -3.812  1.5300 -0.9400  3.8077
 6412TIP3   OH243430  -2.971  -0.750  -5.700 -0.2984  0.4945  0.2454
 6412TIP3    H143431  -2.883  -0.737  -5.665 -0.3164 -1.0063  0.8965
 6412TIP3    H243432  -2.973  -0.841  -5.727 -1.2524  0.8558 -0.9718
 6413TIP3   OH243433   3.191  -0.989  -5.874  0.2999 -0.5844 -0.3039
 6413TIP3    H143434   3.261  -1.045  -5.909  0.4150  0.4467 -1.7935
 6413TIP3    H243435   3.233  -0.904  -5.860  0.0615 -0.7385  1.7110
 6414TIP3   OH243436   0.047  -2.754  -3.680 -0.3100  0.4119 -0.5511
 6414TIP3    H143437  -0.042  -2.785  -3.701 -0.9238  2.0308 -0.4795
 6414TIP3    H243438   0.057  -2.675  -3.733  1.4057 -0.1649 -1.1441
 6415TIP3   OH243439   1.259   1.538  -3.429 -0.1769 -0.3637 -0.5393
 6415TIP3    H143440   1.226   1.460  -3.385  2.2176 -0.9706  0.3396
 6415TIP3    H243441   1.270   1.602  -3.359 -0.0405  0.0007 -0.8909
 6416TIP3   OH243442  -3.106   0.678  -3.272  0.3760  0.4461  0.7238
 6416TIP3    H143443  -3.148   0.665  -3.357  0.0289 -1.7724  1.1625
 6416TIP3    H243444  -3.179   0.695  -3.212  0.4297 -0.0066  0.9159
 6417TIP3   OH243445   2.381   1.136  -4.758  0.1779  0.2743 -0.2057
 6417TIP3    H143446   2.440   1.180  -4.819  0.6573 -1.9086 -1.4222
 6417TIP3    H243447   2.435   1.120  -4.680  1.2420 -1.5370 -1.2351
 6418TIP3   OH243448   1.587   0.421  -4.896  0.2343 -0.3231 -0.1918
 6418TIP3    H143449   1.494   0.409  -4.915 -0.0884  1.1199  0.3624
 6418TIP3    H243450   1.592   0.506  -4.852  1.6602 -0.9596  0.9593
 6419TIP3   OH243451   2.107  -1.694  -3.816  0.6136 -0.0783 -0.1980
 6419TIP3    H143452   2.048  -1.649  -3.756 -0.1823  0.4066 -1.2991
 6419TIP3    H243453   2.187  -1.642  -3.815  0.4729  0.1345  0.1478
 6420TIP3   OH243454   2.629   1.235  -3.952 -0.0556  0.0069  0.2405
 6420TIP3    H143455   2.708   1.192  -3.985 -1.4889 -1.6275 -1.2811
 6420TIP3    H243456   2.618   1.311  -4.009  0.4844  0.3317  0.5605
 6421TIP3   OH243457  -2.775   2.790  -2.177 -0.3230 -0.2677 -0.6047
 6421TIP3    H143458  -2.867   2.769  -2.163 -0.4378 -0.4441 -1.5514
 6421TIP3    H243459  -2.751   2.843  -2.101 -1.4662  0.6115 -0.8290
 6422TIP3   OH243460   0.428  -0.519  -5.783  0.7802  0.2114 -0.3082
 6422TIP3    H143461   0.480  -0.579  -5.730 -0.4674 -0.9430 -0.3227
 6422TIP3    H243462   0.481  -0.505  -5.861  1.8800  0.5688  0.4836
 6423TIP3   OH243463   1.891  -3.317  -3.028  0.4606  0.1598 -0.2544
 6423TIP3    H143464   1.976  -3.278  -3.009  0.1567  0.5400  0.3278
 6423TIP3    H243465   1.828  -3.268  -2.975  0.1273 -1.4223  0.8827
 6424TIP3   OH243466  -2.309  -2.220  -5.031 -0.6104  0.2612 -0.5592
 6424TIP3    H143467  -2.351  -2.140  -4.999  3.0058  2.8117 -1.5322
 6424TIP3    H243468  -2.359  -2.244  -5.109 -2.0972  1.2429  0.0503
 6425TIP3   OH243469  -1.362  -2.687  -3.799  0.0221 -0.7708  0.2243
 6425TIP3    H143470  -1.338  -2.728  -3.716 -0.5680 -0.0292  0.7792
 6425TIP3    H243471  -1.390  -2.759  -3.855  0.0583 -1.2341  0.7959
 6426TIP3   OH243472  -0.760   1.106  -3.237 -0.0523 -0.7502 -0.0538
 6426TIP3    H143473  -0.760   1.100  -3.333 -0.7046 -1.3080 -0.0306
 6426TIP3    H243474  -0.668   1.114  -3.213  0.1563 -1.1579 -0.7011
 6427TIP3   OH243475  -3.003  -3.210  -3.347 -0.1261 -0.2835  0.0500
 6427TIP3    H143476  -3.057  -3.284  -3.373 -1.5036  0.7726 -0.2251
 6427TIP3    H243477  -3.063  -3.135  -3.348  1.0344  0.7100  1.0665
 6428TIP3   OH243478   2.057  -1.524  -5.837 -0.1366  0.0401  0.0085
 6428TIP3    H143479   2.027  -1.464  -5.769  1.4510  0.3807  0.4627
 6428TIP3    H243480   1.995  -1.513  -5.909 -1.7529 -0.1912  1.3177
 6429TIP3   OH243481  -1.758  -1.894  -2.830  0.5162  0.2097  0.6961
 6429TIP3    H143482  -1.697  -1.965  -2.853 -0.1546 -0.3349  0.5593
 6429TIP3    H243483  -1.799  -1.924  -2.749  1.2629  1.1104  1.4313
 6430TIP3   OH243484  -2.111   2.285  -3.872 -0.2176 -0.2178 -0.1151
 6430TIP3    H143485  -2.024   2.325  -3.863 -0.1844 -0.3782  0.2957
 6430TIP3    H243486  -2.103   2.200  -3.829 -0.0580 -1.0321 -1.6991
 6431TIP3   OH243487  -2.170   1.056  -3.748  0.2181 -0.6185  0.5539
 6431TIP3    H143488  -2.111   0.999  -3.698  0.6216 -0.9771 -0.3116
 6431TIP3    H243489  -2.256   1.016  -3.739 -0.5357  1.3196  4.0658
 6432TIP3   OH243490   2.606   1.126  -3.322  0.0836 -0.4908  0.3278
 6432TIP3    H143491   2.700   1.121  -3.338  0.2738  1.4402  0.6596
 6432TIP3    H243492   2.591   1.063  -3.251  1.0504 -1.0990  0.0084
 6433TIP3   OH243493   1.175   0.280  -4.632  0.2530 -0.2925  0.2402
 6433TIP3    H143494   1.142   0.210  -4.575  0.7628 -1.2297 -0.5697
 6433TIP3    H243495   1.096   0.314  -4.675  0.0683 -0.8635  0.1125
 6434TIP3   OH243496   3.280  -0.740  -5.796 -0.0918 -0.1707  0.3731
 6434TIP3    H143497   3.358  -0.711  -5.749 -0.7719  0.5672  1.0723
 6434TIP3    H243498   3.224  -0.662  -5.801  0.0065 -0.1698 -1.8053
 6435TIP3   OH243499   2.522  -2.181  -3.051  0.1224  0.0019  0.5442
 6435TIP3    H143500   2.444  -2.143  -3.092  0.2544  0.5827  0.8214
 6435TIP3    H243501   2.527  -2.269  -3.087 -0.1054  0.2952 -0.2320
 6436TIP3   OH243502  -2.188   3.224  -5.742  0.1083  0.6243  0.2350
 6436TIP3    H143503  -2.241   3.162  -5.692  0.6893 -1.6113 -1.7719
 6436TIP3    H243504  -2.098   3.206  -5.715  0.1995  1.5717  0.6149
 6437TIP3   OH243505   0.674  -3.117  -3.734  0.2324 -0.1884  0.5189
 6437TIP3    H143506   0.683  -3.053  -3.664 -0.0974 -0.2253  0.5989
 6437TIP3    H243507   0.649  -3.198  -3.690  0.1066 -0.2330  0.3679
 6438TIP3   OH243508   1.818   1.429  -3.876 -0.3495  0.0628  0.2410
 6438TIP3    H143509   1.845   1.420  -3.967  0.5267 -0.8516  0.5676
 6438TIP3    H243510   1.863   1.507  -3.844 -0.1847  0.0409  0.0604
 6439TIP3   OH243511  -3.176   0.108  -5.554  0.0636 -0.3240  0.7144
 6439TIP3    H143512  -3.134   0.022  -5.563  0.9722  0.1715  0.1155
 6439TIP3    H243513  -3.183   0.121  -5.459  1.4937 -0.3233  0.8426
 6440TIP3   OH243514   2.109   1.618  -3.999 -0.3807 -0.1135  0.3574
 6440TIP3    H143515   2.105   1.606  -3.904 -0.9001  0.8593  0.4665
 6440TIP3    H243516   2.029   1.665  -4.021  0.0451  0.2464 -0.4730
 6441TIP3   OH243517  -1.155  -2.002  -5.214 -0.1664 -0.0462  0.0702
 6441TIP3    H143518  -1.062  -2.025  -5.218 -0.4911 -1.4976  0.3290
 6441TIP3    H243519  -1.183  -2.002  -5.305 -0.1526 -0.7120  0.0592
 6442TIP3   OH243520   2.795  -2.633  -4.288 -0.4465  0.1462 -0.1886
 6442TIP3    H143521   2.832  -2.721  -4.287 -0.7101  0.0315 -0.1726
 6442TIP3    H243522   2.867  -2.575  -4.263 -0.3375 -0.0911  0.0468
 6443TIP3   OH243523   1.749   0.307  -3.517 -0.4259 -0.0527  0.1028
 6443TIP3    H143524   1.705   0.247  -3.456 -0.6705 -0.7157 -0.6942
 6443TIP3    H243525   1.679   0.336  -3.576 -0.0537 -0.0359 -0.3362
 6444TIP3   OH243526  -2.512  -1.074  -4.774 -0.1363  0.0126  0.1225
 6444TIP3    H143527  -2.442  -1.040  -4.829 -0.5578 -1.0869 -1.1528
 6444TIP3    H243528  -2.592  -1.052  -4.822 -0.4548 -2.0228 -0.3721
 6445TIP3   OH243529  -2.122   0.490  -1.990  0.0018 -0.4719  0.0693
 6445TIP3    H143530  -2.070   0.426  -1.942  0.1571 -0.9675 -0.7407
 6445TIP3    H243531  -2.205   0.445  -2.009 -0.3376 -0.0344  0.4819
 6446TIP3   OH243532   1.044  -3.239  -3.051  0.0800  0.2332 -0.5634
 6446TIP3    H143533   0.959  -3.199  -3.067  0.8527  2.7430  0.9449
 6446TIP3    H243534   1.098  -3.211  -3.126 -0.1045 -0.4164 -0.9475
 6447TIP3   OH243535  -1.169   2.203  -5.050 -0.7318 -0.3107  0.3087
 6447TIP3    H143536  -1.222   2.216  -4.971 -0.6519  0.3683  0.2535
 6447TIP3    H243537  -1.215   2.251  -5.118  1.4097  2.8622  0.8671
 6448TIP3   OH243538  -1.571   2.618  -3.146 -0.6897  0.0637 -0.1139
 6448TIP3    H143539  -1.608   2.573  -3.222  1.9489 -0.0822 -1.4119
 6448TIP3    H243540  -1.566   2.550  -3.079  0.2824 -0.8079 -1.0247
 6449TIP3   OH243541   1.201  -0.904  -3.812 -0.2833  0.1608 -0.4630
 6449TIP3    H143542   1.251  -0.938  -3.737 -1.1253 -0.2867 -0.0898
 6449TIP3    H243543   1.206  -0.974  -3.878 -0.6369  0.0013 -0.3226
 6450TIP3   OH243544   0.813  -0.629  -5.886  0.1501  0.3907 -0.1552
 6450TIP3    H143545   0.896  -0.628  -5.837 -0.1670  1.6919  0.3823
 6450TIP3    H243546   0.768  -0.707  -5.853 -0.2403  1.4460  1.9996
 6451TIP3   OH243547  -0.483   2.311  -5.712 -0.2647 -0.1392 -0.1721
 6451TIP3    H143548  -0.487   2.398  -5.672  1.0452 -0.3019  0.3472
 6451TIP3    H243549  -0.523   2.323  -5.799 -0.9054  0.7671  0.2297
 6452TIP3   OH243550  -2.382  -0.712  -3.348 -0.7805 -0.6097  0.3231
 6452TIP3    H143551  -2.354  -0.624  -3.326 -0.8417 -0.7777  1.0958
 6452TIP3    H243552  -2.419  -0.704  -3.437  0.5928 -0.1673 -0.2278
 6453TIP3   OH243553   1.951   2.523  -5.518  0.0604 -0.5939  0.6094
 6453TIP3    H143554   1.917   2.570  -5.441  0.7495 -1.7915  1.6796
 6453TIP3    H243555   2.035   2.488  -5.489  0.2778 -1.1817 -0.6727
 6454TIP3   OH243556   2.825  -0.553  -4.822  0.1752 -0.0425  0.5069
 6454TIP3    H143557   2.861  -0.468  -4.848  0.8110 -0.3221  0.4452
 6454TIP3    H243558   2.730  -0.543  -4.831  0.0609  1.3603  2.5959
 6455TIP3   OH243559  -0.617   0.360  -4.390  0.0371 -0.0710  0.1245
 6455TIP3    H143560  -0.587   0.279  -4.430  0.9687 -0.3351  1.3198
 6455TIP3    H243561  -0.712   0.349  -4.382  0.0832 -0.7906 -0.2473
 6456TIP3   OH243562   0.350   1.599  -4.284  0.0111  0.3977  0.2027
 6456TIP3    H143563   0.308   1.514  -4.291 -0.8095  0.6942  1.4023
 6456TIP3    H243564   0.443   1.581  -4.299 -0.1810 -0.6718  0.2451
 6457TIP3   OH243565  -1.330   2.407  -5.157 -0.0596  0.1475  0.2168
 6457TIP3    H143566  -1.421   2.435  -5.156  0.0000  0.3922 -0.4592
 6457TIP3    H243567  -1.280   2.486  -5.134  0.0667  0.4546 -1.0082
 6458TIP3   OH243568   3.320   2.640  -5.112 -0.0885  0.1723 -0.3263
 6458TIP3    H143569   3.400   2.636  -5.060  1.2632  1.7355 -2.1059
 6458TIP3    H243570   3.282   2.726  -5.092  1.2380  1.4529 -2.8154
 6459TIP3   OH243571  -3.173  -1.924  -5.734  0.6113 -0.0699 -0.3792
 6459TIP3    H143572  -3.147  -2.011  -5.704  0.3070  0.4929  1.6768
 6459TIP3    H243573  -3.237  -1.894  -5.669  0.7365  1.7107 -1.0148
 6460TIP3   OH243574   1.292   0.131  -3.048 -0.0306  0.2569 -0.5435
 6460TIP3    H143575   1.317   0.063  -2.985  1.3060  0.2602 -1.0306
 6460TIP3    H243576   1.235   0.189  -2.999  0.5492 -0.0362  0.5212
 6461TIP3   OH243577   3.255  -1.206  -4.186 -0.8669  0.3737 -0.1619
 6461TIP3    H143578   3.274  -1.126  -4.236  2.5002  0.0021  0.2763
 6461TIP3    H243579   3.322  -1.268  -4.215 -2.4011 -1.7854  0.6855
 6462TIP3   OH243580   1.381  -0.880  -5.588  0.0346 -0.1483  0.3758
 6462TIP3    H143581   1.358  -0.931  -5.510 -0.5369 -0.8903 -0.2475
 6462TIP3    H243582   1.330  -0.799  -5.580  0.2206 -0.0852  0.9227
 6463TIP3   OH243583  -0.842  -2.397  -2.721 -0.0425  0.3980  0.2621
 6463TIP3    H143584  -0.911  -2.428  -2.662  0.0292 -2.3113 -0.9225
 6463TIP3    H243585  -0.761  -2.428  -2.682  0.1061 -0.3148 -0.5870
 6464TIP3   OH243586   1.305   2.618  -2.241  0.3420 -0.3267  0.4966
 6464TIP3    H143587   1.293   2.551  -2.175  0.4267  0.6500  1.5217
 6464TIP3    H243588   1.400   2.617  -2.258  0.1522 -1.5748 -0.7207
 6465TIP3   OH243589  -0.674   3.308  -5.889  0.1132 -0.0097  0.8102
 6465TIP3    H143590  -0.691   3.214  -5.899 -2.0540  0.2920  1.0349
 6465TIP3    H243591  -0.580   3.315  -5.875  0.0718 -2.3220  2.7167
 6466TIP3   OH243592   1.169   2.000  -4.424 -0.0604 -0.4528  0.0527
 6466TIP3    H143593   1.174   1.993  -4.520 -0.6831 -2.9836  0.1486
 6466TIP3    H243594   1.214   2.083  -4.404  0.0650  0.1492 -2.4076
 6467TIP3   OH243595  -3.020   0.083  -5.143 -0.0146 -0.3507 -0.2962
 6467TIP3    H143596  -3.084   0.120  -5.204  0.6885  2.1342  0.3454
 6467TIP3    H243597  -3.072   0.060  -5.065 -0.3401  0.3770 -0.2893
 6468TIP3   OH243598   2.772   3.125  -3.379  0.4611 -0.0022  0.9620
 6468TIP3    H143599   2.702   3.089  -3.434 -1.0466  4.2651 -0.3641
 6468TIP3    H243600   2.832   3.166  -3.442 -0.0382  2.9683  2.2530
 6469TIP3   OH243601   1.542  -1.047  -3.998 -0.0192  0.0950 -0.8227
 6469TIP3    H143602   1.588  -0.974  -3.957  0.7978 -1.9787  2.3471
 6469TIP3    H243603   1.600  -1.122  -3.985 -2.3756 -1.8072 -0.6515
 6470TIP3   OH243604  -0.755   1.132  -4.308  0.5859  0.3859 -0.3562
 6470TIP3    H143605  -0.667   1.148  -4.343  0.4051  1.7377 -0.2323
 6470TIP3    H243606  -0.812   1.133  -4.386  0.5918  0.2171 -0.3623
 6471TIP3   OH243607   1.593   3.341  -3.676  0.2959  0.0677  0.4305
 6471TIP3    H143608   1.537   3.414  -3.651  1.5924  0.5299  2.1713
 6471TIP3    H243609   1.609   3.354  -3.769  0.5795  2.0813  0.7198
 6472TIP3   OH243610  -2.855   0.913  -3.848  0.1278  0.1492  0.1641
 6472TIP3    H143611  -2.815   0.982  -3.795  0.9036  1.6835 -2.2697
 6472TIP3    H243612  -2.793   0.899  -3.919 -1.0992 -1.4856 -0.6508
 6473TIP3   OH243613   0.564   3.105  -4.105  0.3852 -0.1041 -0.3295
 6473TIP3    H143614   0.532   3.074  -4.190 -2.3176  1.4862  0.0077
 6473TIP3    H243615   0.506   3.066  -4.041  0.9735  0.5191  0.6051
 6474TIP3   OH243616   0.246   0.644  -5.165 -0.0968  0.0388  0.0150
 6474TIP3    H143617   0.296   0.592  -5.103 -0.8644  0.1324  0.7262
 6474TIP3    H243618   0.312   0.683  -5.223  0.6795  0.4432  1.1432
 6475TIP3   OH243619  -1.610   2.345  -1.890 -0.3393  0.0559 -0.1266
 6475TIP3    H143620  -1.672   2.396  -1.943  0.8118  0.7513 -0.8528
 6475TIP3    H243621  -1.626   2.254  -1.915  0.0811  0.3618 -1.6099
 6476TIP3   OH243622   1.870  -0.945  -3.080 -0.4809 -0.3297 -0.5071
 6476TIP3    H143623   1.959  -0.948  -3.046 -0.0617  0.3074 -1.5212
 6476TIP3    H243624   1.820  -0.902  -3.010  0.0277 -0.5530  0.0053
 6477TIP3   OH243625  -0.410  -1.634  -6.000 -0.3037 -0.1538  0.3791
 6477TIP3    H143626  -0.357  -1.555  -6.001  0.6468 -0.7673  0.4234
 6477TIP3    H243627  -0.369  -1.691  -6.065 -0.6565 -0.7940  0.7072
 6478TIP3   OH243628   2.518   3.324  -4.681  0.5668  0.0141 -0.5261
 6478TIP3    H143629   2.482   3.236  -4.677 -1.6306  0.8108 -1.2488
 6478TIP3    H243630   2.558   3.330  -4.768  1.4713 -0.4965 -0.1645
 6479TIP3   OH243631   2.298   0.198  -5.406 -0.5912 -0.1475  0.3839
 6479TIP3    H143632   2.356   0.190  -5.330 -1.5520 -1.3884  1.0260
 6479TIP3    H243633   2.213   0.168  -5.375 -0.9187 -1.0826 -1.2628
 6480TIP3   OH243634  -0.471   2.594  -3.533 -0.2788  0.0979  0.4590
 6480TIP3    H143635  -0.510   2.521  -3.580 -0.9466  0.4874  0.4018
 6480TIP3    H243636  -0.450   2.558  -3.447 -0.5336 -0.1822  0.4076
 6481TIP3   OH243637  -1.283   3.328  -5.620 -0.6447  0.3297 -0.7594
 6481TIP3    H143638  -1.321   3.268  -5.556 -0.7700  0.3864 -0.7794
 6481TIP3    H243639  -1.287   3.414  -5.577  2.6155 -0.1010  0.6707
 6482TIP3   OH243640   0.957  -2.310  -3.276 -0.0225  0.2219  0.1465
 6482TIP3    H143641   0.979  -2.327  -3.368  1.9253  0.9856  0.4302
 6482TIP3    H243642   0.966  -2.395  -3.233  3.1469  0.5470  0.3362
 6483TIP3   OH243643  -0.911  -0.457  -4.154 -0.0764 -0.0408  0.8783
 6483TIP3    H143644  -0.850  -0.525  -4.125  0.4305  0.3495  0.7580
 6483TIP3    H243645  -0.967  -0.441  -4.078  0.5662  0.2403  1.3009
 6484TIP3   OH243646   3.218   1.761  -4.279 -0.6435 -0.1680  0.2321
 6484TIP3    H143647   3.176   1.705  -4.344 -1.4688  1.0819 -0.3465
 6484TIP3    H243648   3.259   1.700  -4.217 -0.9665 -1.3855 -0.7216
 6485TIP3   OH243649   3.241  -0.657  -3.017  0.2672  0.3481  0.0633
 6485TIP3    H143650   3.193  -0.724  -2.968  1.0896 -1.2521 -1.2566
 6485TIP3    H243651   3.299  -0.617  -2.952  0.0465 -0.4800  0.7950
 6486TIP3   OH243652   1.300  -2.000  -4.535 -0.6231  0.0655 -0.4165
 6486TIP3    H143653   1.382  -1.955  -4.516  0.2441 -1.5239 -0.2521
 6486TIP3    H243654   1.296  -2.004  -4.631  0.5096 -1.5560 -0.4375
 6487TIP3   OH243655   3.187  -1.635  -2.977 -0.0995  0.7040 -0.2002
 6487TIP3    H143656   3.152  -1.724  -2.976 -1.1489  1.1074  1.1015
 6487TIP3    H243657   3.274  -1.642  -2.937  0.0646  0.1972 -0.6294
 6488TIP3   OH243658   0.017   2.866  -3.031 -0.0106 -0.0998 -0.1847
 6488TIP3    H143659   0.015   2.805  -2.958  0.0757 -0.7463 -0.7043
 6488TIP3    H243660   0.067   2.941  -2.999  0.3615 -0.5425  0.2946
 6489TIP3   OH243661  -1.392   3.328  -4.119  0.4670  0.1471  0.1563
 6489TIP3    H143662  -1.428   3.346  -4.206 -1.6336 -0.3024  0.8797
 6489TIP3    H243663  -1.370   3.235  -4.122 -0.3170 -0.0527  0.3205
 6490TIP3   OH243664  -0.844   1.774  -2.879 -0.5025  0.4304  0.0999
 6490TIP3    H143665  -0.854   1.712  -2.806 -1.9716  1.0310  0.4505
 6490TIP3    H243666  -0.853   1.719  -2.957  0.2295 -0.0932  0.3734
 6491TIP3   OH243667   0.247  -2.728  -5.930  0.4394 -0.4117  0.2316
 6491TIP3    H143668   0.158  -2.708  -5.902 -0.0689 -0.7097 -1.1132
 6491TIP3    H243669   0.274  -2.651  -5.980  0.5234 -0.7798 -0.2925
 6492TIP3   OH243670  -0.456  -0.310  -4.522 -0.5777 -0.0857  0.2051
 6492TIP3    H143671  -0.482  -0.262  -4.443 -0.7313 -0.6017  0.4689
 6492TIP3    H243672  -0.444  -0.242  -4.588 -1.6616  0.2540  0.3382
 6493TIP3   OH243673  -1.053  -2.102  -3.584 -0.1069 -0.5479  0.0050
 6493TIP3    H143674  -1.120  -2.164  -3.612  0.2333 -0.8360 -0.1644
 6493TIP3    H243675  -0.970  -2.150  -3.590 -0.0035 -0.6198  1.4684
 6494TIP3   OH243676   0.094  -2.110  -2.643 -0.7999  0.1244  0.5580
 6494TIP3    H143677   0.164  -2.156  -2.595 -1.1389  0.0234  0.9613
 6494TIP3    H243678   0.060  -2.175  -2.704 -2.4704 -0.7822  2.3265
 6495TIP3   OH243679  -2.450   1.467  -5.378 -0.1317  0.1408  0.1629
 6495TIP3    H143680  -2.502   1.540  -5.411 -0.6297 -0.1465  0.3107
 6495TIP3    H243681  -2.491   1.389  -5.414  1.3898 -0.0050 -1.3575
 6496TIP3   OH243682  -2.588  -3.111  -5.077 -0.1559 -0.1478 -0.0463
 6496TIP3    H143683  -2.543  -3.195  -5.081  0.5741  0.2730 -2.4761
 6496TIP3    H243684  -2.537  -3.054  -5.134 -1.4959  1.5236  0.3416
 6497TIP3   OH243685  -2.404   0.677  -3.963  0.0391  0.0141 -0.7507
 6497TIP3    H143686  -2.399   0.756  -4.015 -0.8949  1.0614  0.6798
 6497TIP3    H243687  -2.480   0.690  -3.906  1.7736 -0.4344  1.8387
 6498TIP3   OH243688   0.275  -0.583  -4.619 -0.4687 -0.0103 -0.1545
 6498TIP3    H143689   0.295  -0.593  -4.712 -0.0147 -0.6267  0.0051
 6498TIP3    H243690   0.301  -0.666  -4.579 -0.6191  0.2608  0.5300
 6499TIP3   OH243691  -2.070  -3.178  -3.983  0.2677 -0.4893  0.4431
 6499TIP3    H143692  -2.022  -3.099  -3.958  0.2252 -0.8048  1.5963
 6499TIP3    H243693  -2.128  -3.150  -4.054  1.2010  0.2003 -0.0653
 6500TIP3   OH243694  -1.561  -0.843  -3.955  0.3827  0.0281 -0.7303
 6500TIP3    H143695  -1.478  -0.889  -3.966  0.6576  0.8529 -2.5732
 6500TIP3    H243696  -1.542  -0.770  -3.897  1.0985  0.4841 -1.5107
 6501TIP3   OH243697   0.908   0.356  -4.694  0.2499 -0.0848  0.6015
 6501TIP3    H143698   0.841   0.368  -4.761 -0.0761  1.3772  1.1419
 6501TIP3    H243699   0.896   0.266  -4.664 -0.7683 -0.1868 -0.0565
 6502TIP3   OH243700  -2.346   2.672  -4.060 -0.6513  0.0898 -0.2244
 6502TIP3    H143701  -2.387   2.726  -4.128 -2.7052 -0.3922  0.5613
 6502TIP3    H243702  -2.371   2.582  -4.083  1.1486 -0.3850 -0.4560
 6503TIP3   OH243703  -0.054  -1.284  -4.001 -0.1134  0.4597  0.5118
 6503TIP3    H143704  -0.031  -1.191  -4.002  0.0819  0.4129  0.5869
 6503TIP3    H243705  -0.135  -1.289  -4.052 -1.3313  0.9676  2.3328
 6504TIP3   OH243706   3.333   1.649  -4.028 -0.0902  0.0306  0.1213
 6504TIP3    H143707   3.338   1.556  -4.046 -1.5622 -0.1801  0.6431
 6504TIP3    H243708   3.296   1.654  -3.939  0.5157  1.1023  0.3354
 6505TIP3   OH243709   0.166  -1.805  -2.985 -0.1195  0.0306 -0.3031
 6505TIP3    H143710   0.205  -1.889  -3.009 -0.9777 -0.5681  0.3376
 6505TIP3    H243711   0.179  -1.799  -2.890 -0.6620  0.2966 -0.2395
 6506TIP3   OH243712  -1.384  -0.124  -4.099 -0.1356  0.5555  0.0202
 6506TIP3    H143713  -1.372  -0.093  -4.009 -0.7536  1.8929 -0.3365
 6506TIP3    H243714  -1.325  -0.199  -4.106  1.1809  1.4282  1.0468
 6507TIP3   OH243715   0.470   1.428  -2.855 -0.2515  0.1367  0.9893
 6507TIP3    H143716   0.428   1.342  -2.846 -0.1402  0.1899  2.0629
 6507TIP3    H243717   0.493   1.454  -2.766 -1.4003  1.8475  0.8450
 6508TIP3   OH243718  -0.108  -2.180  -3.799 -0.2788  0.1239  0.1009
 6508TIP3    H143719  -0.020  -2.146  -3.813 -0.7398  1.5333  0.3581
 6508TIP3    H243720  -0.106  -2.215  -3.710  0.0941 -0.1268 -0.0035
 6509TIP3   OH243721   1.923   3.171  -4.302 -0.4712 -0.2887  0.2205
 6509TIP3    H143722   1.849   3.169  -4.241 -1.1509 -1.0368 -0.6036
 6509TIP3    H243723   1.943   3.264  -4.312 -0.0730 -0.1682  1.8976
 6510TIP3   OH243724  -1.036   0.618  -5.025  0.0223 -0.0813  0.0624
 6510TIP3    H143725  -1.079   0.653  -5.103  0.6949 -4.0905 -2.3620
 6510TIP3    H243726  -1.108   0.590  -4.969 -0.4998 -0.2127 -0.6607
 6511TIP3   OH243727   3.031   1.219  -5.319  0.3339 -0.3610 -0.1105
 6511TIP3    H143728   2.971   1.252  -5.386 -0.3792 -0.7066  0.3529
 6511TIP3    H243729   3.085   1.154  -5.365 -0.9917 -1.5244 -0.0879
 6512TIP3   OH243730  -0.187  -0.414  -4.984  0.0362 -0.6856 -0.2892
 6512TIP3    H143731  -0.155  -0.416  -4.894 -0.4590 -1.6386 -0.1245
 6512TIP3    H243732  -0.194  -0.321  -5.005  0.4044 -0.4557  0.5634
 6513TIP3   OH243733   1.733   2.623  -3.393 -0.3217 -0.4870 -0.0906
 6513TIP3    H143734   1.805   2.669  -3.348  1.5356 -0.6666 -2.6802
 6513TIP3    H243735   1.722   2.542  -3.344  0.3271  0.1152  1.1127
 6514TIP3   OH243736  -2.064   2.053  -4.930  0.2205 -0.1241  0.2141
 6514TIP3    H143737  -2.026   2.081  -5.013  1.3556 -1.3967  0.2725
 6514TIP3    H243738  -2.156   2.037  -4.950  0.3683  0.0853 -0.6791
 6515TIP3   OH243739   0.205  -3.170  -4.307 -0.0593  0.3833  0.0115
 6515TIP3    H143740   0.111  -3.189  -4.306 -0.0619 -0.0183 -2.5134
 6515TIP3    H243741   0.245  -3.248  -4.268 -0.7118  0.1014  0.1383
 6516TIP3   OH243742   1.991  -0.790  -4.663  0.0091 -0.1679 -0.3342
 6516TIP3    H143743   1.968  -0.712  -4.714 -1.1086 -0.8841 -0.9708
 6516TIP3    H243744   2.080  -0.812  -4.691  0.6228  1.2965  0.4006
 6517TIP3   OH243745  -2.776   0.428  -4.819  0.0870  0.1653 -0.2728
 6517TIP3    H143746  -2.787   0.461  -4.909 -1.1893  1.2044  0.2311
 6517TIP3    H243747  -2.824   0.346  -4.818 -0.8256  0.6854 -0.2724
 6518TIP3   OH243748  -0.398   0.260  -4.770 -0.3934  0.2693  0.3321
 6518TIP3    H143749  -0.439   0.194  -4.824  3.0329 -1.9738  0.1268
 6518TIP3    H243750  -0.426   0.239  -4.681 -0.1520 -0.8644  0.1587
 6519TIP3   OH243751  -2.940   0.325  -5.575 -0.0872  0.6743 -0.2718
 6519TIP3    H143752  -2.876   0.265  -5.613  0.8016  1.1221  0.4931
 6519TIP3    H243753  -3.022   0.276  -5.575  0.7465 -0.7580  0.8797
 6520TIP3   OH243754  -0.267  -0.819  -3.568  0.0697 -0.5277  0.4095
 6520TIP3    H143755  -0.326  -0.843  -3.497 -0.8065  1.1320  0.3032
 6520TIP3    H243756  -0.311  -0.746  -3.612  1.3983 -0.3908 -0.7726
 6521TIP3   OH243757  -2.864   0.987  -5.410  0.0502  0.2282 -0.3196
 6521TIP3    H143758  -2.770   0.995  -5.392 -0.0462  1.7681 -0.3652
 6521TIP3    H243759  -2.868   0.959  -5.501  0.4618 -2.2227  0.3445
 6522TIP3   OH243760  -2.737  -1.032  -5.340 -0.0579 -0.4082  0.2553
 6522TIP3    H143761  -2.822  -1.044  -5.383  0.4410  0.1051 -0.9403
 6522TIP3    H243762  -2.731  -1.103  -5.277 -1.4486 -0.3526  0.4796
 6523TIP3   OH243763   0.148   1.771  -4.256  0.1912 -0.1820 -0.6944
 6523TIP3    H143764   0.223   1.714  -4.271 -0.8437 -1.1779 -2.4435
 6523TIP3    H243765   0.178   1.858  -4.282  0.9557 -0.4228 -0.6427
 6524TIP3   OH243766   2.040  -2.662  -4.221  0.0693 -0.4741 -0.4216
 6524TIP3    H143767   2.066  -2.575  -4.250  1.9003 -0.8635 -0.0967
 6524TIP3    H243768   2.001  -2.703  -4.298  0.7394  0.0630 -1.0514
 6525TIP3   OH243769  -0.446  -0.203  -3.474  0.2095  0.0008 -0.4946
 6525TIP3    H143770  -0.484  -0.171  -3.393 -0.7295  0.9274 -1.2743
 6525TIP3    H243771  -0.375  -0.262  -3.446 -0.5657 -0.2703  0.9739
 6526TIP3   OH243772  -0.135   1.852  -5.152 -0.0269  0.5292 -0.4476
 6526TIP3    H143773  -0.079   1.838  -5.229  0.4128  2.3229 -0.4844
 6526TIP3    H243774  -0.202   1.914  -5.182 -1.0659 -0.3043  0.0707
 6527TIP3   OH243775  -1.079   0.664  -4.003  0.4781 -0.4561 -0.1908
 6527TIP3    H143776  -1.045   0.742  -3.958 -0.1519 -1.2402  1.7250
 6527TIP3    H243777  -1.170   0.658  -3.977  0.7637 -2.3852  0.5291
 6528TIP3   OH243778  -2.377   3.078  -5.005  0.3664  0.2596  0.5194
 6528TIP3    H143779  -2.307   3.025  -5.045 -0.1700 -0.8150  0.9763
 6528TIP3    H243780  -2.347   3.093  -4.915 -1.0447 -2.2803  1.4946
 6529TIP3   OH243781  -3.019  -2.203  -2.729  0.5021 -0.0603 -0.1710
 6529TIP3    H143782  -2.942  -2.147  -2.713  1.8971 -1.8684 -0.2583
 6529TIP3    H243783  -3.049  -2.178  -2.817  1.7646 -0.1607 -0.6553
 6530TIP3   OH243784  -0.979  -0.607  -3.640  0.0247  0.1559 -0.6355
 6530TIP3    H143785  -0.941  -0.594  -3.553 -1.7888 -0.2278  0.2578
 6530TIP3    H243786  -0.938  -0.687  -3.673  0.7601  0.3275 -0.1575
 6531TIP3   OH243787   1.581  -1.706  -5.441 -0.1802  0.4670 -0.3610
 6531TIP3    H143788   1.555  -1.639  -5.505  2.3607  0.4122 -1.5488
 6531TIP3    H243789   1.593  -1.785  -5.493 -1.1633 -0.4409  0.7281
 6532TIP3   OH243790   1.650  -1.364  -4.854  0.3518 -0.3392 -0.4023
 6532TIP3    H143791   1.608  -1.358  -4.769  0.2682 -1.2130 -0.3731
 6532TIP3    H243792   1.651  -1.274  -4.887  0.6623  0.0545  0.6477
 6533TIP3   OH243793   2.793  -1.494  -5.111  0.3556  0.1369  0.1347
 6533TIP3    H143794   2.697  -1.492  -5.111  0.3620  0.8442 -0.2232
 6533TIP3    H243795   2.816  -1.571  -5.163 -0.0182  0.4937 -0.5704
 6534TIP3   OH243796  -0.496  -0.456  -3.330 -0.1971  0.8090 -0.3915
 6534TIP3    H143797  -0.567  -0.513  -3.362 -0.4123  0.5581  0.4936
 6534TIP3    H243798  -0.416  -0.507  -3.345 -0.4259  0.0871  0.7651
 6535TIP3   OH243799  -0.683  -0.764  -2.941 -0.1023  0.4688  0.4033
 6535TIP3    H143800  -0.740  -0.691  -2.962 -0.3476  0.9424  2.5609
 6535TIP3    H243801  -0.672  -0.761  -2.846 -1.6559 -3.3891  0.8928
 6536TIP3   OH243802   2.118  -2.584  -5.795  0.0646 -0.0857  0.2710
 6536TIP3    H143803   2.058  -2.551  -5.862 -0.2292 -0.4322  0.3640
 6536TIP3    H243804   2.097  -2.534  -5.716  0.3717  0.2816  0.1237
 6537TIP3   OH243805   1.097   3.150  -4.760  0.2004  0.1920  0.3894
 6537TIP3    H143806   1.138   3.146  -4.846 -0.0156  1.6720  0.1983
 6537TIP3    H243807   1.004   3.161  -4.778 -0.1252 -1.5111  0.8338
 6538TIP3   OH243808   0.868   3.277  -5.340 -0.4461 -0.7682 -0.7379
 6538TIP3    H143809   0.945   3.274  -5.396 -1.0486 -0.7742 -1.5853
 6538TIP3    H243810   0.816   3.201  -5.367 -1.2396 -0.1793 -0.9057
 6539TIP3   OH243811   0.827   3.219  -4.752  0.1761 -0.2932  0.0616
 6539TIP3    H143812   0.798   3.304  -4.784 -0.7278 -0.2912  0.8516
 6539TIP3    H243813   0.747   3.176  -4.723  0.3525 -2.1016 -1.8699
 6540TIP3   OH243814   1.359  -0.370  -4.428  0.1767  0.1043  0.4839
 6540TIP3    H143815   1.364  -0.280  -4.461 -0.1851  0.4188  1.2668
 6540TIP3    H243816   1.408  -0.421  -4.493 -1.6552  0.4631 -1.3009
 6541TIP3   OH243817  -0.931  -1.317  -4.449  0.3217 -0.0055  0.0457
 6541TIP3    H143818  -0.838  -1.303  -4.465  0.4740 -0.5869  0.3521
 6541TIP3    H243819  -0.941  -1.301  -4.355  0.3492 -1.0767  0.2433
 6542TIP3   OH243820  -1.917   1.360  -2.878  0.3375 -0.3460  0.0718
 6542TIP3    H143821  -1.980   1.426  -2.909  1.6450  0.9017 -0.0613
 6542TIP3    H243822  -1.838   1.411  -2.859  1.0117 -1.7409  1.1180
 6543TIP3   OH243823  -3.001   2.537  -5.267 -0.5986 -0.0601  0.3356
 6543TIP3    H143824  -3.071   2.593  -5.301 -0.8136 -1.6223 -1.9951
 6543TIP3    H243825  -2.928   2.550  -5.328  0.8695  0.7613  2.1443
 6544TIP3   OH243826  -2.820  -0.879  -4.894  0.1895 -0.0766 -0.0963
 6544TIP3    H143827  -2.863  -0.903  -4.976  0.2026 -0.8860  0.1264
 6544TIP3    H243828  -2.881  -0.817  -4.853 -0.3250 -0.4946 -0.2148
 6545TIP3   OH243829  -2.462  -0.968  -3.253  0.0792  0.2092 -0.2599
 6545TIP3    H143830  -2.412  -0.886  -3.251 -0.0446  0.2764  0.4209
 6545TIP3    H243831  -2.553  -0.939  -3.266 -0.0637  0.2432  0.7064
 6546TIP3   OH243832  -0.867   0.790  -4.632 -0.0402 -0.0331  0.5148
 6546TIP3    H143833  -0.957   0.770  -4.658 -0.8436  3.0425  0.5473
 6546TIP3    H243834  -0.822   0.813  -4.713  0.4088 -0.4726  0.6319
 6547TIP3   OH243835  -1.536   0.218  -2.712 -0.2220  0.4507 -0.0050
 6547TIP3    H143836  -1.526   0.132  -2.751  1.1395  1.1010 -1.1693
 6547TIP3    H243837  -1.627   0.220  -2.682 -0.0898 -1.6219  0.7071
 6548TIP3   OH243838   0.945   0.098  -3.326  0.3201  0.2209 -0.0373
 6548TIP3    H143839   1.000   0.051  -3.388 -0.8822 -1.4985  0.1256
 6548TIP3    H243840   0.876   0.035  -3.302 -1.0166  1.8665  0.6815
 6549TIP3   OH243841   1.501   1.864  -4.948 -0.1970  0.4842  0.0277
 6549TIP3    H143842   1.552   1.845  -5.028 -0.6142  0.7466 -0.3065
 6549TIP3    H243843   1.410   1.861  -4.977 -0.3666  0.1289  0.6026
 6550TIP3   OH243844  -1.099   3.171  -4.796  0.0896  0.1585  0.1013
 6550TIP3    H143845  -1.021   3.139  -4.752  1.1468 -0.4308 -2.0673
 6550TIP3    H243846  -1.120   3.103  -4.860 -0.4835  1.5996 -1.3082
 6551TIP3   OH243847   1.719   0.841  -5.723  0.9110 -0.7371  0.2174
 6551TIP3    H143848   1.798   0.874  -5.679  1.0344 -2.2626  1.2277
 6551TIP3    H243849   1.708   0.899  -5.798  2.5262  0.0203  0.5053
 6552TIP3   OH243850  -0.076  -1.487  -5.572 -0.4685 -0.0862  0.5962
 6552TIP3    H143851  -0.166  -1.519  -5.581 -0.8564  0.8599  0.9737
 6552TIP3    H243852  -0.052  -1.507  -5.482 -0.2518 -0.4472  0.4607
 6553TIP3   OH243853   0.514  -0.235  -5.120  0.4012 -0.4296  0.2111
 6553TIP3    H143854   0.537  -0.178  -5.047 -0.2793  2.0069 -1.3458
 6553TIP3    H243855   0.424  -0.210  -5.142  0.2037 -1.8931 -0.7614
 6554TIP3   OH243856   1.963   2.156  -3.813  0.1138 -0.2682  0.1329
 6554TIP3    H143857   2.050   2.177  -3.847  0.5973  0.2812  1.5937
 6554TIP3    H243858   1.981   2.098  -3.738 -0.7511  0.1289  0.6549
 6555TIP3   OH243859   2.296   0.020  -4.512 -0.6658 -0.8547 -0.1515
 6555TIP3    H143860   2.362  -0.009  -4.448 -0.4188 -0.1623 -0.0833
 6555TIP3    H243861   2.272   0.108  -4.483  2.1329  1.0682 -2.9989
 6556TIP3   OH243862  -1.845   2.080  -4.473  0.0182 -0.0356 -0.4799
 6556TIP3    H143863  -1.805   2.043  -4.394  0.1108 -0.0288 -0.5234
 6556TIP3    H243864  -1.875   2.005  -4.523  1.4444 -0.1306 -1.2298
 6557TIP3   OH243865  -2.255   2.935  -4.236  0.1803 -0.3929  0.2141
 6557TIP3    H143866  -2.236   2.845  -4.264  0.8370 -0.0533 -0.4665
 6557TIP3    H243867  -2.200   2.948  -4.159  1.2139 -0.1009 -0.5468
 6558TIP3   OH243868   2.018  -1.160  -3.929 -0.2210 -0.5192 -0.0923
 6558TIP3    H143869   2.057  -1.204  -3.853 -0.5081  0.2269  0.4938
 6558TIP3    H243870   2.042  -1.216  -4.004  2.8185  0.3490  0.0892
 6559TIP3   OH243871  -2.483   2.831  -4.989  0.7816 -0.1271 -0.5531
 6559TIP3    H143872  -2.409   2.782  -5.025  0.6310  0.1562 -1.2591
 6559TIP3    H243873  -2.459   2.922  -5.000  0.1627 -0.0280 -1.1400
 6560TIP3   OH243874   0.732  -0.476  -3.590  0.1178  0.5538 -0.2939
 6560TIP3    H143875   0.752  -0.383  -3.605 -0.2952  0.6792 -0.1021
 6560TIP3    H243876   0.806  -0.509  -3.539  1.1457  0.3225 -1.8656
 6561TIP3   OH243877   3.336   1.112  -3.518  0.0810  0.1747  0.1532
 6561TIP3    H143878   3.319   1.201  -3.547  0.1321  0.4914  1.0895
 6561TIP3    H243879   3.316   1.058  -3.595  2.7578  1.1713 -1.4125
 6562TIP3   OH243880   2.323   1.135  -3.459 -0.2510  0.0066 -0.3248
 6562TIP3    H143881   2.261   1.191  -3.412  0.8624  1.7968 -0.8749
 6562TIP3    H243882   2.312   1.048  -3.420 -2.1997  0.5371  0.4201
 6563TIP3   OH243883  -3.281  -3.086  -3.247  0.2026  0.3429 -0.1362
 6563TIP3    H143884  -3.234  -3.025  -3.303 -0.1656 -1.1110 -2.1364
 6563TIP3    H243885  -3.362  -3.040  -3.225  1.2840  1.7655  1.0312
 6564TIP3   OH243886  -0.453   3.088  -3.508  0.1334  0.0650 -0.3222
 6564TIP3    H143887  -0.385   3.089  -3.576 -1.6177 -0.8954 -2.2109
 6564TIP3    H243888  -0.479   2.996  -3.503  0.0323  0.1630  1.5217
 6565TIP3   OH243889  -0.831  -0.282  -3.413  0.4904 -0.4175 -0.0188
 6565TIP3    H143890  -0.867  -0.357  -3.365  0.5287 -0.1191  0.4784
 6565TIP3    H243891  -0.845  -0.207  -3.355 -0.2594  0.0988 -0.8440
 6566TIP3   OH243892  -1.127   2.215  -4.024  0.0556  0.3543 -0.0110
 6566TIP3    H143893  -1.124   2.232  -3.929  0.6276  1.2369 -0.1705
 6566TIP3    H243894  -1.041   2.178  -4.044 -0.3104 -0.4778 -0.0845
 6567TIP3   OH243895   0.771  -2.955  -4.633 -0.5406 -0.3368  0.2358
 6567TIP3    H143896   0.828  -2.912  -4.569 -1.3942  1.4216 -0.1377
 6567TIP3    H243897   0.802  -2.922  -4.718 -1.2643 -0.4023 -0.0576
 6568TIP3   OH243898   0.403   0.265  -5.532 -0.3115 -0.4732  0.0545
 6568TIP3    H143899   0.318   0.260  -5.488 -0.2220 -2.4820  0.0882
 6568TIP3    H243900   0.406   0.188  -5.588  2.2413 -1.5867  1.5293
 6569TIP3   OH243901  -1.293  -2.086  -4.823  0.4465 -0.3937 -0.2620
 6569TIP3    H143902  -1.225  -2.020  -4.839 -0.5448  0.9772  0.9494
 6569TIP3    H243903  -1.373  -2.036  -4.812 -0.8051 -1.9761 -1.6156
 6570TIP3   OH243904  -2.455   2.245  -5.178 -0.4954 -0.1084  0.0858
 6570TIP3    H143905  -2.509   2.305  -5.126 -0.3165 -0.0213  0.1741
 6570TIP3    H243906  -2.365   2.267  -5.154 -0.4387 -0.7704  0.5216
 6571TIP3   OH243907   0.361   2.882  -4.373 -0.5149  0.1133  0.5173
 6571TIP3    H143908   0.358   2.940  -4.449  1.3734  0.0471  0.3601
 6571TIP3    H243909   0.359   2.794  -4.411  1.2206  0.0743  0.4681
 6572TIP3   OH243910   2.716   2.206  -2.855 -0.2838  0.4864 -0.0850
 6572TIP3    H143911   2.687   2.190  -2.944  0.9292 -0.9028 -0.2787
 6572TIP3    H243912   2.787   2.270  -2.864  0.8283 -0.7390 -0.3138
 6573TIP3   OH243913  -2.047   0.546  -3.270  0.2510  0.3681  0.5383
 6573TIP3    H143914  -1.956   0.524  -3.248  0.4762  1.0620  0.3171
 6573TIP3    H243915  -2.047   0.641  -3.279 -0.7277  0.4874  1.5646
 6574TIP3   OH243916  -1.747   1.250  -5.446 -0.7308 -0.1351  0.1909
 6574TIP3    H143917  -1.661   1.217  -5.472 -1.4900 -0.2556 -2.5086
 6574TIP3    H243918  -1.776   1.190  -5.377  0.4452 -1.4267 -0.3899
 6575TIP3   OH243919  -0.328   0.710  -3.718 -0.4404  0.2823 -0.4890
 6575TIP3    H143920  -0.376   0.770  -3.775 -0.3950 -0.5567 -1.4316
 6575TIP3    H243921  -0.253   0.762  -3.688 -1.5113  1.3736  0.4341
 6576TIP3   OH243922  -0.817  -1.901  -3.871 -0.2197  0.2751  0.0625
 6576TIP3    H143923  -0.743  -1.896  -3.932 -1.6593 -0.7841 -1.8764
 6576TIP3    H243924  -0.833  -1.995  -3.861  0.0215  0.4037  2.2267
 6577TIP3   OH243925   0.629  -2.705  -5.367  0.3352  0.3285  0.2705
 6577TIP3    H143926   0.624  -2.794  -5.402 -0.7604  0.9002 -1.1455
 6577TIP3    H243927   0.537  -2.680  -5.355  0.6500  0.6698  2.3369
 6578TIP3   OH243928  -1.170  -2.238  -2.072  0.1913 -0.6463  0.3164
 6578TIP3    H143929  -1.132  -2.236  -1.984  1.6628 -0.4847 -0.2956
 6578TIP3    H243930  -1.109  -2.186  -2.125 -1.5550  0.7008 -0.4804
 6579TIP3   OH243931  -1.039  -2.969  -4.451 -0.8660 -0.4168 -0.3922
 6579TIP3    H143932  -0.977  -2.939  -4.518 -0.1167 -0.4056  0.2823
 6579TIP3    H243933  -1.124  -2.966  -4.493 -0.4107 -0.3569 -1.3263
 6580TIP3   OH243934  -0.645   2.313  -5.481  0.1714 -0.4060  0.5313
 6580TIP3    H143935  -0.580   2.299  -5.550 -2.1762  0.0836 -1.9508
 6580TIP3    H243936  -0.677   2.225  -5.459 -0.2745 -0.4563 -0.2922
 6581TIP3   OH243937  -1.871   2.141  -2.863  0.4998  0.1334 -0.3253
 6581TIP3    H143938  -1.960   2.168  -2.840  0.7901  0.2514  0.6881
 6581TIP3    H243939  -1.846   2.079  -2.795  0.8660 -0.6023 -1.1159
 6582TIP3   OH243940  -3.125  -2.335  -4.262  0.5099  0.1205 -0.4844
 6582TIP3    H143941  -3.070  -2.349  -4.340  0.8567 -0.7096 -0.0991
 6582TIP3    H243942  -3.108  -2.411  -4.206 -1.3945 -0.4051 -0.5447
 6583TIP3   OH243943  -0.453  -1.991  -5.287  0.1510  0.0330  0.0173
 6583TIP3    H143944  -0.501  -1.926  -5.338  0.9537  0.7266  0.1261
 6583TIP3    H243945  -0.414  -1.941  -5.215 -1.2626 -0.9757  1.5563
 6584TIP3   OH243946  -1.887   0.856  -2.786  0.1077 -0.4725  0.2019
 6584TIP3    H143947  -1.916   0.855  -2.695 -0.8464 -0.0895 -0.0838
 6584TIP3    H243948  -1.969   0.855  -2.837  0.6285 -0.8262 -0.6482
 6585TIP3   OH243949   0.143   3.088  -2.909  0.5701 -0.4407 -0.0694
 6585TIP3    H143950   0.238   3.082  -2.897  0.4971  1.5695  2.3249
 6585TIP3    H243951   0.132   3.148  -2.982  1.1660  0.3355  0.4670
 6586TIP3   OH243952  -2.911  -3.230  -3.993  0.1853  0.3115 -0.2315
 6586TIP3    H143953  -2.908  -3.185  -3.909 -3.3012 -0.4572  0.4368
 6586TIP3    H243954  -2.853  -3.306  -3.981  1.4653  1.3857  0.6515
 6587TIP3   OH243955  -0.365  -0.658  -4.091 -0.1070  0.1068  0.5422
 6587TIP3    H143956  -0.396  -0.599  -4.023 -1.6977 -0.0976  0.0528
 6587TIP3    H243957  -0.369  -0.605  -4.171 -0.3604 -0.2933  0.2884
 6588TIP3   OH243958   2.275   3.172  -4.296  0.2710 -0.0445  0.1994
 6588TIP3    H143959   2.342   3.240  -4.307  0.5368 -0.2197  0.6899
 6588TIP3    H243960   2.205   3.197  -4.356  1.4538 -0.7441 -1.5516
 6589TIP3   OH243961  -0.733   0.948  -2.676  0.5383 -0.8361  0.1551
 6589TIP3    H143962  -0.649   0.992  -2.687 -0.5168  1.3877  0.3647
 6589TIP3    H243963  -0.778   0.959  -2.760  0.3728 -1.8639  0.0931
 6590TIP3   OH243964   1.308   2.162  -5.904  0.0419 -0.0966 -0.0087
 6590TIP3    H143965   1.306   2.209  -5.987 -1.3967 -1.0161 -0.5378
 6590TIP3    H243966   1.353   2.221  -5.844 -0.7231  1.4714 -0.9168
 6591TIP3   OH243967  -0.713  -0.980  -4.285 -0.3167 -0.5765  0.0286
 6591TIP3    H143968  -0.698  -1.074  -4.294  0.7456 -0.3470 -0.7663
 6591TIP3    H243969  -0.683  -0.942  -4.368  0.0068  0.5431  0.6323
 6592TIP3   OH243970  -1.189  -1.863  -5.940 -0.4196  0.1206 -0.0985
 6592TIP3    H143971  -1.208  -1.947  -5.982  0.6009  0.2271 -0.8119
 6592TIP3    H243972  -1.251  -1.801  -5.981  0.3084  0.1450 -1.2004
 6593TIP3   OH243973   1.771  -0.361  -3.632  0.4942  0.5578  0.5847
 6593TIP3    H143974   1.859  -0.397  -3.630  0.3348  0.1425  0.3885
 6593TIP3    H243975   1.781  -0.269  -3.608  0.8973  0.3497  1.2074
 6594TIP3   OH243976   3.315  -1.781  -5.214 -0.4293  0.1536  0.8268
 6594TIP3    H143977   3.290  -1.849  -5.276  0.2317  0.2004  0.4916
 6594TIP3    H243978   3.288  -1.814  -5.129  0.8703 -1.0353  0.8089
 6595TIP3   OH243979   1.718   2.994  -3.529  0.1178  0.2082  0.2243
 6595TIP3    H143980   1.764   2.972  -3.609  0.1429 -0.1121  0.3239
 6595TIP3    H243981   1.630   3.019  -3.557 -0.5190 -1.8640  0.2439
 6596TIP3   OH243982  -0.578   2.413  -5.237  0.0371 -0.4298 -0.0066
 6596TIP3    H143983  -0.589   2.372  -5.322 -1.1945  0.0655 -0.1137
 6596TIP3    H243984  -0.633   2.491  -5.241  0.0826 -0.3181  1.1801
 6597TIP3   OH243985   1.701   2.105  -3.560  0.3942  0.4228 -0.7312
 6597TIP3    H143986   1.653   2.043  -3.505 -0.2144  1.5155  0.0210
 6597TIP3    H243987   1.681   2.079  -3.650  0.5832 -0.7728 -0.4474
 6598TIP3   OH243988   2.453  -1.692  -4.924  0.2205  0.2661  0.3407
 6598TIP3    H143989   2.480  -1.643  -4.847 -0.4061 -0.1690  0.8557
 6598TIP3    H243990   2.438  -1.626  -4.991  0.4199  0.6821  0.7034
 6599TIP3   OH243991  -0.794  -2.738  -5.283 -0.0940  0.1805 -0.0226
 6599TIP3    H143992  -0.815  -2.811  -5.341  0.2431 -0.6715  0.9068
 6599TIP3    H243993  -0.810  -2.772  -5.195 -1.2592  1.6547  0.3895
 6600TIP3   OH243994  -0.055  -3.068  -5.471  0.1270 -0.1932  0.1736
 6600TIP3    H143995   0.013  -3.113  -5.420  0.0894  0.1484  0.5303
 6600TIP3    H243996  -0.137  -3.101  -5.433  0.0732 -1.2295 -0.7976
 6601TIP3   OH243997   2.326  -0.279  -3.805 -0.1324  0.1928  0.2432
 6601TIP3    H143998   2.237  -0.260  -3.772 -0.3279  1.7938 -1.0907
 6601TIP3    H243999   2.312  -0.310  -3.894  0.5964 -0.6303  0.4132
 6602TIP3   OH244000   2.171  -3.197  -2.407  0.2971  0.2351 -0.2380
 6602TIP3    H144001   2.205  -3.204  -2.318 -1.3278 -2.3205  0.2958
 6602TIP3    H244002   2.224  -3.260  -2.458 -1.3516 -1.3677 -0.0935
 6603TIP3   OH244003  -1.440  -2.097  -4.312  0.6492  0.6082  1.4453
 6603TIP3    H144004  -1.459  -2.007  -4.284 -1.4610  0.0296  2.0338
 6603TIP3    H244005  -1.434  -2.146  -4.230 -0.1706 -0.1212  1.0818
 6604TIP3   OH244006   0.033   3.285  -3.891 -0.1652  0.0389  0.6903
 6604TIP3    H144007  -0.027   3.351  -3.926 -0.8608 -1.7811 -1.8548
 6604TIP3    H244008   0.115   3.332  -3.877 -0.3740  1.3327 -1.8413
 6605TIP3   OH244009  -1.006   1.783  -3.217 -0.1028  0.4090 -0.2665
 6605TIP3    H144010  -1.090   1.829  -3.205 -0.3426 -0.0867 -0.0425
 6605TIP3    H244011  -0.994   1.734  -3.136 -0.4226 -0.8564 -0.9608
 6606TIP3   OH244012  -0.448   2.103  -4.251 -0.7195  0.7192 -0.3227
 6606TIP3    H144013  -0.468   2.011  -4.267 -1.3572  0.9685 -0.9951
 6606TIP3    H244014  -0.485   2.122  -4.164  1.8865 -0.3798  1.1521
 6607TIP3   OH244015  -2.504  -1.849  -3.794 -0.1783 -0.1581  0.4423
 6607TIP3    H144016  -2.584  -1.829  -3.843  0.5935 -1.0204 -1.2357
 6607TIP3    H244017  -2.437  -1.793  -3.833  0.6186 -1.4186 -0.0515
 6608TIP3   OH244018   0.109  -1.878  -3.433 -0.2031 -0.0953 -0.0572
 6608TIP3    H144019   0.162  -1.868  -3.354  0.5964 -0.3485 -0.5546
 6608TIP3    H244020   0.069  -1.965  -3.424 -1.4869  0.5566  0.8685
 6609TIP3   OH244021  -0.071  -2.877  -2.896  0.4515 -0.3076 -0.1352
 6609TIP3    H144022  -0.044  -2.928  -2.973 -0.0614 -0.7399 -0.0320
 6609TIP3    H244023  -0.046  -2.787  -2.918  1.4009 -0.5937 -0.2990
 6610TIP3   OH244024   1.923  -1.630   5.212  0.0692 -0.2003 -0.3677
 6610TIP3    H144025   1.884  -1.631   5.125  1.4476  0.6797 -1.0307
 6610TIP3    H244026   1.862  -1.680   5.267 -1.2766  0.0152 -1.6274
 6611TIP3   OH244027  -3.066   3.263  -2.411  0.2041  0.3883 -0.1921
 6611TIP3    H144028  -3.005   3.219  -2.471  1.4868 -0.6039  1.7596
 6611TIP3    H244029  -3.128   3.195  -2.385 -0.1294  0.7270 -0.0941
 6612TIP3   OH244030  -3.000  -1.506  -3.743  0.4984 -0.2186 -0.6264
 6612TIP3    H144031  -3.038  -1.455  -3.815  1.5888 -0.3051 -1.2891
 6612TIP3    H244032  -3.050  -1.480  -3.666 -0.4154  0.1992 -1.3400
 6613TIP3   OH244033   0.048  -2.642  -3.987 -0.1924  0.3651  0.3108
 6613TIP3    H144034  -0.039  -2.601  -3.990 -1.0212 -1.3236 -0.1233
 6613TIP3    H244035   0.088  -2.607  -3.907 -0.8746  1.8804  0.0361
 6614TIP3   OH244036  -1.900   2.501  -4.064  0.3808  0.0885 -0.0789
 6614TIP3    H144037  -1.863   2.426  -4.111  0.2876 -0.5433  0.8113
 6614TIP3    H244038  -1.825   2.549  -4.030  0.4530  0.6731 -1.0546
 6615TIP3   OH244039  -0.208   1.362  -4.512  0.2096  0.0057 -0.4455
 6615TIP3    H144040  -0.235   1.343  -4.602  1.0298 -0.2515 -0.6425
 6615TIP3    H244041  -0.120   1.325  -4.504 -0.0620 -0.4664  0.6339
 6616TIP3   OH244042  -0.067  -2.411  -2.076 -0.5172 -0.4426 -0.2091
 6616TIP3    H144043  -0.133  -2.474  -2.105  0.4827 -2.5271  1.7580
 6616TIP3    H244044  -0.116  -2.330  -2.063 -1.9939 -0.9518 -2.0840
 6617TIP3   OH244045   2.194   2.666  -2.418 -0.0295  0.0181  0.0582
 6617TIP3    H144046   2.202   2.571  -2.403  1.9017 -0.2685 -2.1717
 6617TIP3    H244047   2.108   2.676  -2.460  0.1620 -0.9083 -0.5943
 6618TIP3   OH244048   3.005  -0.600  -4.327  0.1415  0.9853  0.1031
 6618TIP3    H144049   3.038  -0.517  -4.361 -1.4403  1.9444  0.7932
 6618TIP3    H244050   3.019  -0.662  -4.398 -0.9645  2.4187 -1.4340
 6619TIP3   OH244051   1.027  -2.429  -4.306 -0.2255  0.4605 -0.0477
 6619TIP3    H144052   1.064  -2.352  -4.262 -1.3277  1.8253 -1.3746
 6619TIP3    H244053   1.065  -2.426  -4.394 -2.4351  1.2110 -1.0512
 6620TIP3   OH244054  -3.173   2.166  -2.667 -0.2745 -0.1294 -0.0228
 6620TIP3    H144055  -3.232   2.144  -2.594  0.1776 -1.0974  0.0738
 6620TIP3    H244056  -3.085   2.160  -2.629 -0.0931  2.5806  0.1792
 6621TIP3   OH244057   0.664  -2.816  -3.998  0.4662 -0.2878  0.6341
 6621TIP3    H144058   0.704  -2.889  -3.950  1.4324  0.0119  0.3147
 6621TIP3    H244059   0.721  -2.804  -4.074 -1.1520 -0.9086 -0.7528
 6622TIP3   OH244060   0.327  -2.110  -3.678  0.0910 -0.2915  0.6595
 6622TIP3    H144061   0.333  -2.015  -3.667 -1.0618 -0.2408  1.0411
 6622TIP3    H244062   0.251  -2.123  -3.735 -0.5234 -1.0293  1.6154
 6623TIP3   OH244063  -3.102  -2.914  -5.466 -0.1090 -0.0649  0.1750
 6623TIP3    H144064  -3.065  -2.902  -5.553  1.1021  0.4197  0.7411
 6623TIP3    H244065  -3.182  -2.860  -5.467  0.8224  1.3549 -0.0761
 6624TIP3   OH244066  -0.559   0.063  -4.918 -0.2735 -0.0172 -0.2533
 6624TIP3    H144067  -0.600   0.134  -4.968 -1.0619  0.1811  0.6484
 6624TIP3    H244068  -0.555  -0.010  -4.978 -1.4113  0.1481 -0.5506
 6625TIP3   OH244069  -2.112   1.547  -2.943  0.2172 -0.4324 -0.1185
 6625TIP3    H144070  -2.165   1.519  -3.018  0.3445 -0.1165 -0.3309
 6625TIP3    H244071  -2.175   1.555  -2.872 -0.3134  1.3634 -0.7249
 6626TIP3   OH244072  -3.291  -3.078  -4.778 -0.5575  0.1129 -0.0053
 6626TIP3    H144073  -3.290  -3.130  -4.859  0.4253  0.5149 -0.2644
 6626TIP3    H244074  -3.240  -3.000  -4.799 -0.1518  0.1502  1.0498
 6627TIP3   OH244075   2.321   2.520  -4.609  0.4937  0.7622  0.2250
 6627TIP3    H144076   2.382   2.512  -4.682  1.0965  0.0535  0.7918
 6627TIP3    H244077   2.236   2.534  -4.650  0.8377  0.4792 -0.6029
 6628TIP3   OH244078  -2.937   2.197  -3.220 -0.2537  0.2018 -0.1133
 6628TIP3    H144079  -2.963   2.183  -3.311 -0.3194  2.8174 -0.5844
 6628TIP3    H244080  -2.988   2.133  -3.170  0.3716 -1.8370 -1.9237
 6629TIP3   OH244081  -2.771   2.969  -4.429  0.1928 -0.0700 -0.0210
 6629TIP3    H144082  -2.814   2.918  -4.497  0.4356 -0.6155  0.2342
 6629TIP3    H244083  -2.707   3.022  -4.476  0.1431 -0.2130 -0.2504
 6630TIP3   OH244084  -1.868   2.454  -4.813  0.1813  0.1761  0.0867
 6630TIP3    H144085  -1.887   2.397  -4.888  1.0791  0.4393 -0.3481
 6630TIP3    H244086  -1.927   2.422  -4.745 -1.4514  0.6288 -1.0329
 6631TIP3   OH244087   2.478  -0.750  -5.111  0.7297 -0.4533  0.1794
 6631TIP3    H144088   2.498  -0.760  -5.018  2.6736 -1.0523 -0.2668
 6631TIP3    H244089   2.505  -0.833  -5.151 -1.7260 -0.9146 -0.7134
 6632TIP3   OH244090   0.168   2.562  -4.677  0.8081  0.1996  0.2397
 6632TIP3    H144091   0.197   2.524  -4.760  1.5623  0.2032  0.4891
 6632TIP3    H244092   0.082   2.523  -4.661  1.0918 -0.5697 -0.0509
 6633TIP3   OH244093  -1.709  -1.230  -4.673  0.0511 -0.1120  0.2463
 6633TIP3    H144094  -1.794  -1.205  -4.637  1.0576 -0.2040  2.8411
 6633TIP3    H244095  -1.697  -1.321  -4.646  1.7350  0.4368  1.5150
 6634TIP3   OH244096   2.004  -2.192  -2.813  0.0854 -0.2847 -0.5039
 6634TIP3    H144097   2.043  -2.174  -2.728  1.5446  0.0153 -1.2046
 6634TIP3    H244098   1.978  -2.106  -2.847 -0.3520 -0.3865 -0.4352
 6635TIP3   OH244099  -0.509  -1.887  -5.583  0.4451 -0.2696  0.2078
 6635TIP3    H144100  -0.575  -1.905  -5.516  0.4828 -1.3969 -0.0472
 6635TIP3    H244101  -0.492  -1.793  -5.575 -1.1219  0.0271  0.3401
 6636TIP3   OH244102  -2.619   0.902  -4.708 -0.3734 -0.2010  0.3031
 6636TIP3    H144103  -2.585   0.951  -4.784  1.6826 -0.4372  0.9901
 6636TIP3    H244104  -2.611   0.810  -4.735 -0.8552 -0.2553  0.3428
 6637TIP3   OH244105   0.380  -1.802  -3.707  0.2793  0.6266  0.4115
 6637TIP3    H144106   0.407  -1.783  -3.617  1.6712  0.3513  0.0831
 6637TIP3    H244107   0.345  -1.719  -3.740 -0.4467  0.6711  1.2622
 6638TIP3   OH244108   2.270   3.093  -5.584  0.3039 -0.0393 -0.3562
 6638TIP3    H144109   2.204   3.162  -5.594 -0.7751 -1.1673 -1.3602
 6638TIP3    H244110   2.317   3.094  -5.668  0.0673 -0.7301 -0.5003
 6639TIP3   OH244111  -2.000  -2.949  -3.066  0.8314 -0.6018 -0.2413
 6639TIP3    H144112  -1.985  -2.856  -3.085 -0.9714 -0.3604 -0.6036
 6639TIP3    H244113  -1.946  -2.995  -3.131  1.6061  0.1766 -0.1730
 6640TIP3   OH244114  -1.292  -1.314  -3.755 -0.4644 -0.1316  0.1439
 6640TIP3    H144115  -1.362  -1.257  -3.723 -1.2580 -0.7271 -0.5051
 6640TIP3    H244116  -1.256  -1.353  -3.675 -1.1239 -0.1029  0.4666
 6641TIP3   OH244117  -1.002  -2.064  -3.066  0.0429  0.1021  0.3257
 6641TIP3    H144118  -0.995  -2.158  -3.082 -2.5405  0.0853 -1.3078
 6641TIP3    H244119  -0.913  -2.036  -3.044  0.7695 -2.8104  1.6232
 6642TIP3   OH244120  -0.760  -1.210  -5.377  0.2879  0.1888 -0.1078
 6642TIP3    H144121  -0.741  -1.274  -5.309  0.6743  1.5571  1.1225
 6642TIP3    H244122  -0.799  -1.261  -5.448 -0.5651 -1.2255  1.3181
 6643TIP3   OH244123  -2.987   0.406  -4.305  0.4747 -0.1033  0.5354
 6643TIP3    H144124  -2.903   0.363  -4.287 -0.3695 -1.3332  1.6992
 6643TIP3    H244125  -3.009   0.378  -4.394  3.8606  4.6663 -2.3023
 6644TIP3   OH244126  -0.136   2.487  -4.672  0.7990 -0.0319 -0.4100
 6644TIP3    H144127  -0.213   2.430  -4.668  0.8357 -0.1527 -1.2555
 6644TIP3    H244128  -0.166   2.565  -4.719  0.6702  0.8041  0.9729
 6645TIP3   OH244129  -0.848  -0.035  -5.183 -0.1829 -0.1655  0.0590
 6645TIP3    H144130  -0.799   0.027  -5.130  1.5519 -0.3466 -1.2424
 6645TIP3    H244131  -0.857   0.008  -5.268 -0.0810 -1.1507 -0.4663
 6646TIP3   OH244132  -2.811  -0.623  -2.825  0.2728  0.1068 -0.0153
 6646TIP3    H144133  -2.749  -0.681  -2.871 -0.8549 -1.1325 -0.0500
 6646TIP3    H244134  -2.859  -0.682  -2.767  0.2238  1.3142  1.1942
 6647TIP3   OH244135   3.201   2.041  -4.553  0.2476  0.1627 -0.8625
 6647TIP3    H144136   3.189   2.087  -4.470  1.0315  1.9407 -1.6898
 6647TIP3    H244137   3.115   2.005  -4.573 -0.2890  0.9082  0.0184
 6648TIP3   OH244138   0.511   3.376  -5.572  0.2344 -0.2387 -0.6764
 6648TIP3    H144139   0.431   3.409  -5.613 -0.0193 -0.0344 -0.0268
 6648TIP3    H244140   0.582   3.417  -5.622 -0.0563 -0.7916 -1.5551
 6649TIP3   OH244141   0.460  -1.754  -3.444 -0.3258  0.3585  0.1905
 6649TIP3    H144142   0.401  -1.761  -3.369  0.7457 -1.8484  0.9106
 6649TIP3    H244143   0.540  -1.716  -3.408 -1.0279  2.8150 -0.6672
 6650TIP3   OH244144   1.578  -3.075  -3.194  0.5974 -0.0518 -0.3483
 6650TIP3    H144145   1.671  -3.080  -3.213  0.6062 -1.2361 -0.0776
 6650TIP3    H244146   1.536  -3.119  -3.267  0.4373 -1.8061  0.7453
 6651TIP3   OH244147  -0.413   3.374  -5.462 -0.5918  1.0724 -0.2181
 6651TIP3    H144148  -0.376   3.460  -5.481 -0.1449  1.1972  1.1054
 6651TIP3    H244149  -0.480   3.391  -5.396  0.2767  0.3025  0.9065
 6652TIP3   OH244150  -0.565   1.378  -2.960 -0.4606  0.3617 -0.0814
 6652TIP3    H144151  -0.508   1.313  -3.000 -0.4401  0.6121 -0.4686
 6652TIP3    H244152  -0.612   1.330  -2.892  1.4080  0.5283  1.3909
 6653TIP3   OH244153  -0.053   1.922  -4.904  0.1055  0.3198 -0.4738
 6653TIP3    H144154  -0.140   1.911  -4.865 -0.1367  0.7525 -0.8867
 6653TIP3    H244155  -0.063   1.894  -4.994  1.0955 -2.4472  0.1740
 6654TIP3   OH244156   2.006  -0.983  -5.518  0.0390 -0.4271  0.1609
 6654TIP3    H144157   2.094  -0.947  -5.515 -0.1630  0.0908 -0.0902
 6654TIP3    H244158   1.999  -1.036  -5.438  0.2867  0.2048  0.6063
 6655TIP3   OH244159   1.888   0.625  -5.436 -0.1573 -0.4277  0.6443
 6655TIP3    H144160   1.953   0.581  -5.381 -0.0527 -0.8310  0.2094
 6655TIP3    H244161   1.929   0.708  -5.460 -0.7766  0.4030  2.3277
 6656TIP3   OH244162   1.601  -1.139  -5.564 -0.6130  0.1049 -0.0299
 6656TIP3    H144163   1.606  -1.106  -5.474  0.1196  1.2527 -0.4636
 6656TIP3    H244164   1.622  -1.062  -5.618  0.0580 -0.8258 -1.1263
 6657TIP3   OH244165  -2.761  -2.721  -3.832 -0.0846 -0.0980 -0.2521
 6657TIP3    H144166  -2.753  -2.792  -3.768 -0.9087  0.9704  1.0953
 6657TIP3    H244167  -2.777  -2.643  -3.779 -2.7132  0.5450 -1.7941
 6658TIP3   OH244168  -1.237   3.123  -5.030  0.3767  0.0790 -0.5856
 6658TIP3    H144169  -1.187   3.196  -4.993 -0.8470 -0.1390  1.7175
 6658TIP3    H244170  -1.306   3.106  -4.965 -0.4885 -1.9418 -1.9267
 6659TIP3   OH244171  -3.275   0.077  -2.849 -0.3348 -0.0718  0.1096
 6659TIP3    H144172  -3.302  -0.002  -2.802 -0.0206 -0.0807  0.2828
 6659TIP3    H244173  -3.310   0.150  -2.798  0.4385 -0.0672  0.6464
 6660TIP3   OH244174   1.734   2.161  -4.620 -0.2473 -0.2116 -0.7701
 6660TIP3    H144175   1.803   2.210  -4.575  2.6242 -2.1891 -2.6611
 6660TIP3    H244176   1.708   2.217  -4.693  1.8728 -0.7398 -2.0001
 6661TIP3   OH244177  -0.286   1.552  -3.090 -0.8988 -0.0845  0.4486
 6661TIP3    H144178  -0.330   1.575  -3.008 -3.1065 -2.1723 -0.0179
 6661TIP3    H244179  -0.356   1.554  -3.156  0.2014 -1.2152 -0.8222
 6662TIP3   OH244180   1.188  -3.292  -4.724 -0.0017  0.5472 -0.1279
 6662TIP3    H144181   1.229  -3.375  -4.700 -0.4205  0.4824  0.3768
 6662TIP3    H244182   1.099  -3.299  -4.690 -0.4216  0.7128 -1.1567
 6663TIP3   OH244183  -2.890  -1.364  -4.614 -0.1864 -0.1191  0.0375
 6663TIP3    H144184  -2.859  -1.298  -4.677 -1.5207 -0.3023 -0.8471
 6663TIP3    H244185  -2.814  -1.420  -4.599 -0.1867 -0.9105 -2.5158
 6664TIP3   OH244186   1.810  -1.632  -3.394 -0.0635 -0.4276 -0.0783
 6664TIP3    H144187   1.745  -1.563  -3.410  0.2552  0.3188  1.6949
 6664TIP3    H244188   1.758  -1.707  -3.365 -0.2008 -0.0268  0.7424
 6665TIP3   OH244189  -2.565  -1.902  -2.425  0.5602  0.0205 -0.6169
 6665TIP3    H144190  -2.517  -1.827  -2.461  0.3397 -0.8531 -2.9200
 6665TIP3    H244191  -2.656  -1.873  -2.423  0.3683 -0.3457 -2.1880
 6666TIP3   OH244192  -1.874  -1.067  -5.510  0.4832  0.6490 -0.2574
 6666TIP3    H144193  -1.900  -0.981  -5.542  0.6369  1.3359  1.3976
 6666TIP3    H244194  -1.868  -1.058  -5.415 -1.7892 -1.7945  0.2439
 6667TIP3   OH244195  -2.816   1.944  -5.471  0.0244  0.2844 -0.0240
 6667TIP3    H144196  -2.883   2.011  -5.476 -0.3414 -0.1448 -1.0922
 6667TIP3    H244197  -2.841   1.891  -5.395 -1.5323 -0.5593 -1.0603
 6668TIP3   OH244198   2.554   0.942  -3.092  0.1940  0.2597 -0.1407
 6668TIP3    H144199   2.525   0.919  -3.003  0.7614 -1.0805 -0.2829
 6668TIP3    H244200   2.643   0.974  -3.081 -0.3443  1.7863 -0.0338
 6669TIP3   OH244201  -2.060  -1.082  -4.762  0.0268  0.0817 -0.0516
 6669TIP3    H144202  -2.051  -1.095  -4.667  2.0317  0.7369 -0.1085
 6669TIP3    H244203  -2.002  -1.148  -4.800 -0.7004 -0.1159 -0.8506
 6670TIP3   OH244204  -2.617  -1.299  -2.571 -0.6371 -0.4278 -0.2217
 6670TIP3    H144205  -2.710  -1.288  -2.549 -0.3937 -1.0204  1.2593
 6670TIP3    H244206  -2.570  -1.257  -2.498  0.2376 -2.8843  0.7356
 6671TIP3   OH244207   0.686  -1.263  -3.502  0.1613 -0.1474  0.0372
 6671TIP3    H144208   0.700  -1.289  -3.411  1.2544  0.9902  0.2238
 6671TIP3    H244209   0.612  -1.315  -3.531 -2.2722  1.6269  2.5335
 6672TIP3   OH244210   2.695   0.996  -5.262  0.0251  0.3005 -0.2648
 6672TIP3    H144211   2.686   0.959  -5.350 -0.9323  0.3610 -0.2019
 6672TIP3    H244212   2.790   1.002  -5.249  0.3366 -3.1846  0.1632
 6673TIP3   OH244213  -1.086   3.251  -4.338  0.1478  0.2213  0.1124
 6673TIP3    H144214  -1.103   3.338  -4.374  0.7674  0.6726  0.9001
 6673TIP3    H244215  -1.173   3.212  -4.330 -0.3107  1.4438  1.4318
 6674TIP3   OH244216  -0.909  -1.042  -4.038  0.3995 -0.0006 -0.3020
 6674TIP3    H144217  -0.820  -1.013  -4.019  0.8915 -0.2559 -2.0182
 6674TIP3    H244218  -0.946  -1.062  -3.952  2.1090 -0.2282  0.4375
 6675TIP3   OH244219  -3.288   3.333  -4.782 -0.4146 -0.0691 -0.3646
 6675TIP3    H144220  -3.296   3.413  -4.729  1.2801 -0.3025  0.2953
 6675TIP3    H244221  -3.275   3.365  -4.871 -0.8711  0.3687 -0.2782
 6676TIP3   OH244222  -1.256   1.705  -5.421  0.5217  0.1233  0.1046
 6676TIP3    H144223  -1.191   1.710  -5.491  0.2625 -0.5184 -0.1957
 6676TIP3    H244224  -1.213   1.743  -5.345  0.6552  1.2341 -0.5040
 6677TIP3   OH244225   3.135   2.369  -3.380  0.2578 -0.3529  0.8335
 6677TIP3    H144226   3.069   2.424  -3.339 -0.7959 -0.7753 -0.2420
 6677TIP3    H244227   3.136   2.397  -3.472  1.3778 -0.5495  0.7687
 6678TIP3   OH244228   0.227  -2.352  -3.562  0.2939 -0.6186  0.0680
 6678TIP3    H144229   0.302  -2.406  -3.538  0.9217 -0.0799 -0.6331
 6678TIP3    H244230   0.266  -2.270  -3.594 -0.6277  0.8179  2.3159
 6679TIP3   OH244231  -2.122  -1.800  -3.103 -0.3369  0.1799 -0.0300
 6679TIP3    H144232  -2.168  -1.784  -3.020  1.5688 -1.9987  1.5856
 6679TIP3    H244233  -2.085  -1.715  -3.126 -0.3344  0.7230  1.7645
 6680TIP3   OH244234   2.515   1.675  -3.280 -0.0159  0.0364 -0.3177
 6680TIP3    H144235   2.502   1.715  -3.366 -1.5020  1.0965  0.3544
 6680TIP3    H244236   2.427   1.664  -3.246  0.5253 -1.1237  0.7499
 6681TIP3   OH244237   3.155  -0.513  -5.772 -0.0503 -0.3701  1.0324
 6681TIP3    H144238   3.153  -0.443  -5.837 -0.0339 -1.9978 -0.8143
 6681TIP3    H244239   3.106  -0.478  -5.698 -0.0200  1.5800  0.2005
 6682TIP3   OH244240   1.123   0.349  -5.114 -0.0283 -0.0696 -0.2479
 6682TIP3    H144241   1.148   0.312  -5.199 -1.1232  0.6116 -0.9034
 6682TIP3    H244242   1.069   0.425  -5.137  0.6639  0.8544  1.0560
 6683TIP3   OH244243  -0.152  -2.264  -4.111  0.0939  0.6459 -0.4365
 6683TIP3    H144244  -0.168  -2.206  -4.037 -1.3657  0.5727 -0.6609
 6683TIP3    H244245  -0.080  -2.223  -4.159  0.2696  1.3137  0.3801
 6684TIP3   OH244246  -2.730   2.103  -4.536 -0.0553 -0.2293 -0.5835
 6684TIP3    H144247  -2.763   2.028  -4.587  0.1041 -0.9086  0.2824
 6684TIP3    H244248  -2.797   2.116  -4.469  1.5452 -1.9129  1.4873
 6685TIP3   OH244249  -0.023   1.719  -3.643 -0.0554  0.5521 -0.4797
 6685TIP3    H144250   0.023   1.786  -3.694  0.2413  1.0395  0.4126
 6685TIP3    H244251   0.043   1.684  -3.584 -0.5064  0.3295 -0.1027
 6686TIP3   OH244252   2.328  -0.520  -3.597  0.2823 -0.1819 -0.7298
 6686TIP3    H144253   2.326  -0.460  -3.671 -1.6229 -3.5711 -3.7137
 6686TIP3    H244254   2.237  -0.544  -3.582  0.8120 -1.0673  1.4963
 6687TIP3   OH244255   2.231  -1.912  -5.505  0.1800  0.5985  0.1325
 6687TIP3    H144256   2.291  -1.969  -5.457  1.4650  1.1659 -0.7386
 6687TIP3    H244257   2.255  -1.824  -5.479 -0.5535  0.8262  0.0652
 6688TIP3   OH244258   2.529   2.547  -5.640 -1.0376  0.6610 -0.1637
 6688TIP3    H144259   2.438   2.577  -5.647 -2.7365 -3.4987  0.5308
 6688TIP3    H244260   2.533   2.470  -5.698  2.0232  0.6102 -0.0279
 6689TIP3   OH244261  -0.815   3.193  -3.055  0.6543  0.0515 -0.1248
 6689TIP3    H144262  -0.775   3.115  -3.018  0.5780  0.4038  0.7476
 6689TIP3    H244263  -0.862   3.163  -3.132 -0.1696 -0.9368  0.7312
 6690TIP3   OH244264   1.194   2.641  -3.864  0.1506 -0.0435 -0.3697
 6690TIP3    H144265   1.192   2.708  -3.932 -1.2906 -1.0800 -1.4033
 6690TIP3    H244266   1.196   2.559  -3.912 -1.1155 -0.8060  0.8243
 6691TIP3   OH244267   1.711   2.466  -3.177  0.4702  0.2099 -0.0065
 6691TIP3    H144268   1.737   2.532  -3.112  0.0202  0.1645  0.2281
 6691TIP3    H244269   1.619   2.448  -3.156  0.7242 -0.8320  0.2299
 6692TIP3   OH244270   0.620  -3.033  -2.706 -0.3554  0.1158  0.2714
 6692TIP3    H144271   0.582  -3.099  -2.765  1.0288 -1.2619  0.8217
 6692TIP3    H244272   0.587  -3.056  -2.619 -0.0275  0.2658  0.4391
 6693TIP3   OH244273  -0.101   2.560  -4.965 -0.7609  0.1607 -0.1547
 6693TIP3    H144274  -0.183   2.571  -5.013  0.5098  0.0787 -2.5070
 6693TIP3    H244275  -0.079   2.468  -4.976 -0.2800  0.2044  0.3916
 6694TIP3   OH244276   0.348   2.904  -4.709  0.0850 -0.4639  0.1742
 6694TIP3    H144277   0.340   2.858  -4.792 -1.4238  1.9524 -1.1243
 6694TIP3    H244278   0.268   2.880  -4.661 -1.1172  1.2832 -0.8406
 6695TIP3   OH244279  -2.533   0.516  -5.218  0.1019 -0.1062 -0.2871
 6695TIP3    H144280  -2.615   0.484  -5.180  0.3252 -1.5948 -0.9849
 6695TIP3    H244281  -2.466   0.491  -5.154  0.1915 -0.4209 -0.4985
 6696TIP3   OH244282   1.920   1.924  -2.543 -0.2337  0.2244 -0.2318
 6696TIP3    H144283   1.929   1.902  -2.636 -1.4344  0.6619 -0.4750
 6696TIP3    H244284   1.941   2.017  -2.539 -0.6304  0.3156 -0.1585
 6697TIP3   OH244285  -1.849   1.626  -5.286 -1.0203  0.2383  0.0666
 6697TIP3    H144286  -1.837   1.598  -5.376 -0.1939  1.9734 -0.4230
 6697TIP3    H244287  -1.943   1.641  -5.277 -0.9419  1.6778 -1.0859
 6698TIP3   OH244288  -0.599   0.601  -3.413 -0.2416  0.4271  0.2436
 6698TIP3    H144289  -0.509   0.632  -3.415 -0.7622  2.0163 -0.3141
 6698TIP3    H244290  -0.595   0.510  -3.444  0.8807  1.2844 -2.3917
 6699TIP3   OH244291  -1.735  -0.649  -3.571 -0.4357  0.2596  0.2228
 6699TIP3    H144292  -1.678  -0.572  -3.576  0.3494 -0.3402 -0.3691
 6699TIP3    H244293  -1.702  -0.707  -3.640 -0.3921 -1.0183  1.2866
 6700TIP3   OH244294  -2.957  -1.547  -4.919 -0.0823 -0.3738  0.2059
 6700TIP3    H144295  -3.017  -1.604  -4.967  0.0255 -0.2178 -0.1180
 6700TIP3    H244296  -2.877  -1.599  -4.910  0.2437 -0.0428 -0.6637
 6701TIP3   OH244297   0.653  -1.065  -2.816 -0.2569  0.1028  0.6206
 6701TIP3    H144298   0.648  -0.970  -2.817 -0.5720  0.0920 -0.4065
 6701TIP3    H244299   0.564  -1.094  -2.834  0.2369 -0.3380 -1.4121
 6702TIP3   OH244300  -2.170  -0.373  -4.727  0.1069  0.0725 -0.5520
 6702TIP3    H144301  -2.201  -0.463  -4.722 -0.0451 -0.0694 -2.7882
 6702TIP3    H244302  -2.119  -0.370  -4.809  2.1395  1.4376  0.6633
 6703TIP3   OH244303  -1.008  -2.084  -5.672  0.1536 -0.0225  0.0073
 6703TIP3    H144304  -0.950  -2.027  -5.722 -3.3271  1.3426 -2.9949
 6703TIP3    H244305  -1.046  -2.027  -5.605 -0.1148 -0.0145 -0.1514
 6704TIP3   OH244306  -2.091   2.634  -3.392 -0.4139 -0.4061 -0.1931
 6704TIP3    H144307  -2.057   2.587  -3.315 -0.4901 -1.4423 -0.7704
 6704TIP3    H244308  -2.024   2.699  -3.412 -0.1879 -0.4163  0.4862
 6705TIP3   OH244309  -2.374   1.394  -4.659  0.2420 -0.4283  0.3966
 6705TIP3    H144310  -2.303   1.449  -4.626  0.5738  0.5899 -1.8678
 6705TIP3    H244311  -2.351   1.375  -4.750 -0.6998 -2.9892  0.5912
 6706TIP3   OH244312  -1.294   0.168  -4.368  0.4409 -0.2483  0.4281
 6706TIP3    H144313  -1.259   0.208  -4.288  0.6417 -0.4806  0.4584
 6706TIP3    H244314  -1.223   0.113  -4.400 -0.0438 -1.0791  0.7420
 6707TIP3   OH244315   0.062   2.573  -5.272 -0.3395 -0.3885 -0.5126
 6707TIP3    H144316   0.122   2.512  -5.315  0.2318 -1.0859  1.2034
 6707TIP3    H244317  -0.013   2.519  -5.246 -0.5958 -0.0168 -0.4733
 6708TIP3   OH244318  -1.909  -2.373  -5.523 -0.4016 -0.4531 -0.1282
 6708TIP3    H144319  -1.920  -2.376  -5.618 -1.3257 -0.2012 -0.0322
 6708TIP3    H244320  -1.918  -2.280  -5.501 -0.9280 -0.6042  0.2940
 6709TIP3   OH244321  -2.925  -2.259  -4.790 -0.4652  0.6592  0.5538
 6709TIP3    H144322  -2.857  -2.227  -4.731 -0.6629  2.3877 -0.0712
 6709TIP3    H244323  -2.908  -2.213  -4.872 -2.0873  0.7597  0.2385
 6710TIP3   OH244324  -3.050   0.316  -3.836 -0.9378 -0.1063  0.0871
 6710TIP3    H144325  -3.010   0.235  -3.803 -0.7219  0.2717  0.7818
 6710TIP3    H244326  -3.019   0.383  -3.775 -3.0097  0.1419  0.9319
 6711TIP3   OH244327  -1.997  -0.475  -2.966  0.2280 -0.2613 -0.0080
 6711TIP3    H144328  -2.073  -0.422  -2.943 -0.0371 -0.4964 -0.3520
 6711TIP3    H244329  -2.003  -0.552  -2.909 -0.2095 -0.6490 -0.5727
 6712TIP3   OH244330   2.861  -2.366  -4.791 -0.7630 -0.6144  0.1594
 6712TIP3    H144331   2.836  -2.447  -4.836  0.3570 -0.8126 -0.1472
 6712TIP3    H244332   2.940  -2.390  -4.742  0.0720  0.4923 -0.5990
 6713TIP3   OH244333   0.993   2.972  -4.308 -1.0134 -1.2032  0.2280
 6713TIP3    H144334   0.911   2.923  -4.314 -2.4347  1.0842 -0.4299
 6713TIP3    H244335   1.021   2.982  -4.399 -2.2569  1.4006  0.0134
 6714TIP3   OH244336   1.820  -1.225  -2.535 -0.6924 -0.0517  0.1686
 6714TIP3    H144337   1.762  -1.185  -2.471 -2.9947 -1.6387 -0.7731
 6714TIP3    H244338   1.864  -1.296  -2.487 -1.3244 -0.3271  0.3484
 6715TIP3   OH244339  -3.166   2.186  -4.412  0.0649  1.0191  0.1337
 6715TIP3    H144340  -3.077   2.208  -4.385  1.1547  0.2988 -2.5391
 6715TIP3    H244341  -3.184   2.102  -4.372  1.3685  0.2746 -0.7723
 6716TIP3   OH244342   2.910  -0.710  -2.732 -0.3623  0.2373 -0.2746
 6716TIP3    H144343   2.990  -0.752  -2.700 -0.6775  0.3945  0.7675
 6716TIP3    H244344   2.871  -0.670  -2.654 -1.4608  0.1621 -0.7634
 6717TIP3   OH244345  -0.044   1.623  -3.038  0.0843  0.3550  0.4003
 6717TIP3    H144346  -0.133   1.600  -3.063  0.6486  0.9250 -2.6302
 6717TIP3    H244347  -0.046   1.719  -3.028  0.5482  0.5465 -1.0148
 6718TIP3   OH244348  -0.546  -0.310  -5.356  0.3149 -0.3192  0.8058
 6718TIP3    H144349  -0.597  -0.380  -5.316  1.4116 -1.2593  0.5755
 6718TIP3    H244350  -0.458  -0.320  -5.322  1.2405 -0.9924 -1.5845
 6719TIP3   OH244351   3.261   1.271  -4.282 -0.3935  0.7362 -0.0199
 6719TIP3    H144352   3.271   1.181  -4.252 -1.6027  0.5720 -0.0447
 6719TIP3    H244353   3.336   1.318  -4.245  0.9567 -0.5201 -1.0444
 6720TIP3   OH244354   1.306   0.406  -3.698 -0.1205 -0.0390 -0.4372
 6720TIP3    H144355   1.251   0.353  -3.755  0.6575 -1.1367 -0.2158
 6720TIP3    H244356   1.271   0.391  -3.610  1.4838 -2.1227 -0.0620
 6721TIP3   OH244357   1.225  -2.096  -5.391  0.3654 -0.1017  0.1679
 6721TIP3    H144358   1.219  -2.001  -5.382  0.0200 -0.0019 -1.0009
 6721TIP3    H244359   1.318  -2.114  -5.398  0.3479  0.3538 -1.4846
 6722TIP3   OH244360   1.976  -2.470  -2.870  0.8344 -0.2037  0.0563
 6722TIP3    H144361   1.980  -2.375  -2.878 -1.2177  0.2350  2.7095
 6722TIP3    H244362   1.901  -2.496  -2.924 -0.8796  0.2439  2.0894
 6723TIP3   OH244363   0.302  -1.139  -4.453 -0.2328 -0.2131 -0.0650
 6723TIP3    H144364   0.392  -1.128  -4.482 -0.5368  1.8879 -0.3929
 6723TIP3    H244365   0.291  -1.234  -4.442  2.0836 -0.4979  0.2809
 6724TIP3   OH244366   1.214   1.554  -3.105 -0.3328 -0.2587 -0.1725
 6724TIP3    H144367   1.119   1.561  -3.097 -0.4396  0.9280 -1.9558
 6724TIP3    H244368   1.245   1.644  -3.102  0.7433 -0.6303  0.2803
 6725TIP3   OH244369   1.489  -0.592  -5.286  0.0979 -0.3139 -0.5070
 6725TIP3    H144370   1.423  -0.661  -5.297 -0.9277  0.6626 -0.6287
 6725TIP3    H244371   1.525  -0.608  -5.199  0.1420 -1.2124 -0.6740
 6726TIP3   OH244372  -0.091  -0.539  -3.935 -0.8074 -0.2196  0.3152
 6726TIP3    H144373  -0.144  -0.468  -3.899 -0.7297 -1.0311  2.1434
 6726TIP3    H244374  -0.125  -0.551  -4.024 -2.1210  0.8043  0.6341
 6727TIP3   OH244375  -3.133   2.243  -4.974 -0.3985 -0.1448 -0.2610
 6727TIP3    H144376  -3.200   2.251  -4.906 -1.9115  0.3280 -1.7579
 6727TIP3    H244377  -3.162   2.170  -5.028  0.3232  0.0343 -0.9123
 6728TIP3   OH244378  -1.342   0.926  -5.092  0.7882 -0.0533 -0.1136
 6728TIP3    H144379  -1.383   0.994  -5.038  2.1256  0.1917  0.6371
 6728TIP3    H244380  -1.381   0.844  -5.062 -0.1102  0.2758 -0.3409
 6729TIP3   OH244381   1.231   3.017  -3.428 -0.1123 -0.5862 -0.1574
 6729TIP3    H144382   1.309   2.997  -3.376  1.3084  0.2919 -1.8520
 6729TIP3    H244383   1.164   3.039  -3.363  1.2403 -0.6695  1.3325
 6730TIP3   OH244384  -2.411   3.266  -3.026 -0.2661  0.1638 -0.3319
 6730TIP3    H144385  -2.370   3.267  -2.940 -1.5364  2.4146  0.3134
 6730TIP3    H244386  -2.423   3.358  -3.048 -3.9307 -0.3246 -0.9356
 6731TIP3   OH244387   0.638   3.068  -3.224  0.7609 -0.5711 -0.2111
 6731TIP3    H144388   0.714   3.084  -3.168  0.2375  0.6971  0.1694
 6731TIP3    H244389   0.630   2.973  -3.226  2.0785 -0.7092  0.1152
 6732TIP3   OH244390  -0.671   0.740  -3.050 -0.6303  0.3134 -0.1231
 6732TIP3    H144391  -0.581   0.763  -3.025  0.2564 -1.4371 -1.4426
 6732TIP3    H244392  -0.702   0.682  -2.981 -0.4437  0.2858 -0.0623
 6733TIP3   OH244393   0.562   2.135  -3.733  0.6154  0.3427  0.1822
 6733TIP3    H144394   0.584   2.221  -3.696  0.3998 -0.6356  2.7262
 6733TIP3    H244395   0.577   2.073  -3.662 -3.4533 -1.2572 -0.1000
 6734TIP3   OH244396  -1.349   0.008  -3.117  0.1661 -0.0215  0.1790
 6734TIP3    H144397  -1.349  -0.059  -3.047 -0.8552  1.0028  1.2155
 6734TIP3    H244398  -1.424  -0.015  -3.171 -1.7459  1.5911  1.9508
 6735TIP3   OH244399   0.938   2.045  -3.721  0.0192 -0.1640  0.3516
 6735TIP3    H144400   0.868   2.020  -3.781 -0.3742  1.3835  0.1188
 6735TIP3    H244401   0.955   2.137  -3.741  1.4497 -0.2472  1.0796
 6736TIP3   OH244402  -1.584   3.204  -3.050 -0.2831  0.4180 -0.8723
 6736TIP3    H144403  -1.620   3.223  -2.963 -1.2619  2.0875 -1.5881
 6736TIP3    H244404  -1.661   3.201  -3.107  0.4033 -0.0055 -1.7932
 6737TIP3   OH244405   3.020  -2.784  -4.634 -0.2956  0.7260 -0.4474
 6737TIP3    H144406   3.024  -2.872  -4.597 -0.6985  1.0854  0.5051
 6737TIP3    H244407   2.927  -2.771  -4.655 -0.4559  1.3649  0.5844
 6738TIP3   OH244408  -1.607   1.850  -5.615 -0.2749 -0.0490  0.0879
 6738TIP3    H144409  -1.644   1.766  -5.587 -2.1250  0.1968 -1.4065
 6738TIP3    H244410  -1.682   1.910  -5.617  0.7862  1.3470 -0.0278
 6739TIP3   OH244411  -0.836  -2.203  -4.152  0.6920  0.0809 -0.1438
 6739TIP3    H144412  -0.925  -2.183  -4.122  0.8188  0.6303 -0.1248
 6739TIP3    H244413  -0.840  -2.195  -4.247  0.5269 -0.7035 -0.2097
 6740TIP3   OH244414  -3.340  -3.313  -3.443 -0.5332  0.0936 -0.6080
 6740TIP3    H144415  -3.421  -3.352  -3.411 -0.3776  0.7279  0.6088
 6740TIP3    H244416  -3.325  -3.238  -3.387  0.6872  0.2284 -1.0754
 6741TIP3   OH244417   1.724   1.127  -2.609  0.4953  0.0718 -0.4377
 6741TIP3    H144418   1.775   1.144  -2.530  2.0543 -1.2544 -1.1252
 6741TIP3    H244419   1.766   1.180  -2.677  1.2687 -1.3387 -1.0991
 6742TIP3   OH244420   0.503   2.333  -2.933 -0.4112  0.0751  0.1789
 6742TIP3    H144421   0.472   2.243  -2.939 -1.2126  0.3538  0.0155
 6742TIP3    H244422   0.453   2.381  -2.999 -1.7581  1.1145  1.8725
 6743TIP3   OH244423   2.569  -1.180  -5.903 -0.2430 -0.0424  0.0495
 6743TIP3    H144424   2.575  -1.219  -5.990  0.9330  0.2561 -0.0096
 6743TIP3    H244425   2.520  -1.099  -5.916  0.7401  0.4706 -0.4995
 6744TIP3   OH244426  -0.946  -0.686  -5.849  0.0640 -0.5067  0.2943
 6744TIP3    H144427  -0.936  -0.631  -5.926  0.1477 -1.5418 -0.4619
 6744TIP3    H244428  -0.917  -0.631  -5.776 -1.5869  1.0642 -0.1680
 6745TIP3   OH244429   2.925   2.715  -2.649  0.2378  0.6885  0.1188
 6745TIP3    H144430   2.986   2.674  -2.589  1.5974  0.6566 -1.2290
 6745TIP3    H244431   2.975   2.728  -2.730 -1.4111  1.0375 -0.9061
 6746TIP3   OH244432  -0.085   1.881  -3.025  0.1344  0.0202 -0.4226
 6746TIP3    H144433  -0.062   1.946  -2.959  0.3470  2.1318 -2.4344
 6746TIP3    H244434  -0.059   1.921  -3.108 -0.5438 -2.3006 -1.8548
 6747TIP3   OH244435   2.320  -2.700  -3.350 -0.6901  0.0269  0.1813
 6747TIP3    H144436   2.366  -2.634  -3.402  0.6470  0.4776  1.8374
 6747TIP3    H244437   2.299  -2.655  -3.268 -1.1739 -1.1500  0.7291
 6748TIP3   OH244438  -3.264   0.793  -4.146 -0.0199 -0.0335  0.1619
 6748TIP3    H144439  -3.250   0.698  -4.143 -1.6897 -0.2788  0.8476
 6748TIP3    H244440  -3.179   0.829  -4.120  1.0964 -1.2716 -1.5259
 6749TIP3   OH244441   2.925  -1.553  -4.536  0.6201  0.3602 -0.1180
 6749TIP3    H144442   2.918  -1.480  -4.597 -1.3219 -0.2924 -0.7598
 6749TIP3    H244443   3.010  -1.592  -4.555 -0.1333 -0.1461 -2.8182
 6750TIP3   OH244444   2.789  -0.871  -3.494  0.4886  0.4536 -0.1695
 6750TIP3    H144445   2.839  -0.951  -3.478  1.0140  0.9860  0.9989
 6750TIP3    H244446   2.839  -0.802  -3.450  0.1333  1.4630 -1.2879
 6751TIP3   OH244447  -2.285   1.181  -3.215  0.2509  0.3799  0.1529
 6751TIP3    H144448  -2.232   1.110  -3.180  1.3584  0.9655 -0.2752
 6751TIP3    H244449  -2.286   1.167  -3.310 -0.1809  0.5011  0.1342
 6752TIP3   OH244450   1.345  -1.963  -5.878  0.0337  0.3431  0.3292
 6752TIP3    H144451   1.331  -2.040  -5.932 -1.1785  0.0097  1.0722
 6752TIP3    H244452   1.437  -1.940  -5.891  0.0126 -0.3190 -1.0643
 6753TIP3   OH244453   3.319  -1.880  -4.303 -0.0049 -0.2024 -0.1072
 6753TIP3    H144454   3.277  -1.963  -4.325  1.4182 -0.6005 -1.5254
 6753TIP3    H244455   3.413  -1.900  -4.305  0.4555  1.8336 -2.3846
 6754TIP3   OH244456   0.569   2.711  -4.180 -0.2803 -0.3240 -0.4872
 6754TIP3    H144457   0.567   2.615  -4.170 -1.7633 -0.3125 -0.4439
 6754TIP3    H244458   0.477   2.735  -4.195 -0.3213  1.3309  1.9392
 6755TIP3   OH244459   2.565   0.684  -4.414  0.5611  0.2142  0.0648
 6755TIP3    H144460   2.528   0.709  -4.329  1.3672  0.8664  0.2403
 6755TIP3    H244461   2.534   0.595  -4.429 -2.6700  1.3542 -0.7160
 6756TIP3   OH244462   2.941  -1.346  -3.426  0.1291 -0.7124  0.0077
 6756TIP3    H144463   3.024  -1.390  -3.443 -0.1811 -1.0593 -0.6477
 6756TIP3    H244464   2.886  -1.369  -3.500  0.7270  2.7761 -1.7483
 6757TIP3   OH244465  -3.096  -0.375  -3.128 -0.0776  0.4297  0.8333
 6757TIP3    H144466  -3.093  -0.290  -3.084  0.0156 -0.2866  2.2620
 6757TIP3    H244467  -3.020  -0.422  -3.093 -0.6957 -0.6022  0.8013
 6758TIP3   OH244468  -0.843   2.456  -3.691 -0.1399 -0.6308  0.1474
 6758TIP3    H144469  -0.921   2.425  -3.738  0.2524 -0.2359 -0.8005
 6758TIP3    H244470  -0.775   2.392  -3.714 -0.3403 -1.4008  1.5692
 6759TIP3   OH244471   0.577  -1.230  -4.860 -0.3758 -0.4430 -0.7159
 6759TIP3    H144472   0.541  -1.161  -4.804  2.1877  0.2267  0.2148
 6759TIP3    H244473   0.623  -1.183  -4.929 -0.1901 -1.2584 -1.1640
 6760TIP3   OH244474   0.207   1.638  -5.176 -0.6026  0.4860  0.5887
 6760TIP3    H144475   0.217   1.659  -5.083  3.0606  0.0601  0.4355
 6760TIP3    H244476   0.250   1.553  -5.186  0.5797  1.2772 -1.7238
 6761TIP3   OH244477  -2.091   2.288  -4.775 -0.1269 -0.1736  0.2161
 6761TIP3    H144478  -2.090   2.216  -4.838  1.7037  0.7165 -0.8819
 6761TIP3    H244479  -2.094   2.246  -4.689 -0.2071 -1.5103 -0.4202
 6762TIP3   OH244480   3.249  -1.757  -4.813  1.3223 -0.4469 -0.4373
 6762TIP3    H144481   3.316  -1.815  -4.776  0.3966 -0.5783  1.0935
 6762TIP3    H244482   3.169  -1.778  -4.765  0.5835  0.9316 -1.0071
 6763TIP3   OH244483   1.634   0.650  -5.170  0.4922 -0.3697  0.4502
 6763TIP3    H144484   1.665   0.707  -5.099  0.4763 -0.7606  0.7717
 6763TIP3    H244485   1.547   0.683  -5.190  1.2905  1.0725 -0.8136
 6764TIP3   OH244486   1.178   0.243  -4.275  0.3294 -0.4372  0.0598
 6764TIP3    H144487   1.219   0.312  -4.326  1.3273 -1.3575 -0.4224
 6764TIP3    H244488   1.104   0.285  -4.232  1.7041  1.2542  0.8704
 6765TIP3   OH244489  -3.283  -2.215  -2.663  0.5125 -0.1958  0.0666
 6765TIP3    H144490  -3.193  -2.241  -2.682  0.0503 -1.8502 -0.0515
 6765TIP3    H244491  -3.333  -2.296  -2.674 -0.8273  0.4438  1.2117
 6766TIP3   OH244492  -2.641  -2.714  -5.046 -1.0035 -0.1362 -0.4864
 6766TIP3    H144493  -2.616  -2.622  -5.052 -2.6077  0.4111  0.4561
 6766TIP3    H244494  -2.595  -2.757  -5.118  1.3115  1.0178  0.2073
 6767TIP3   OH244495  -1.203   0.851  -2.896  0.3001  0.3426  0.5471
 6767TIP3    H144496  -1.296   0.853  -2.917  0.3675 -3.1360 -0.7912
 6767TIP3    H244497  -1.160   0.856  -2.981  1.3221  0.8922  1.0802
 6768TIP3   OH244498   0.116  -1.370  -4.635 -0.1533 -0.0329  0.0277
 6768TIP3    H144499   0.055  -1.346  -4.704 -0.8816  1.1609  1.0532
 6768TIP3    H244500   0.189  -1.411  -4.681 -0.7397  0.4863 -1.4201
 6769TIP3   OH244501  -1.984  -1.883  -4.826 -0.3293 -0.0297 -0.1132
 6769TIP3    H144502  -1.970  -1.972  -4.860 -1.2252 -0.4883  0.6878
 6769TIP3    H244503  -2.079  -1.874  -4.820 -0.2485  0.9693 -0.1061
 6770TIP3   OH244504   2.046  -2.219  -5.766 -0.3969  0.0106  0.1140
 6770TIP3    H144505   2.006  -2.132  -5.778  0.5415  0.8310  2.4224
 6770TIP3    H244506   2.001  -2.256  -5.690  0.9589 -0.4435  0.7095
 6771TIP3   OH244507   2.973  -0.138  -4.447 -0.4488  0.6143 -0.0993
 6771TIP3    H144508   3.022  -0.183  -4.378 -1.1015 -0.3681 -0.2641
 6771TIP3    H244509   3.006  -0.176  -4.529  0.7194  2.1623 -0.3926
 6772TIP3   OH244510   2.591   0.410  -3.374 -0.1594 -0.6293 -0.5790
 6772TIP3    H144511   2.570   0.335  -3.319  0.3953 -0.1706  0.2794
 6772TIP3    H244512   2.586   0.485  -3.315 -0.2005 -0.0453 -1.3078
 6773TIP3   OH244513  -1.136   2.892  -5.422  0.1935 -0.6004  0.1285
 6773TIP3    H144514  -1.047   2.927  -5.412 -0.2233  0.3052  0.7841
 6773TIP3    H244515  -1.163   2.919  -5.509 -0.1122  0.7441  0.6139
 6774TIP3   OH244516  -1.627   2.779  -2.948  0.0633  0.0771  0.4721
 6774TIP3    H144517  -1.605   2.717  -3.017  2.5709  0.7284  0.5831
 6774TIP3    H244518  -1.687   2.841  -2.990 -1.7321 -1.8111  0.1053
 6775TIP3   OH244519   0.412  -3.264  -5.340 -0.0819  0.2355 -0.0089
 6775TIP3    H144520   0.474  -3.290  -5.272  0.9203 -0.6874 -1.2416
 6775TIP3    H244521   0.450  -3.297  -5.421 -0.8504  1.9945 -1.1378
 6776TIP3   OH244522  -2.615   1.574  -4.643 -0.0815  0.0983 -0.1804
 6776TIP3    H144523  -2.529   1.532  -4.649  0.4072  1.0389 -0.0246
 6776TIP3    H244524  -2.598   1.666  -4.662 -1.0775  0.2859 -0.2371
 6777TIP3   OH244525  -2.866   3.054  -2.397 -0.3363  0.5257 -0.3577
 6777TIP3    H144526  -2.918   3.047  -2.316  2.0006 -2.2347  1.0850
 6777TIP3    H244527  -2.790   3.106  -2.372  0.0776  0.2183 -0.9754
 6778TIP3   OH244528  -2.350   1.051  -5.261  0.4995 -0.1108 -0.3583
 6778TIP3    H144529  -2.324   1.141  -5.280  1.3744 -0.5126 -1.0803
 6778TIP3    H244530  -2.349   1.007  -5.345 -1.5320 -0.4183 -0.2741
 6779TIP3   OH244531   1.162  -2.731  -4.697  0.1770  1.2457  0.2388
 6779TIP3    H144532   1.233  -2.666  -4.691 -1.7397  3.3357  2.0736
 6779TIP3    H244533   1.117  -2.709  -4.779  0.0681  1.6863  0.4118
 6780TIP3   OH244534   2.801   0.851  -4.549  0.5418  0.5434 -0.2536
 6780TIP3    H144535   2.738   0.863  -4.478 -1.9794  0.5242 -2.3511
 6780TIP3    H244536   2.792   0.759  -4.575  3.6374 -0.3307  1.2219
 6781TIP3   OH244537  -1.607  -1.574  -3.400 -0.1141 -0.4864  0.4450
 6781TIP3    H144538  -1.566  -1.588  -3.486 -0.0221 -1.0236  0.5729
 6781TIP3    H244539  -1.564  -1.636  -3.342 -2.2316 -2.2712  0.2234
 6782TIP3   OH244540   0.997   1.723  -4.541 -0.2005  0.4272 -0.4087
 6782TIP3    H144541   0.934   1.793  -4.521 -0.6519  0.4598 -1.8315
 6782TIP3    H244542   1.069   1.738  -4.479  0.5599  3.2819 -1.7879
 6783TIP3   OH244543  -0.363   2.593  -5.094 -0.5455 -0.0185 -0.1076
 6783TIP3    H144544  -0.404   2.543  -5.165  0.8563 -0.7749 -0.4357
 6783TIP3    H244545  -0.418   2.577  -5.018 -1.6687  0.2076 -0.8502
 6784TIP3   OH244546   2.905   2.954  -1.917 -0.7150  0.0720  0.1407
 6784TIP3    H144547   2.964   3.007  -1.971 -2.7134  0.9292 -1.3225
 6784TIP3    H244548   2.892   2.874  -1.968  1.1120 -1.2851  1.6548
 6785TIP3   OH244549  -1.112  -1.951  -4.533  0.0768  0.3357 -0.5185
 6785TIP3    H144550  -1.140  -2.036  -4.499  1.0015  0.1296 -0.2393
 6785TIP3    H244551  -1.073  -1.971  -4.618  3.7855 -0.1294  1.1257
 6786TIP3   OH244552   0.919  -1.921  -4.125  0.6746  0.5466  0.1113
 6786TIP3    H144553   1.014  -1.935  -4.120  0.7906 -2.0533 -4.3029
 6786TIP3    H244554   0.881  -2.006  -4.104 -0.6291  1.1819  0.3998
 6787TIP3   OH244555   0.505   2.084  -4.658 -0.6008 -0.8366  0.0708
 6787TIP3    H144556   0.480   2.135  -4.582  2.5748  0.8354  0.1608
 6787TIP3    H244557   0.497   1.993  -4.630 -0.3650 -0.2682  2.1148
 6788TIP3   OH244558   2.249   0.516  -4.212 -0.1698  0.8524  0.4755
 6788TIP3    H144559   2.264   0.432  -4.169 -0.4807  1.1775  1.2322
 6788TIP3    H244560   2.322   0.571  -4.184  0.2782  0.7199 -0.3712
 6789TIP3   OH244561   0.579  -0.492  -5.109 -0.3625 -0.6032  0.1650
 6789TIP3    H144562   0.525  -0.414  -5.124 -0.0768 -0.2123  1.0887
 6789TIP3    H244563   0.579  -0.537  -5.194  2.3001  2.1719 -1.5314
 6790TIP3   OH244564   1.779   1.548  -5.718  0.1686  0.0658 -0.3324
 6790TIP3    H144565   1.762   1.472  -5.774  2.6897 -1.3528  0.6641
 6790TIP3    H244566   1.790   1.511  -5.630 -0.4915  1.8420  0.5449
 6791TIP3   OH244567   0.436   1.897  -4.293 -0.1857  0.0050  0.5452
 6791TIP3    H144568   0.414   1.891  -4.200  1.1269 -1.3520  0.8134
 6791TIP3    H244569   0.525   1.863  -4.298  0.7020  2.2915 -0.8867
 6792TIP3   OH244570   0.345  -2.105  -5.030 -0.1514 -0.0557  0.3605
 6792TIP3    H144571   0.349  -2.075  -4.940  0.6611 -0.7224  0.5566
 6792TIP3    H244572   0.411  -2.053  -5.076  0.1095 -0.3811  0.3595
 6793TIP3   OH244573   2.317   1.711  -4.764  0.6414 -0.2535 -0.0166
 6793TIP3    H144574   2.294   1.644  -4.829 -1.2730 -0.9780  1.3071
 6793TIP3    H244575   2.394   1.676  -4.719  1.7141  0.0535 -1.5370
 6794TIP3   OH244576   1.274   1.945  -3.953 -0.2953  0.2105  0.5445
 6794TIP3    H144577   1.317   2.031  -3.959  0.2701 -0.1141 -0.2399
 6794TIP3    H244578   1.288   1.918  -3.863  2.1071 -0.3413  0.0854
 6795TIP3   OH244579   0.323  -1.348  -5.316 -0.3196 -0.1102 -0.3577
 6795TIP3    H144580   0.405  -1.302  -5.299 -0.3675 -0.5563  1.3407
 6795TIP3    H244581   0.263  -1.280  -5.346  0.8387  0.0955 -2.3912
 6796TIP3   OH244582   1.147  -1.465  -4.958  0.1337 -0.2000 -1.1124
 6796TIP3    H144583   1.106  -1.433  -4.877 -0.1972 -1.2279 -0.8674
 6796TIP3    H244584   1.164  -1.385  -5.009 -0.6504  0.3714 -0.5000
 6797TIP3   OH244585   1.047  -0.812  -4.231  0.3760  0.2565  0.1974
 6797TIP3    H144586   1.110  -0.788  -4.164  0.8663 -1.1978  0.2924
 6797TIP3    H244587   1.042  -0.908  -4.227 -0.5279  0.2204 -0.9821
 6798TIP3   OH244588   2.346  -1.501  -3.855 -0.2884  0.0146 -0.4751
 6798TIP3    H144589   2.432  -1.472  -3.888 -0.8020  1.1167 -0.9018
 6798TIP3    H244590   2.328  -1.443  -3.781  0.0147 -1.2349  0.6156
 6799TIP3   OH244591   2.837  -0.206  -4.930  0.4770  0.5964  0.0502
 6799TIP3    H144592   2.821  -0.115  -4.957  1.8686  0.9200  0.2071
 6799TIP3    H244593   2.795  -0.259  -4.998  2.3029  1.3841 -1.8204
 6800TIP3   OH244594  -1.377  -3.174  -2.359  0.6536 -0.2161 -0.2188
 6800TIP3    H144595  -1.372  -3.242  -2.292  1.4010 -0.4782 -0.5257
 6800TIP3    H244596  -1.438  -3.109  -2.324  0.4022 -0.7470  0.3459
 6801TIP3   OH244597   2.796   2.028  -5.214  0.2392  0.1410  0.4640
 6801TIP3    H144598   2.820   1.944  -5.254 -1.1559  0.0565 -0.2860
 6801TIP3    H244599   2.878   2.076  -5.207  0.7182 -0.2984 -1.5073
 6802TIP3   OH244600  -0.078  -1.680  -3.046 -0.5266 -0.1716  0.2963
 6802TIP3    H144601  -0.051  -1.589  -3.060  0.5743 -0.3631  1.0665
 6802TIP3    H244602   0.004  -1.728  -3.038 -1.0498 -0.7904  2.7239
 6803TIP3   OH244603  -2.054  -0.122  -4.621  0.2943 -0.0609 -0.4973
 6803TIP3    H144604  -2.083  -0.208  -4.652 -1.1436  0.9863 -2.2852
 6803TIP3    H244605  -1.994  -0.090  -4.689 -2.0926  1.8356 -1.8871
 6804TIP3   OH244606   0.027  -2.390  -3.114  0.1971 -0.1283  0.4700
 6804TIP3    H144607   0.107  -2.388  -3.167  1.2887  2.6922  2.0062
 6804TIP3    H244608  -0.019  -2.309  -3.137 -2.3595 -1.6853 -0.4030
 6805TIP3   OH244609   0.299  -0.156  -5.411 -0.2908  0.1442 -0.5242
 6805TIP3    H144610   0.252  -0.138  -5.492 -2.8472  1.1179  1.0811
 6805TIP3    H244611   0.280  -0.081  -5.354  0.9409 -0.7771  1.2141
 6806TIP3   OH244612  -1.579  -1.461  -5.396 -0.0629 -0.1964  0.0169
 6806TIP3    H144613  -1.660  -1.424  -5.432  0.8252  0.1591 -1.6925
 6806TIP3    H244614  -1.603  -1.485  -5.306 -2.1002 -0.2301 -0.4693
 6807TIP3   OH244615  -1.945  -2.963  -3.879  0.2248 -0.7443 -0.1818
 6807TIP3    H144616  -1.886  -3.013  -3.823  0.0164 -0.0560  0.6728
 6807TIP3    H244617  -1.957  -2.880  -3.833  0.3513 -0.0010 -1.4427
 6808TIP3   OH244618  -3.331   0.388  -4.825 -0.1018 -0.5580  0.5008
 6808TIP3    H144619  -3.334   0.318  -4.760  2.9938  0.1199  1.5788
 6808TIP3    H244620  -3.359   0.347  -4.907 -2.4038 -1.8830  1.8477
 6809TIP3   OH244621   2.732   1.379  -2.263 -0.2155  0.0427 -0.6491
 6809TIP3    H144622   2.804   1.367  -2.201 -1.0815 -1.2506  0.1480
 6809TIP3    H244623   2.764   1.339  -2.344 -0.5635 -1.9813  0.1377
 6810TIP3   OH244624   1.982   2.873  -4.720  0.1020 -0.3126 -0.5367
 6810TIP3    H144625   2.008   2.927  -4.645 -0.3179 -0.0205 -0.5975
 6810TIP3    H244626   2.057   2.877  -4.779 -0.2830  1.0000 -0.9771
 6811TIP3   OH244627   1.637  -0.878  -5.685  0.1201 -0.2128 -0.1840
 6811TIP3    H144628   1.548  -0.872  -5.650  0.5409  0.2425  0.8472
 6811TIP3    H244629   1.662  -0.787  -5.701  0.7462 -0.2612  0.4626
 6812TIP3   OH244630  -3.230   1.552  -5.765 -0.0249 -0.0202 -0.1521
 6812TIP3    H144631  -3.307   1.496  -5.754 -1.9970  2.7410  1.4237
 6812TIP3    H244632  -3.167   1.519  -5.702 -1.4749  0.0405  1.3948
 6813TIP3   OH244633   1.587  -0.440  -5.533 -0.2299  0.0286 -0.4885
 6813TIP3    H144634   1.576  -0.348  -5.557  1.5222  0.3610 -0.1807
 6813TIP3    H244635   1.543  -0.448  -5.448  0.8926  0.9807  0.2112
 6814TIP3   OH244636  -2.357   0.915  -2.669  0.2526 -0.4664 -0.4204
 6814TIP3    H144637  -2.271   0.901  -2.629 -0.3694  0.8157  1.4984
 6814TIP3    H244638  -2.340   0.972  -2.743  1.0840 -0.3754 -0.1729
 6815TIP3   OH244639   1.999   1.109  -3.402  0.1950 -0.0503  0.1347
 6815TIP3    H144640   2.001   1.195  -3.442 -0.6936 -0.6554 -1.3168
 6815TIP3    H244641   1.999   1.048  -3.476  1.0713 -1.3091  1.1274
 6816TIP3   OH244642  -2.587  -2.385  -4.555  0.5082  0.0110 -0.2196
 6816TIP3    H144643  -2.511  -2.424  -4.598  0.6408 -0.8151  0.7275
 6816TIP3    H244644  -2.652  -2.455  -4.552  0.2241  0.2854  0.2149
 6817TIP3   OH244645  -3.007  -2.879  -5.727 -0.0539 -0.2571 -0.0175
 6817TIP3    H144646  -2.940  -2.947  -5.733  0.4231  0.0050  1.7671
 6817TIP3    H244647  -3.082  -2.915  -5.774  1.1390 -0.7929 -1.5735
 6818TIP3   OH244648  -0.773  -1.096  -4.940 -0.1861 -0.0993 -0.6782
 6818TIP3    H144649  -0.724  -1.026  -4.983 -1.3602  0.5105 -1.0834
 6818TIP3    H244650  -0.865  -1.070  -4.950 -0.5443  0.2586  2.4888
 6819TIP3   OH244651  -0.007  -0.646  -4.786 -0.1023 -0.7006 -0.4280
 6819TIP3    H144652   0.070  -0.641  -4.729 -0.7353  0.8273  0.3682
 6819TIP3    H244653   0.011  -0.582  -4.855 -0.7025 -0.2482 -0.1689
 6820TIP3   OH244654   2.343   2.880  -2.486  0.3302  0.0561  0.1090
 6820TIP3    H144655   2.286   2.811  -2.450  0.3186 -0.3992 -0.7477
 6820TIP3    H244656   2.368   2.847  -2.573 -1.5034  2.1086 -1.3093
 6821TIP3   OH244657  -2.210   2.051  -5.635 -0.2066 -0.1262 -0.3805
 6821TIP3    H144658  -2.268   2.127  -5.629  1.8527  1.6778 -1.7909
 6821TIP3    H244659  -2.260   1.986  -5.685 -1.5929  0.7273 -0.1460
 6822TIP3   OH244660   0.788   0.541  -5.510  0.1540 -0.0284  0.0412
 6822TIP3    H144661   0.751   0.604  -5.448  0.6080 -0.8336  1.1866
 6822TIP3    H244662   0.719   0.476  -5.523  1.1708 -1.7486  2.4921
 6823TIP3   OH244663   0.434   2.534  -5.474 -0.0638 -0.3142  0.0197
 6823TIP3    H144664   0.376   2.478  -5.423  1.4903 -1.8778  0.1787
 6823TIP3    H244665   0.423   2.505  -5.564 -2.3880  2.0674 -0.5662
 6824TIP3   OH244666   1.760  -1.462   4.042  0.3204 -0.3736 -0.1238
 6824TIP3    H144667   1.808  -1.391   4.085 -1.5210  0.7012  0.2843
 6824TIP3    H244668   1.683  -1.475   4.096 -0.1651 -1.6307 -1.0668
 6825TIP3   OH244669   1.288   1.895  -3.385 -0.0011 -0.1536  0.3846
 6825TIP3    H144670   1.197   1.904  -3.412  0.3532 -0.5891 -1.0594
 6825TIP3    H244671   1.338   1.939  -3.454  0.9035 -0.3939  0.8685
 6826TIP3   OH244672  -1.284   1.749  -3.971  0.2433 -0.0271 -0.2931
 6826TIP3    H144673  -1.226   1.683  -4.009  1.6750  0.1701  1.4187
 6826TIP3    H244674  -1.290   1.818  -4.038  0.0395 -1.1171 -1.4341
 6827TIP3   OH244675  -0.525  -1.642  -4.368  0.1581 -0.1618 -0.1291
 6827TIP3    H144676  -0.610  -1.611  -4.336 -0.0635 -0.7707 -0.1141
 6827TIP3    H244677  -0.540  -1.734  -4.390  0.1898  0.3266 -2.4429
 6828TIP3   OH244678  -2.327   2.498  -2.091 -0.0882  0.0841  0.1692
 6828TIP3    H144679  -2.258   2.564  -2.081  0.3610 -0.4285  0.4541
 6828TIP3    H244680  -2.408   2.549  -2.086  0.2600  0.8649 -1.3702
 6829TIP3   OH244681   1.390  -3.077  -4.266 -0.1152  0.6271  0.0039
 6829TIP3    H144682   1.475  -3.107  -4.234 -0.6854 -1.9479 -0.6833
 6829TIP3    H244683   1.352  -3.029  -4.193  1.6108  1.2161  0.5636
 6830TIP3   OH244684  -1.434   2.556  -4.291 -0.1913 -0.6731  0.5803
 6830TIP3    H144685  -1.386   2.564  -4.209 -1.8879  0.6018  1.4969
 6830TIP3    H244686  -1.458   2.464  -4.296  0.5638 -0.9069  1.1248
 6831TIP3   OH244687   0.228  -0.387  -4.236 -0.5308  0.3683  0.4009
 6831TIP3    H144688   0.226  -0.293  -4.256  1.4065  0.3060 -0.3180
 6831TIP3    H244689   0.306  -0.397  -4.182 -0.5538 -0.8855  0.2158
 6832TIP3   OH244690  -2.914   0.662  -4.294 -0.1816 -0.0465 -0.4307
 6832TIP3    H144691  -2.886   0.694  -4.380  2.2584 -2.2048 -0.5529
 6832TIP3    H244692  -2.957   0.578  -4.313 -0.8970  0.1328  0.3608
 6833TIP3   OH244693  -0.367   2.129  -4.579  0.0953 -0.0347 -0.1849
 6833TIP3    H144694  -0.447   2.104  -4.534  0.1022  1.7283  0.8937
 6833TIP3    H244695  -0.336   2.207  -4.533  0.3121  1.7015 -2.9815
 6834TIP3   OH244696  -0.944  -1.034  -3.757  0.2918 -0.1502  0.6792
 6834TIP3    H144697  -1.031  -1.000  -3.738  0.5107  0.7513  0.1643
 6834TIP3    H244698  -0.887  -0.957  -3.755  0.7912 -0.4492 -0.6410
 6835TIP3   OH244699   2.853   1.828  -4.859 -0.1205  0.0856  0.2997
 6835TIP3    H144700   2.759   1.833  -4.839 -0.2562 -1.4717  0.1612
 6835TIP3    H244701   2.857   1.779  -4.941  0.8235  0.1458  0.3037
 6836TIP3   OH244702  -1.597  -1.794  -3.163  1.0140  0.2129  0.3192
 6836TIP3    H144703  -1.574  -1.876  -3.119  0.2166 -0.0259  0.3153
 6836TIP3    H244704  -1.659  -1.820  -3.231 -0.5895  0.9923  1.4123
 6837TIP3   OH244705   0.441  -1.458  -4.638 -0.1266 -0.6596  0.0291
 6837TIP3    H144706   0.365  -1.470  -4.695 -0.6680  1.1808  0.3118
 6837TIP3    H244707   0.404  -1.437  -4.553  0.6722  1.1711 -0.0376
 6838TIP3   OH244708  -1.666   1.562  -3.997  0.3542  0.2366 -0.0485
 6838TIP3    H144709  -1.591   1.513  -3.964  0.3546  0.2299 -0.0589
 6838TIP3    H244710  -1.737   1.498  -4.001  0.2385  0.3377  0.3521
 6839TIP3   OH244711   0.799  -2.386  -2.368 -0.4694  0.7042 -0.0916
 6839TIP3    H144712   0.818  -2.475  -2.337  0.8788  1.1522  0.4293
 6839TIP3    H244713   0.869  -2.367  -2.430  0.5985  2.2393  1.5034
 6840TIP3   OH244714   0.854   1.428  -4.622 -0.3643 -0.1266  0.1705
 6840TIP3    H144715   0.886   1.338  -4.621  1.3729  0.4543  0.5595
 6840TIP3    H244716   0.858   1.456  -4.530  1.2030  0.9990 -0.1927
 6841TIP3   OH244717   1.773  -0.782  -4.482 -0.2527 -0.6587  0.8492
 6841TIP3    H144718   1.856  -0.780  -4.531 -1.6373 -1.5270 -1.6954
 6841TIP3    H244719   1.782  -0.859  -4.425  0.1330 -1.6584 -0.5090
 6842TIP3   OH244720  -1.573  -0.423  -3.593  0.2217 -0.0017  0.0576
 6842TIP3    H144721  -1.615  -0.366  -3.658 -1.1057  0.4586  1.2539
 6842TIP3    H244722  -1.525  -0.363  -3.536 -1.2211  0.0042  1.3529
 6843TIP3   OH244723   3.322  -3.291  -2.763  0.1678  0.2679 -0.1038
 6843TIP3    H144724   3.264  -3.260  -2.833  0.2532 -0.0851 -0.3340
 6843TIP3    H244725   3.316  -3.223  -2.696  0.1550  0.6561 -0.4880
 6844TIP3   OH244726  -2.617  -0.339  -2.407  0.7751  0.0162  0.0670
 6844TIP3    H144727  -2.607  -0.259  -2.459  2.9386  1.3182  2.2665
 6844TIP3    H244728  -2.534  -0.348  -2.361  0.0702 -2.7772  0.9670
 6845TIP3   OH244729   3.279   1.854  -2.690 -0.3658 -0.0388 -0.1309
 6845TIP3    H144730   3.252   1.867  -2.599 -1.0195 -0.0294 -0.3182
 6845TIP3    H244731   3.250   1.933  -2.735  0.1685  0.0604 -0.3019
 6846TIP3   OH244732   2.956  -1.898  -5.444  0.1209 -0.1911  0.0385
 6846TIP3    H144733   2.994  -1.926  -5.361 -0.6055  0.1974  0.5163
 6846TIP3    H244734   3.024  -1.914  -5.509  0.7367 -0.3910  0.7274
 6847TIP3   OH244735   1.593   2.340  -4.830 -0.0666 -0.3443 -0.1670
 6847TIP3    H144736   1.512   2.390  -4.836 -0.3565 -0.8452 -0.5143
 6847TIP3    H244737   1.587   2.276  -4.901  0.1862 -1.0224  0.4103
 6848TIP3   OH244738  -3.335   1.118  -5.052 -0.1586 -0.5040  0.4811
 6848TIP3    H144739  -3.359   1.117  -5.145 -2.4100 -2.0441  1.0130
 6848TIP3    H244740  -3.287   1.036  -5.039  0.5029 -0.1058  0.6335
 6849TIP3   OH244741  -0.306   2.335  -4.424 -0.0802 -0.0803  0.1269
 6849TIP3    H144742  -0.360   2.401  -4.381  2.2271  2.6391 -0.8305
 6849TIP3    H244743  -0.241   2.311  -4.359  0.9824  1.0096 -0.5070
 6850TIP3   OH244744   1.224  -1.610  -3.118 -0.1615  0.3384  0.3781
 6850TIP3    H144745   1.300  -1.653  -3.159  0.7627  3.0592 -1.0497
 6850TIP3    H244746   1.236  -1.624  -3.024  0.2131 -2.1699  0.0228
 6851TIP3   OH244747  -1.924   1.103  -4.496  0.2888  0.1642  0.2443
 6851TIP3    H144748  -2.001   1.062  -4.534  0.3114 -0.7963  1.1678
 6851TIP3    H244749  -1.884   1.152  -4.568 -0.8967  0.2626 -0.3631
 6852TIP3   OH244750   2.862  -2.643  -5.074 -0.2045 -0.3451  0.2248
 6852TIP3    H144751   2.851  -2.638  -4.979  2.7940  1.4313  0.6119
 6852TIP3    H244752   2.814  -2.567  -5.108  0.0892 -0.0330  0.5038
 6853TIP3   OH244753  -1.870   1.075  -5.279  0.2607 -0.5463  0.0376
 6853TIP3    H144754  -1.845   1.002  -5.335 -0.2157 -0.9830  0.3925
 6853TIP3    H244755  -1.928   1.037  -5.213 -1.6884  0.4995 -0.9910
 6854TIP3   OH244756   0.108  -1.265  -5.981 -0.1927 -0.4916 -0.1162
 6854TIP3    H144757   0.155  -1.334  -6.028  0.6436  0.1411 -0.2328
 6854TIP3    H244758   0.136  -1.274  -5.890  1.3576  0.8138 -0.4213
 6855TIP3   OH244759   2.401  -2.302  -2.144  0.8085  0.7709 -0.1564
 6855TIP3    H144760   2.336  -2.336  -2.083  1.7614 -0.6977  0.0879
 6855TIP3    H244761   2.448  -2.235  -2.093 -0.3607  1.7074 -0.2811
 6856TIP3   OH244762   1.010  -1.576  -3.906 -0.0007  0.0441 -0.2378
 6856TIP3    H144763   1.051  -1.492  -3.885  0.5501  0.3138 -2.1799
 6856TIP3    H244764   1.022  -1.586  -4.000  0.0070 -2.2653 -0.0635
 6857TIP3   OH244765  -0.215  -2.718  -3.805  0.0629  0.1672  0.4177
 6857TIP3    H144766  -0.275  -2.769  -3.860  2.7798 -1.2249 -1.4275
 6857TIP3    H244767  -0.199  -2.638  -3.855  2.1996 -0.9117 -0.7523
 6858TIP3   OH244768   2.340   2.751  -4.426  0.2087  0.2988 -0.0325
 6858TIP3    H144769   2.367   2.676  -4.480  1.0589  0.3648  0.2980
 6858TIP3    H244770   2.288   2.712  -4.356  0.1955  0.0798 -0.1612
 6859TIP3   OH244771  -2.122   2.044  -3.757  0.2864  0.0781  0.2314
 6859TIP3    H144772  -2.213   2.056  -3.733  0.2192  0.1962 -0.0886
 6859TIP3    H244773  -2.095   1.966  -3.707 -0.8098 -1.7634 -1.8506
 6860TIP3   OH244774   1.765   0.746  -4.136 -0.1504  0.1217  0.2166
 6860TIP3    H144775   1.848   0.698  -4.133  1.1940  1.9933 -2.5599
 6860TIP3    H244776   1.702   0.686  -4.175  1.0332 -0.0441 -1.5326
 6861TIP3   OH244777  -1.179   0.518  -3.607 -0.3594 -0.6201  0.6737
 6861TIP3    H144778  -1.188   0.461  -3.684  0.1625  1.5658 -1.1261
 6861TIP3    H244779  -1.085   0.515  -3.587  0.0542  1.1368 -0.7662
 6862TIP3   OH244780  -2.978  -0.678  -4.781  0.4165 -0.2127  0.0553
 6862TIP3    H144781  -3.032  -0.600  -4.793  0.3172 -0.0082  1.6227
 6862TIP3    H244782  -3.037  -0.751  -4.803  0.5640  0.1352 -1.5854
 6863TIP3   OH244783  -1.825  -1.920  -3.319 -0.1554  0.6906  0.2446
 6863TIP3    H144784  -1.805  -2.012  -3.298  0.5860  0.8793  0.4070
 6863TIP3    H244785  -1.777  -1.903  -3.400 -2.7074  0.0786 -1.5259
 6864TIP3   OH244786  -1.221  -1.755  -4.763  0.0746 -0.3623  0.3817
 6864TIP3    H144787  -1.143  -1.797  -4.799 -1.2003 -1.6400 -1.0233
 6864TIP3    H244788  -1.220  -1.779  -4.671  1.4151 -0.1798  0.4463
 6865TIP3   OH244789   1.328   0.083  -3.331 -0.3027 -0.0196  0.0786
 6865TIP3    H144790   1.313   0.138  -3.254  0.6697  1.0616 -0.4743
 6865TIP3    H244791   1.279   0.003  -3.313 -1.0257  0.6679  1.3054
 6866TIP3   OH244792   2.106   1.990  -4.158  0.2422  0.7061 -0.1499
 6866TIP3    H144793   2.041   1.985  -4.228 -0.9148 -4.2962  0.8803
 6866TIP3    H244794   2.190   2.003  -4.203 -0.8024  1.1608 -2.0600
 6867TIP3   OH244795  -0.390  -0.793  -4.477 -0.2481  0.2227 -1.1047
 6867TIP3    H144796  -0.328  -0.776  -4.548  2.0779  0.3829  0.7855
 6867TIP3    H244797  -0.394  -0.710  -4.429 -0.7220 -0.2393 -0.3201
 6868TIP3   OH244798  -1.428  -1.718  -6.001 -1.1795  0.0113 -0.5889
 6868TIP3    H144799  -1.470  -1.762  -5.927 -1.8244  0.6446 -0.5663
 6868TIP3    H244800  -1.497  -1.715  -6.068  0.1090 -2.8770 -2.2400
 6869TIP3   OH244801  -2.437   1.694  -5.586  0.0210  0.1315  0.5522
 6869TIP3    H144802  -2.392   1.687  -5.670 -1.2662  0.6887 -0.2154
 6869TIP3    H244803  -2.476   1.781  -5.587 -0.8391 -0.2328  1.3050
 6870TIP3   OH244804  -0.843   0.820  -2.189  0.4521  0.0428 -0.3968
 6870TIP3    H144805  -0.819   0.841  -2.279 -1.6331  1.8084 -0.6061
 6870TIP3    H244806  -0.938   0.829  -2.187  0.3835 -0.7117  1.8136
 6871TIP3   OH244807   1.785   1.445  -5.463  0.1376  0.5540  0.1397
 6871TIP3    H144808   1.727   1.467  -5.390 -1.1463 -0.6770 -0.4457
 6871TIP3    H244809   1.766   1.353  -5.481 -0.5643  1.1320 -2.5572
 6872TIP3   OH244810   2.535  -1.292  -4.035 -0.4001  0.3807 -0.4748
 6872TIP3    H144811   2.571  -1.203  -4.030 -0.4019  0.3448  0.3014
 6872TIP3    H244812   2.540  -1.324  -3.945 -1.0356 -0.1577 -0.6320
 6873TIP3   OH244813   2.512  -1.877  -4.223 -0.0318 -0.2290 -0.4508
 6873TIP3    H144814   2.452  -1.951  -4.236 -2.1127  1.2561  0.3710
 6873TIP3    H244815   2.526  -1.874  -4.129  2.3032 -1.1893 -0.6770
 6874TIP3   OH244816  -2.591  -0.543  -4.255 -0.1420  0.0005  0.9076
 6874TIP3    H144817  -2.670  -0.582  -4.293 -0.3998  0.5948  0.8329
 6874TIP3    H244818  -2.621  -0.465  -4.210  0.3756  0.1109  1.0736
 6875TIP3   OH244819  -1.423   1.042  -2.749  0.7590 -0.0247 -0.3035
 6875TIP3    H144820  -1.507   1.088  -2.750  1.5347  1.4718  0.1544
 6875TIP3    H244821  -1.417   0.999  -2.834  0.0457  0.8263 -0.7886
 6876TIP3   OH244822  -3.208  -1.307  -3.074 -0.2514  0.6138  0.5480
 6876TIP3    H144823  -3.153  -1.257  -3.135  0.4314  1.7737  2.0487
 6876TIP3    H244824  -3.292  -1.262  -3.074  0.6312  2.4521  2.5729
 6877TIP3   OH244825   2.899  -2.886  -2.147  0.3073 -0.6952 -0.0002
 6877TIP3    H144826   2.911  -2.968  -2.099  0.9765 -0.6122 -0.0152
 6877TIP3    H244827   2.953  -2.896  -2.226  0.5497 -0.1694  0.0934
 6878TIP3   OH244828  -2.098   0.676  -3.907 -0.0806  0.3725  0.3653
 6878TIP3    H144829  -2.096   0.596  -3.960 -0.9459  0.2569  0.4823
 6878TIP3    H244830  -2.178   0.720  -3.936  1.1909  1.9988 -0.8398
 6879TIP3   OH244831  -3.100   2.647  -4.536  0.8165 -0.1087 -0.4201
 6879TIP3    H144832  -3.174   2.607  -4.491  1.8294 -1.7942 -0.1644
 6879TIP3    H244833  -3.064   2.577  -4.590  2.5922  0.4612 -0.0642
 6880TIP3   OH244834  -2.962  -2.460  -3.413  0.3743  0.3222  0.0051
 6880TIP3    H144835  -2.920  -2.374  -3.408  0.7689  0.0946  0.6735
 6880TIP3    H244836  -2.987  -2.480  -3.323  0.2559 -0.2554 -0.1547
 6881TIP3   OH244837   2.506  -0.580  -3.408 -0.1001  0.5620  0.6741
 6881TIP3    H144838   2.570  -0.509  -3.415 -0.1407  0.7290  1.7674
 6881TIP3    H244839   2.443  -0.562  -3.478  1.0191  0.4051 -0.3992
 6882TIP3   OH244840  -3.280   2.989  -3.413  0.3178 -0.0792 -0.0462
 6882TIP3    H144841  -3.264   2.958  -3.324  2.2755 -1.1106 -0.7067
 6882TIP3    H244842  -3.216   2.944  -3.467  0.7145  2.2163 -1.6729
 6883TIP3   OH244843   2.105  -1.896  -2.871 -0.0091 -0.1328 -0.0518
 6883TIP3    H144844   2.199  -1.882  -2.860  0.4265 -1.7408 -1.2413
 6883TIP3    H244845   2.085  -1.855  -2.955 -0.2772 -0.1258  0.0155
 6884TIP3   OH244846  -1.513  -0.102  -4.325 -0.2325 -0.0617 -0.0551
 6884TIP3    H144847  -1.484  -0.018  -4.360 -0.9389  1.1596  2.1018
 6884TIP3    H244848  -1.471  -0.108  -4.239 -2.0093 -0.7498  0.8392
 6885TIP3   OH244849   1.881  -0.178  -4.930 -0.8366  0.2145 -0.1522
 6885TIP3    H144850   1.965  -0.149  -4.965 -0.8240  0.9070  0.4205
 6885TIP3    H244851   1.818  -0.113  -4.961 -0.7034  1.3018  1.7014
 6886TIP3   OH244852   0.697   2.496  -5.399  0.0682  0.3606  0.2723
 6886TIP3    H144853   0.604   2.512  -5.412 -0.2230 -1.4977 -0.1623
 6886TIP3    H244854   0.740   2.559  -5.457 -0.7480  3.1619  2.4458
 6887TIP3   OH244855   2.089   0.384  -2.673  0.2153  0.2113 -0.4341
 6887TIP3    H144856   2.109   0.476  -2.686  0.1551  0.6675  2.1838
 6887TIP3    H244857   1.999   0.383  -2.642  0.7947 -0.5074  1.3463
 6888TIP3   OH244858   1.479   2.377  -4.199  0.1156  0.2316  0.8385
 6888TIP3    H144859   1.437   2.446  -4.251  1.0342 -0.5284 -1.0074
 6888TIP3    H244860   1.563   2.415  -4.173 -0.3167  0.5883  1.7463
 6889TIP3   OH244861  -0.985  -0.870  -4.242  0.2269 -0.2587 -0.8107
 6889TIP3    H144862  -0.965  -0.925  -4.167 -1.1258  1.3665  0.8613
 6889TIP3    H244863  -0.908  -0.876  -4.298  2.5635  0.5816  2.0443
 6890TIP3   OH244864   0.472   1.413  -2.552  0.4111  0.0221  0.5193
 6890TIP3    H144865   0.420   1.485  -2.516  1.5648  1.1524  0.0184
 6890TIP3    H244866   0.504   1.366  -2.474  0.1673  0.4448  0.8817
 6891TIP3   OH244867  -0.682  -0.020  -4.407  0.2040  0.4023  0.7267
 6891TIP3    H144868  -0.731  -0.100  -4.424 -0.7257  1.0985  0.0728
 6891TIP3    H244869  -0.668  -0.020  -4.312  1.1187 -1.0289  0.6260
 6892TIP3   OH244870   3.090   0.426  -3.521 -0.5890  0.3158 -0.3901
 6892TIP3    H144871   2.997   0.407  -3.537 -0.2604 -0.9197 -1.0131
 6892TIP3    H244872   3.134   0.341  -3.533  0.8297  1.1899 -1.7434
 6893TIP3   OH244873  -2.086   2.610  -3.872  0.2504 -0.3229  0.3936
 6893TIP3    H144874  -2.076   2.565  -3.788 -0.5314 -0.3807  0.4628
 6893TIP3    H244875  -2.026   2.565  -3.931  0.4441 -0.5969  0.7942
 6894TIP3   OH244876   1.479  -1.237  -5.781 -0.2898 -0.0170  0.1534
 6894TIP3    H144877   1.535  -1.190  -5.720 -0.8518 -0.4124  0.9832
 6894TIP3    H244878   1.540  -1.281  -5.841  0.2559  0.5715  0.2591
 6895TIP3   OH244879  -2.872   3.059  -3.560 -0.3514  0.2261 -0.6080
 6895TIP3    H144880  -2.874   3.041  -3.655  0.3895 -1.6386 -0.3195
 6895TIP3    H244881  -2.784   3.035  -3.533 -0.6713  0.3604  0.6198
 6896TIP3   OH244882   3.236  -0.458  -3.599  0.2329 -0.1200 -0.1965
 6896TIP3    H144883   3.225  -0.547  -3.566  0.7316 -0.7572 -1.6102
 6896TIP3    H244884   3.149  -0.430  -3.626  0.4437 -1.4134 -2.5372
 6897TIP3   OH244885   1.178  -1.709  -4.714 -0.0628 -0.0839 -0.4777
 6897TIP3    H144886   1.100  -1.691  -4.766 -0.0710  0.4685 -0.2764
 6897TIP3    H244887   1.173  -1.647  -4.642  1.0713  0.6212 -0.9932
 6898TIP3   OH244888  -0.527  -0.975  -3.666  0.0121 -0.1628  0.3967
 6898TIP3    H144889  -0.558  -1.065  -3.674  2.8231 -1.2087  0.1646
 6898TIP3    H244890  -0.481  -0.958  -3.748  2.8076  0.0507  1.9034
 6899TIP3   OH244891  -1.420  -2.591  -5.935 -0.5900  0.4930  0.2204
 6899TIP3    H144892  -1.472  -2.612  -5.858 -0.0001  0.2543  0.5593
 6899TIP3    H244893  -1.380  -2.674  -5.961 -0.1567  0.7216  0.1330
 6900TIP3   OH244894  -0.203   3.145  -3.012  0.4099 -0.4912 -0.0216
 6900TIP3    H144895  -0.246   3.184  -3.088  2.4273  2.4578  0.1535
 6900TIP3    H244896  -0.144   3.080  -3.049  0.5064  0.0704 -0.8915
 6901TIP3   OH244897  -0.132  -3.090  -4.278  0.5158 -0.5060 -0.1229
 6901TIP3    H144898  -0.114  -3.036  -4.355 -0.1719 -2.4210 -1.7106
 6901TIP3    H244899  -0.222  -3.121  -4.292  0.9443 -2.1700  0.6389
 6902TIP3   OH244900  -0.277   3.060  -3.283  0.1885 -0.4133 -0.0942
 6902TIP3    H144901  -0.368   3.069  -3.311 -0.2119  1.2443  1.5841
 6902TIP3    H244902  -0.242   3.149  -3.282  1.8130 -1.0008 -0.5508
 6903TIP3   OH244903   2.509   1.194  -5.173  0.2517  0.2525  0.3130
 6903TIP3    H144904   2.417   1.176  -5.191  0.4716 -2.5995  1.4471
 6903TIP3    H244905   2.555   1.114  -5.201  2.3540  1.4582  0.0908
 6904TIP3   OH244906  -0.233   2.666  -3.645 -0.3503  0.2435  0.2376
 6904TIP3    H144907  -0.315   2.634  -3.608  0.7635 -2.1434  0.8397
 6904TIP3    H244908  -0.169   2.657  -3.574  0.6512  1.1307 -0.5051
 6905TIP3   OH244909   1.653  -2.734  -3.196 -0.1015 -0.2065 -0.5860
 6905TIP3    H144910   1.729  -2.755  -3.249  0.2417 -0.6052  0.0513
 6905TIP3    H244911   1.582  -2.724  -3.259  0.4326 -0.0130 -1.1721
 6906TIP3   OH244912  -2.520   0.327  -4.809 -0.4961 -0.1310 -0.3143
 6906TIP3    H144913  -2.501   0.361  -4.721 -2.1156  0.3615 -0.1295
 6906TIP3    H244914  -2.615   0.325  -4.814 -0.4583 -2.1866 -1.3063
 6907TIP3   OH244915  -1.953   1.628  -3.934 -0.0088  0.0687  0.2946
 6907TIP3    H144916  -2.005   1.558  -3.975 -0.3729  0.7185 -0.3769
 6907TIP3    H244917  -1.888   1.651  -4.000  1.7349 -1.3014  1.4181
 6908TIP3   OH244918  -0.673  -0.763  -5.750  0.2139  0.2867  0.4753
 6908TIP3    H144919  -0.755  -0.736  -5.790  0.8886  0.7876 -0.6123
 6908TIP3    H244920  -0.632  -0.681  -5.721  1.6659  0.3967 -1.6587
 6909TIP3   OH244921   2.224  -1.905  -4.908 -0.1736  0.0020 -0.1700
 6909TIP3    H144922   2.264  -1.820  -4.888 -0.2254 -0.4063  1.9277
 6909TIP3    H244923   2.279  -1.942  -4.977  3.4373 -0.6778  2.7697
 6910TIP3   OH244924   1.914   1.839  -3.975 -0.0920  0.2635 -0.8461
 6910TIP3    H144925   1.941   1.902  -4.041 -0.3711  0.6353 -0.6125
 6910TIP3    H244926   1.968   1.860  -3.899  0.4719 -0.3862 -1.0618
 6911TIP3   OH244927  -2.028  -2.542  -4.856 -0.7984  0.3834 -0.0527
 6911TIP3    H144928  -2.045  -2.635  -4.841 -1.2001  0.3218 -0.8220
 6911TIP3    H244929  -2.079  -2.521  -4.935  0.1201  0.9967 -0.4988
 6912TIP3   OH244930   2.599   0.201  -3.600  0.3844 -0.0986 -0.3660
 6912TIP3    H144931   2.652   0.123  -3.581 -1.9576 -1.3646  1.6078
 6912TIP3    H244932   2.651   0.274  -3.569  1.9081 -1.0271 -0.6275
 6913TIP3   OH244933  -0.556  -0.153  -4.157  0.5693  0.5523  0.1825
 6913TIP3    H144934  -0.613  -0.167  -4.081  2.4083  0.6894  1.6523
 6913TIP3    H244935  -0.480  -0.106  -4.122  1.3751  0.8279 -1.7991
 6914TIP3   OH244936  -0.966  -2.402  -3.631 -0.2299  0.0598  0.3070
 6914TIP3    H144937  -1.018  -2.439  -3.560  0.0595 -1.2776 -0.1481
 6914TIP3    H244938  -0.959  -2.473  -3.695  0.7774  0.7476 -0.3752
 6915TIP3   OH244939   1.975  -2.974  -4.155  0.3463 -0.1374  0.4097
 6915TIP3    H144940   1.913  -2.918  -4.202 -0.3320 -1.9918 -1.0112
 6915TIP3    H244941   1.923  -3.012  -4.085  0.5572  0.2356  0.7746
 6916TIP3   OH244942   2.097  -2.454  -5.560 -0.1021 -0.0442  0.4276
 6916TIP3    H144943   2.030  -2.407  -5.509 -0.4289  0.2951 -0.3095
 6916TIP3    H244944   2.180  -2.417  -5.531 -0.3347  0.7206  0.1275
 6917TIP3   OH244945  -0.997  -2.825  -4.024  0.5156 -0.4207 -0.2717
 6917TIP3    H144946  -0.974  -2.918  -4.026  1.3745 -0.2191 -0.2201
 6917TIP3    H244947  -0.914  -2.780  -4.040 -0.0313  0.3267 -1.0109
 6918TIP3   OH244948  -3.172   2.155  -2.265 -0.1390 -0.3946 -0.2447
 6918TIP3    H144949  -3.249   2.129  -2.316  1.3412 -1.5140 -2.0970
 6918TIP3    H244950  -3.104   2.168  -2.331  1.0888  1.2779  1.2651
 6919TIP3   OH244951  -2.765  -1.149  -4.853 -0.0735 -0.1265  0.0563
 6919TIP3    H144952  -2.817  -1.200  -4.915  1.5509 -0.0569 -1.4460
 6919TIP3    H244953  -2.795  -1.059  -4.864 -0.1739 -0.1956 -0.2382
 6920TIP3   OH244954  -1.296   3.007  -5.630  0.4936  0.0517 -0.0756
 6920TIP3    H144955  -1.319   3.074  -5.695  1.0242 -0.0600 -0.3889
 6920TIP3    H244956  -1.301   2.925  -5.679  0.8109 -0.0412  0.0512
 6921TIP3   OH244957  -1.447  -0.355  -5.262 -0.2224  0.1906 -0.4702
 6921TIP3    H144958  -1.483  -0.293  -5.198  0.1603  1.2064 -1.2018
 6921TIP3    H244959  -1.352  -0.344  -5.255 -0.0423 -1.7437  0.7396
 6922TIP3   OH244960   0.396  -0.324  -4.540 -1.3586 -0.6290  0.3857
 6922TIP3    H144961   0.388  -0.405  -4.592 -0.3164 -0.7603  0.4074
 6922TIP3    H244962   0.461  -0.272  -4.588  0.6264 -1.2980  2.2095
 6923TIP3   OH244963   3.295  -3.286  -3.104  0.0266 -0.3758 -0.0709
 6923TIP3    H144964   3.333  -3.214  -3.153 -0.4628  0.3559  0.5936
 6923TIP3    H244965   3.339  -3.364  -3.137 -0.8999 -0.0318 -2.2843
 6924TIP3   OH244966  -2.398  -2.878  -5.141 -0.4069 -0.6273  0.1398
 6924TIP3    H144967  -2.359  -2.792  -5.157 -1.9055 -0.0601 -0.6864
 6924TIP3    H244968  -2.331  -2.926  -5.092  0.6254  0.8593  0.2604
 6925TIP3   OH244969  -3.290  -0.683  -4.596  0.0230 -0.5377  0.1960
 6925TIP3    H144970  -3.209  -0.732  -4.583 -0.4377 -1.4745 -0.3979
 6925TIP3    H244971  -3.357  -0.735  -4.552 -0.1135  0.8107  1.7095
 6926TIP3   OH244972   1.362   1.496  -2.537 -0.2887  0.2973 -0.3030
 6926TIP3    H144973   1.303   1.525  -2.467 -0.2740 -0.5541  0.0857
 6926TIP3    H244974   1.408   1.421  -2.499  0.1128  0.1550 -1.0493
 6927TIP3   OH244975   1.885  -1.854  -4.505  0.3031  0.1073  0.2990
 6927TIP3    H144976   1.951  -1.867  -4.573 -0.4879 -0.2994 -0.4165
 6927TIP3    H244977   1.924  -1.791  -4.446  1.4817 -0.3962  0.0988
 6928TIP3   OH244978  -1.838  -0.161  -5.223  0.1420  0.0331 -0.7302
 6928TIP3    H144979  -1.890  -0.143  -5.145 -0.2764  0.3155 -1.0757
 6928TIP3    H244980  -1.845  -0.256  -5.235 -0.1387  0.0471 -0.6701
 6929TIP3   OH244981   1.186   3.264  -3.543  0.0938 -0.1518  0.7126
 6929TIP3    H144982   1.202   3.172  -3.522 -2.3030 -0.9527 -0.6124
 6929TIP3    H244983   1.101   3.283  -3.504 -0.0230  1.1360 -0.1043
 6930TIP3   OH244984   0.991  -1.204  -5.119 -0.3009  0.2500 -0.5268
 6930TIP3    H144985   1.079  -1.199  -5.082 -0.3024 -1.6410 -0.1865
 6930TIP3    H244986   1.004  -1.241  -5.206 -0.9015 -2.3040  0.3913
 6931TIP3   OH244987   0.091   3.167  -3.471 -0.0122 -0.0685  0.0891
 6931TIP3    H144988   0.126   3.129  -3.552 -0.6549 -0.7089  0.1075
 6931TIP3    H244989   0.027   3.232  -3.501 -1.2065 -1.2222  0.0830
 6932TIP3   OH244990  -0.897  -1.957  -5.230 -0.7519  0.8745  0.5318
 6932TIP3    H144991  -0.894  -1.975  -5.324 -1.2706  1.3035  0.4327
 6932TIP3    H244992  -0.811  -1.984  -5.198 -0.1064  1.9088 -0.2743
 6933TIP3   OH244993   3.302  -1.217  -2.288 -0.1825 -0.3583  0.2777
 6933TIP3    H144994   3.291  -1.294  -2.232  0.9854 -2.3188 -1.9869
 6933TIP3    H244995   3.280  -1.143  -2.232 -1.4955 -2.3237  2.5582
 6934TIP3   OH244996   0.180  -2.594  -4.466  0.5429  0.8598  0.3224
 6934TIP3    H144997   0.185  -2.538  -4.544  1.0158 -0.6688 -0.8097
 6934TIP3    H244998   0.232  -2.671  -4.490 -1.0036 -0.5634  1.3707
 6935TIP3   OH244999   0.182  -1.329  -5.724  1.0083 -0.5382  0.3151
 6935TIP3    H145000   0.111  -1.318  -5.660  0.4659 -1.6748 -0.0731
 6935TIP3    H245001   0.170  -1.417  -5.759  1.9887 -0.3556 -0.5302
 6936TIP3   OH245002   0.482  -0.806  -2.854 -0.1078  0.3118  0.0972
 6936TIP3    H145003   0.576  -0.802  -2.836 -0.0613  1.0868 -0.3158
 6936TIP3    H245004   0.440  -0.782  -2.771 -0.0516 -3.2071  1.3429
 6937TIP3   OH245005   2.383   0.614  -5.331  0.0678 -0.0539  0.5861
 6937TIP3    H145006   2.408   0.540  -5.388 -1.5488  0.5206 -0.9669
 6937TIP3    H245007   2.440   0.685  -5.359  0.9465 -0.4220  1.3994
 6938TIP3   OH245008   0.391   2.656  -3.469  0.3210  0.6025 -0.0427
 6938TIP3    H145009   0.430   2.639  -3.555  1.6354 -0.6508  0.7578
 6938TIP3    H245010   0.313   2.601  -3.467  1.5249 -1.1796  0.3869
 6939TIP3   OH245011   1.123  -2.988  -4.617  0.2520  0.2650  0.8841
 6939TIP3    H145012   1.108  -2.894  -4.627  0.3395  0.0290 -3.4334
 6939TIP3    H245013   1.218  -2.998  -4.617  0.3632  0.1435 -2.4024
 6940TIP3   OH245014  -0.674   3.002  -4.888 -0.4837 -0.3879 -0.5750
 6940TIP3    H145015  -0.702   2.944  -4.817 -0.3685 -1.0555 -1.0688
 6940TIP3    H245016  -0.690   2.952  -4.968  3.3272 -1.4097 -0.8742
 6941TIP3   OH245017   0.256   2.263  -2.555 -0.3411 -0.2939 -0.7761
 6941TIP3    H145018   0.277   2.289  -2.466 -1.5295  0.3360 -0.6521
 6941TIP3    H245019   0.197   2.188  -2.544 -1.5664  0.6143 -0.9748
 6942TIP3   OH245020   3.155  -1.204  -4.639 -0.1879 -0.3590  0.1135
 6942TIP3    H145021   3.130  -1.231  -4.550  2.0595  0.4237  1.0521
 6942TIP3    H245022   3.217  -1.271  -4.667 -0.2690 -0.1589 -0.5432
 6943TIP3   OH245023  -2.587  -0.927  -5.004 -0.2121 -0.2575  0.3676
 6943TIP3    H145024  -2.590  -0.846  -5.056  2.5133 -0.2638  0.0839
 6943TIP3    H245025  -2.665  -0.923  -4.949  0.5352  3.2782  1.3978
 6944TIP3   OH245026  -0.904  -0.037  -4.911  0.0811  0.2106  0.5365
 6944TIP3    H145027  -0.917  -0.078  -4.997 -1.3777 -0.0498  0.8498
 6944TIP3    H245028  -0.865   0.048  -4.931 -2.3878  1.1721 -0.6252
 6945TIP3   OH245029  -2.414  -2.124  -3.017  0.2682 -0.2912 -0.2219
 6945TIP3    H145030  -2.492  -2.085  -2.976 -0.2227 -2.2233  0.8030
 6945TIP3    H245031  -2.362  -2.156  -2.944  2.4130  1.5113 -0.8516
 6946TIP3   OH245032   2.601   0.460  -4.017 -0.5345 -0.4196  0.6543
 6946TIP3    H145033   2.519   0.495  -3.982 -0.3088  0.4624  0.3132
 6946TIP3    H245034   2.581   0.439  -4.108  0.4860  3.0913 -0.5409
 6947TIP3   OH245035  -0.689   0.392  -3.731  0.1296  0.2464 -0.2857
 6947TIP3    H145036  -0.735   0.309  -3.723 -0.3017  0.5995  1.3604
 6947TIP3    H245037  -0.607   0.379  -3.684 -0.1981  0.9069  0.4998
 6948TIP3   OH245038  -1.634   0.700  -3.431 -0.4249  0.3393 -0.4012
 6948TIP3    H145039  -1.543   0.698  -3.460 -0.1576 -2.6195  0.3567
 6948TIP3    H245040  -1.630   0.732  -3.341 -0.2306  0.8875 -0.6016
 6949TIP3   OH245041   2.217   2.249  -3.911  0.1371  0.1833  0.1817
 6949TIP3    H145042   2.220   2.230  -4.005 -1.7170  0.4161  0.0443
 6949TIP3    H245043   2.241   2.341  -3.905  0.3904  0.1348 -0.0456
 6950TIP3   OH245044  -0.676  -2.193  -5.814  0.0614  0.2659 -0.0788
 6950TIP3    H145045  -0.756  -2.225  -5.855  0.6110  0.4475 -1.3619
 6950TIP3    H245046  -0.642  -2.268  -5.765  0.8968 -0.9490 -2.3633
 6951TIP3   OH245047   2.138   3.175  -5.308 -0.0015 -0.4269  0.0954
 6951TIP3    H145048   2.217   3.199  -5.355 -0.8821 -0.5307 -1.5237
 6951TIP3    H245049   2.139   3.080  -5.305 -0.0748 -0.4300  0.0432
 6952TIP3   OH245050  -2.187  -1.743  -2.844  0.1281 -0.2038  0.1144
 6952TIP3    H145051  -2.131  -1.666  -2.854 -0.7361  0.2428 -1.9263
 6952TIP3    H245052  -2.274  -1.712  -2.869 -0.3341 -1.6978 -0.2040
 6953TIP3   OH245053   0.960   1.854  -3.030  0.2307 -0.0888 -0.5033
 6953TIP3    H145054   1.013   1.920  -3.075 -0.8859  1.8772  0.9443
 6953TIP3    H245055   0.922   1.900  -2.955 -0.7535 -2.3462  0.4725
 6954TIP3   OH245056   0.088   0.405  -3.677  0.3503  0.2414  0.3181
 6954TIP3    H145057   0.170   0.407  -3.727  0.6371 -0.5344  0.7401
 6954TIP3    H245058   0.093   0.480  -3.619 -0.4830  1.8279 -1.5525
 6955TIP3   OH245059   2.323  -1.553  -5.708 -0.0562  0.1248 -0.0293
 6955TIP3    H145060   2.361  -1.467  -5.687 -0.0290 -0.0963  0.8441
 6955TIP3    H245061   2.246  -1.533  -5.760  0.7817  0.6164 -1.1330
 6956TIP3   OH245062   1.763   2.513  -5.050  0.1144 -0.3586 -0.4266
 6956TIP3    H145063   1.804   2.426  -5.049  0.2535 -0.3166 -1.3092
 6956TIP3    H245064   1.824   2.569  -5.003 -1.2145 -1.2317  2.5443
 6957TIP3   OH245065   0.932   2.784  -2.876 -0.0556  0.5317  0.6172
 6957TIP3    H145066   0.953   2.705  -2.826  0.5096 -0.6198 -1.3565
 6957TIP3    H245067   0.988   2.852  -2.838 -0.6888  0.0832  2.4704
 6958TIP3   OH245068  -1.601   2.749  -5.585  0.5034 -0.6065 -0.6080
 6958TIP3    H145069  -1.558   2.747  -5.499 -0.4275  0.0833 -0.1079
 6958TIP3    H245070  -1.529   2.749  -5.648  1.3450  2.1933  0.2111
 6959TIP3   OH245071   0.009  -0.661  -3.518  0.3224 -0.3141 -0.4109
 6959TIP3    H145072  -0.083  -0.667  -3.491  0.3337 -1.0275 -0.5035
 6959TIP3    H245073   0.035  -0.752  -3.532  1.4207 -0.2234  0.8993
 6960TIP3   OH245074   3.327  -1.188  -3.575  0.4467  0.1479  0.6493
 6960TIP3    H145075   3.271  -1.236  -3.635  3.5011 -3.7461  0.5482
 6960TIP3    H245076   3.283  -1.195  -3.490 -0.6615 -0.1499  0.0656
 6961TIP3   OH245077  -1.789  -1.896  -5.019 -0.2258  0.4805  0.3212
 6961TIP3    H145078  -1.815  -1.891  -5.111  0.5730  1.9128  0.1444
 6961TIP3    H245079  -1.862  -1.856  -4.972 -1.3895 -1.7193  0.5179
 6962TIP3   OH245080  -1.569   0.530  -4.583  0.0115  0.4266  0.0550
 6962TIP3    H145081  -1.552   0.437  -4.599 -1.2289  0.2290 -0.1798
 6962TIP3    H245082  -1.482   0.568  -4.569  0.6675 -0.4829 -1.3487
 6963TIP3   OH245083  -0.996  -1.571  -4.556 -0.4895 -0.1064 -0.1149
 6963TIP3    H145084  -1.080  -1.595  -4.518 -0.5806  0.8881  0.3277
 6963TIP3    H245085  -0.992  -1.476  -4.549  0.1979 -0.0456 -1.1307
 6964TIP3   OH245086  -3.157  -0.482  -4.840 -0.0788  0.0417  0.1111
 6964TIP3    H145087  -3.158  -0.425  -4.763  1.2885  1.0854 -0.5950
 6964TIP3    H245088  -3.243  -0.470  -4.880 -0.7866 -0.4812  1.4310
 6965TIP3   OH245089   1.630   2.245  -5.996 -0.3971 -0.1760 -0.5905
 6965TIP3    H145090   1.646   2.157  -5.961 -0.7723  0.5075  1.3872
 6965TIP3    H245091   1.575   2.288  -5.931 -1.0209  1.2387 -1.9737
 6966TIP3   OH245092   0.447   1.851  -5.477  0.2262 -0.7475 -0.4097
 6966TIP3    H145093   0.513   1.887  -5.537 -0.2813 -0.4762 -0.8147
 6966TIP3    H245094   0.428   1.924  -5.417 -1.8557  0.2119 -2.1089
 6967TIP3   OH245095   2.672   2.635  -2.704  0.2077  0.7012 -0.2583
 6967TIP3    H145096   2.755   2.620  -2.659  0.4183 -1.5399 -1.2402
 6967TIP3    H245097   2.696   2.648  -2.796 -0.5031 -1.3636 -0.8154
 6968TIP3   OH245098  -0.062   1.457  -4.983 -0.3607 -0.0036  0.1219
 6968TIP3    H145099  -0.014   1.516  -4.924 -1.8931  2.6535 -1.1200
 6968TIP3    H245100  -0.027   1.475  -5.070  0.0414 -1.9707 -0.1762
 6969TIP3   OH245101   2.391  -2.901  -3.688 -0.0910  0.1891 -0.1378
 6969TIP3    H145102   2.401  -2.931  -3.779 -0.4844 -0.6238  0.0730
 6969TIP3    H245103   2.308  -2.854  -3.687  0.6542  1.5696 -0.5296
 6970TIP3   OH245104  -1.773   3.335  -4.805 -0.0254  0.5556 -0.1206
 6970TIP3    H145105  -1.765   3.240  -4.802 -0.7040  0.4782 -0.5495
 6970TIP3    H245106  -1.866   3.352  -4.790 -0.0219  1.1105 -0.6740
 6971TIP3   OH245107  -0.667   2.947  -3.285 -0.5912  0.1808  0.2720
 6971TIP3    H145108  -0.699   2.860  -3.261  1.4337 -0.5073  0.6207
 6971TIP3    H245109  -0.621   2.933  -3.368 -0.2056  0.9015  0.3584
 6972TIP3   OH245110   1.041  -1.800  -4.388  0.4401  0.2624 -0.3546
 6972TIP3    H145111   0.947  -1.796  -4.406  0.4199  0.8891 -0.1485
 6972TIP3    H245112   1.065  -1.891  -4.405 -0.3748 -0.1147  0.4199
 6973TIP3   OH245113  -0.238   1.632  -2.561 -0.4068 -0.3048  0.1997
 6973TIP3    H145114  -0.201   1.595  -2.481  0.4832  1.0070  0.4181
 6973TIP3    H245115  -0.328   1.654  -2.537  0.0591  0.7399  1.0883
 6974TIP3   OH245116  -2.787   0.781  -5.153 -0.0106  0.3744 -0.0379
 6974TIP3    H145117  -2.866   0.835  -5.150  0.5603  1.2067  0.4758
 6974TIP3    H245118  -2.719   0.835  -5.113  0.6662 -0.5986  0.1743
 6975TIP3   OH245119   1.710   1.252  -4.873 -0.7927  0.2166 -0.5780
 6975TIP3    H145120   1.767   1.318  -4.913  0.1491 -2.1583 -3.5522
 6975TIP3    H245121   1.624   1.268  -4.913 -1.2490  1.1397  0.6803
 6976TIP3   OH245122   1.384   2.877  -5.613  0.1835  0.1469 -0.4228
 6976TIP3    H145123   1.388   2.781  -5.618 -0.4137  0.1840 -3.0483
 6976TIP3    H245124   1.295   2.896  -5.584  0.8363 -0.0383  1.9319
 6977TIP3   OH245125  -1.106  -3.288  -3.110  0.1458  0.0494 -0.1577
 6977TIP3    H145126  -1.147  -3.275  -3.024 -0.6658  2.3187 -0.8172
 6977TIP3    H245127  -1.141  -3.371  -3.141 -1.7854  0.5476  0.5295
 6978TIP3   OH245128  -2.737   2.850  -5.599  0.3917  0.1302  0.2296
 6978TIP3    H145129  -2.795   2.886  -5.531 -0.4106  1.4865 -1.0958
 6978TIP3    H245130  -2.672   2.918  -5.613  0.5622 -0.1439 -0.3261
 6979TIP3   OH245131  -2.464  -2.416  -5.830 -0.3053 -0.6502  0.7221
 6979TIP3    H145132  -2.543  -2.452  -5.790 -0.6232  1.6175  2.3539
 6979TIP3    H245133  -2.460  -2.326  -5.798  1.2580  0.3022 -1.8298
 6980TIP3   OH245134   0.972  -2.065  -2.439 -0.0020 -0.9402 -0.4131
 6980TIP3    H145135   1.015  -2.141  -2.476  1.2861  0.1901 -1.3369
 6980TIP3    H245136   1.031  -1.992  -2.458 -0.8739  0.1987  1.0061
 6981TIP3   OH245137  -3.166  -2.951  -2.707 -0.8005  0.3466 -0.0303
 6981TIP3    H145138  -3.096  -2.902  -2.665 -0.4235  0.6796 -1.0037
 6981TIP3    H245139  -3.137  -2.962  -2.798 -1.0253 -1.4216  0.0803
 6982TIP3   OH245140  -2.411   0.436  -3.379 -0.1599 -0.3336 -0.4357
 6982TIP3    H145141  -2.430   0.378  -3.305  0.0658 -0.7217 -0.6770
 6982TIP3    H245142  -2.479   0.503  -3.375  0.8772  0.6982  1.2097
 6983TIP3   OH245143  -2.554   3.016  -2.841  0.1984 -0.1935 -0.0889
 6983TIP3    H145144  -2.508   3.094  -2.874  0.6765 -0.1371  0.6807
 6983TIP3    H245145  -2.537   3.017  -2.747  0.0333 -1.1203 -0.0429
 6984TIP3   OH245146   2.557  -1.094  -4.435  0.0466 -0.3128 -0.0073
 6984TIP3    H145147   2.523  -1.169  -4.386  0.0857 -1.1662 -1.2496
 6984TIP3    H245148   2.631  -1.063  -4.383 -2.1764  1.2735  2.5231
 6985TIP3   OH245149   0.968   0.153  -3.048  0.2830  0.4489  0.5800
 6985TIP3    H145150   0.998   0.069  -3.012 -1.2889  0.4243  1.9656
 6985TIP3    H245151   0.955   0.136  -3.141 -1.1713 -1.2462  1.0311
 6986TIP3   OH245152  -1.523  -0.064  -2.693  0.7916 -0.1049  0.8685
 6986TIP3    H145153  -1.524  -0.159  -2.708  1.7902 -0.0996  0.7204
 6986TIP3    H245154  -1.598  -0.049  -2.636 -0.2756 -0.7797 -0.2912
 6987TIP3   OH245155   1.679  -1.294  -4.014  0.4947  0.1528 -0.6348
 6987TIP3    H145156   1.647  -1.338  -4.092 -0.5492  0.1360 -0.2223
 6987TIP3    H245157   1.686  -1.363  -3.948 -1.0202  0.5329 -0.0254
 6988TIP3   OH245158  -2.603  -0.197  -5.934  0.7727 -0.2372 -0.1713
 6988TIP3    H145159  -2.586  -0.119  -5.988  0.9637  0.2556  0.5930
 6988TIP3    H245160  -2.517  -0.235  -5.919  0.8479  0.2836  0.7583
 6989TIP3   OH245161  -3.084  -1.825  -5.432  0.5051  0.2555 -0.3418
 6989TIP3    H145162  -3.175  -1.838  -5.461  0.4103 -1.5704  0.6457
 6989TIP3    H245163  -3.041  -1.908  -5.451  1.9381  1.0306 -0.5917
 6990TIP3   OH245164   2.260  -0.300  -5.162 -0.3252  0.2144  0.6379
 6990TIP3    H145165   2.175  -0.336  -5.186  0.0299 -1.1802  1.3665
 6990TIP3    H245166   2.246  -0.206  -5.156 -1.5845  0.0943 -0.1463
 6991TIP3   OH245167   2.280   2.258  -4.208  0.2675 -0.7530  0.2406
 6991TIP3    H145168   2.300   2.179  -4.258 -0.8537 -0.5531 -0.5567
 6991TIP3    H245169   2.221   2.308  -4.265  0.7899  0.5659  0.8131
 6992TIP3   OH245170   1.830  -3.151  -3.265  0.3009  0.2345 -0.1787
 6992TIP3    H145171   1.874  -3.188  -3.189 -2.0400 -2.5133 -0.0093
 6992TIP3    H245172   1.845  -3.214  -3.335  1.9386  2.4365 -1.9664
 6993TIP3   OH245173   3.026  -2.448  -3.490  0.5018  0.4221  0.0023
 6993TIP3    H145174   2.982  -2.364  -3.501  0.0180  0.1053 -0.5864
 6993TIP3    H245175   3.023  -2.488  -3.577 -1.0384 -1.0543  0.6673
 6994TIP3   OH245176  -1.691  -1.900  -4.063 -0.0892  0.2502  0.2586
 6994TIP3    H145177  -1.651  -1.813  -4.054  0.3070  0.5362 -3.1226
 6994TIP3    H245178  -1.753  -1.891  -4.134 -0.2875 -2.1835  0.0443
 6995TIP3   OH245179  -1.850  -3.223  -5.184 -0.3648 -0.0361 -0.5036
 6995TIP3    H145180  -1.794  -3.161  -5.231  0.1537  0.1927  0.3827
 6995TIP3    H245181  -1.910  -3.167  -5.134  0.0825 -0.2401  0.2733
 6996TIP3   OH245182  -0.708   1.704  -4.712 -0.5031 -0.9697 -0.0855
 6996TIP3    H145183  -0.680   1.630  -4.766 -0.2128 -0.4194 -0.7008
 6996TIP3    H245184  -0.688   1.677  -4.623  0.5363 -1.2378 -0.3871
 6997TIP3   OH245185  -1.218  -0.013  -5.315 -0.2999  0.4492  0.0038
 6997TIP3    H145186  -1.286   0.022  -5.373 -0.0550  1.4534  0.3078
 6997TIP3    H245187  -1.136   0.001  -5.362 -0.1515  0.7920  0.3572
 6998TIP3   OH245188   1.164   2.603  -3.129 -0.6968  0.0808  0.7080
 6998TIP3    H145189   1.152   2.509  -3.122 -0.3829 -0.0396 -0.2503
 6998TIP3    H245190   1.243   2.621  -3.079  1.0718 -0.6403 -1.6614
 6999TIP3   OH245191  -2.770   1.938  -2.239  0.3450  0.0869 -0.1834
 6999TIP3    H145192  -2.847   1.901  -2.283 -0.1439  2.8496 -1.8737
 6999TIP3    H245193  -2.796   2.027  -2.214  3.0968  1.3080 -1.2614
 7000TIP3   OH245194   3.342  -0.416  -5.012 -0.1744 -0.4233 -0.2644
 7000TIP3    H145195   3.363  -0.426  -5.105  0.4387 -0.0045 -0.1747
 7000TIP3    H245196   3.285  -0.340  -5.008  0.9740  0.4532 -0.1451
 7001TIP3   OH245197   1.332   0.381  -4.950  0.1150  0.5005 -0.1599
 7001TIP3    H145198   1.255   0.363  -5.003  0.3424  1.3221 -0.7981
 7001TIP3    H245199   1.306   0.455  -4.894  0.6133  1.1990 -0.8219
 7002TIP3   OH245200  -1.704   3.241  -4.097  0.5633  0.0224 -0.1062
 7002TIP3    H145201  -1.753   3.316  -4.132 -0.5964 -0.8403 -0.3739
 7002TIP3    H245202  -1.612   3.266  -4.107  0.2001  1.3110 -0.4045
 7003TIP3   OH245203   1.588  -1.850  -4.563 -0.5653 -0.1256  0.1607
 7003TIP3    H145204   1.591  -1.759  -4.593 -1.0597  0.6683  2.3414
 7003TIP3    H245205   1.680  -1.877  -4.559 -0.4026  0.3612 -0.1961
 7004TIP3   OH245206   2.597  -1.919  -5.039 -0.6284 -0.2917 -0.0284
 7004TIP3    H145207   2.543  -1.859  -4.986  1.0696  1.4338 -0.1132
 7004TIP3    H245208   2.686  -1.904  -5.007  0.1300 -1.0944 -1.6781
 7005TIP3   OH245209  -3.238   1.778  -2.340 -0.6740  0.2577  0.1774
 7005TIP3    H145210  -3.306   1.840  -2.312  0.4485  1.5031  0.2246
 7005TIP3    H245211  -3.287   1.702  -2.373 -2.0617  0.3571  1.8959
 7006TIP3   OH245212  -1.192   2.020  -3.409  0.3439  0.0827  0.3986
 7006TIP3    H145213  -1.273   2.071  -3.421  0.7277  0.7330  0.4987
 7006TIP3    H245214  -1.208   1.968  -3.330 -0.1162 -0.0758  0.2045
 7007TIP3   OH245215  -0.083  -3.144  -3.184  0.3498  0.1408 -1.0161
 7007TIP3    H145216  -0.015  -3.090  -3.143 -0.2586  1.1134 -1.2325
 7007TIP3    H245217  -0.157  -3.083  -3.196 -0.2114 -0.6463 -1.6537
 7008TIP3   OH245218  -1.495   1.968  -4.645  0.0049 -0.0889  0.2497
 7008TIP3    H145219  -1.413   2.004  -4.611  0.4765  0.0483 -0.9860
 7008TIP3    H245220  -1.537   2.043  -4.689 -0.7028 -0.2047  0.7077
 7009TIP3   OH245221   3.274  -0.260  -3.336  0.3052 -0.4470  0.0465
 7009TIP3    H145222   3.353  -0.208  -3.321  1.0207 -1.0857 -1.2731
 7009TIP3    H245223   3.298  -0.320  -3.406 -1.4597 -0.4420 -0.6236
 7010TIP3   OH245224   2.056   1.123  -3.749 -0.2469 -0.3473  0.7383
 7010TIP3    H145225   1.997   1.069  -3.696 -1.0554  0.3633  0.5861
 7010TIP3    H245226   2.131   1.066  -3.766 -0.0900 -0.6962  2.3891
 7011TIP3   OH245227   0.751   2.561  -5.026  0.0142  0.1487 -0.4875
 7011TIP3    H145228   0.673   2.617  -5.022  0.0344  0.1530 -0.1378
 7011TIP3    H245229   0.807   2.594  -4.957  0.0908 -0.2142 -0.3771
 7012TIP3   OH245230   0.180  -0.645  -3.904 -0.3588 -0.2560 -0.2376
 7012TIP3    H145231   0.148  -0.616  -3.989 -0.3151  1.7481  0.3851
 7012TIP3    H245232   0.103  -0.644  -3.847 -0.1136 -0.1436  0.0961
 7013TIP3   OH245233  -0.001   2.375  -3.848  0.2020 -0.4271 -0.6337
 7013TIP3    H145234   0.071   2.432  -3.821  0.9945 -1.8567  0.3818
 7013TIP3    H245235   0.037   2.287  -3.852 -1.7510 -1.4966  1.3818
 7014TIP3   OH245236  -2.497  -1.945  -5.249 -0.1402  0.0461 -0.2254
 7014TIP3    H145237  -2.534  -1.888  -5.182  2.8227 -0.1395  1.7726
 7014TIP3    H245238  -2.413  -1.905  -5.271  1.2474 -2.5197 -0.0429
 7015TIP3   OH245239  -2.956   3.251  -4.448 -0.7395  0.0945  0.4072
 7015TIP3    H145240  -2.925   3.340  -4.432 -1.0080  0.2925 -0.1692
 7015TIP3    H245241  -2.938   3.234  -4.540 -3.0682  0.5322 -0.1926
 7016TIP3   OH245242   1.861  -2.272  -4.751  0.4355 -0.2072 -0.0700
 7016TIP3    H145243   1.915  -2.208  -4.797  1.4468 -0.2631  0.9845
 7016TIP3    H245244   1.828  -2.225  -4.675 -0.3184 -0.4323 -0.2464
 7017TIP3   OH245245   2.878  -2.202  -3.863  0.6471  0.1437 -0.5212
 7017TIP3    H145246   2.972  -2.223  -3.867  0.6037 -0.0988 -0.2807
 7017TIP3    H245247   2.865  -2.166  -3.776 -0.2852 -3.9125  1.2775
 7018TIP3   OH245248  -0.129  -3.212  -3.773 -0.0654  0.1171 -0.9155
 7018TIP3    H145249  -0.216  -3.236  -3.742  0.5771 -2.2632 -0.7356
 7018TIP3    H245250  -0.144  -3.145  -3.840 -2.0995 -0.9388 -1.5916
 7019TIP3   OH245251   3.280  -2.026  -3.302  0.2390  0.3223  0.0524
 7019TIP3    H145252   3.366  -1.994  -3.330  1.4396 -2.5632  0.0887
 7019TIP3    H245253   3.280  -2.017  -3.207 -0.2689  1.9416 -0.0682
 7020TIP3   OH245254   0.168  -0.267  -4.928 -0.4380  0.0196 -0.6194
 7020TIP3    H145255   0.086  -0.248  -4.974 -1.7964 -1.9311  0.8648
 7020TIP3    H245256   0.233  -0.278  -4.998 -1.1770  2.4190 -1.7954
 7021TIP3   OH245257   1.058   0.804  -3.239 -0.9418  0.6147 -0.0638
 7021TIP3    H145258   1.129   0.869  -3.230 -0.6655  0.3111 -0.0185
 7021TIP3    H245259   1.015   0.805  -3.154  0.5525 -0.9627  0.7777
 7022TIP3   OH245260   3.244   1.013  -5.331  0.1218  0.5597 -0.1323
 7022TIP3    H145261   3.253   1.029  -5.425  0.1420 -0.6094 -0.3475
 7022TIP3    H245262   3.230   0.918  -5.324  1.5931  0.3988  1.1447
 7023TIP3   OH245263  -1.926  -0.803  -3.874  0.7086 -0.3909  0.0281
 7023TIP3    H145264  -1.957  -0.894  -3.874  1.5903 -0.7163  1.0019
 7023TIP3    H245265  -1.931  -0.776  -3.966 -0.8818 -0.9542 -0.0733
 7024TIP3   OH245266   0.924   2.295  -3.443 -0.1977  0.3491 -0.6102
 7024TIP3    H145267   0.994   2.279  -3.506 -0.1542  2.1039 -1.0744
 7024TIP3    H245268   0.924   2.390  -3.432 -1.2845  0.2177  0.8111
 7025TIP3   OH245269  -1.427   0.020  -4.868 -0.0531  0.4551 -0.4171
 7025TIP3    H145270  -1.359   0.001  -4.804 -1.1229 -0.2827  0.5513
 7025TIP3    H245271  -1.416   0.113  -4.889  2.6598 -0.1436 -2.0623
 7026TIP3   OH245272  -1.371  -1.854  -5.126  0.0402 -0.0301  0.0629
 7026TIP3    H145273  -1.348  -1.767  -5.159  1.8105  0.0581  1.4029
 7026TIP3    H245274  -1.288  -1.901  -5.122 -0.6116 -1.1594  1.1080
 7027TIP3   OH245275  -1.269   0.971  -4.429 -0.2967  0.4083 -0.2514
 7027TIP3    H145276  -1.319   0.906  -4.380  0.1288 -0.2031 -0.6090
 7027TIP3    H245277  -1.181   0.967  -4.391 -0.0250  0.0920 -0.8940
 7028TIP3   OH245278   2.532  -0.047  -4.955  0.1261  0.1458  0.0695
 7028TIP3    H145279   2.613   0.003  -4.965 -0.4843  1.1112 -0.2171
 7028TIP3    H245280   2.521  -0.056  -4.861  0.5124  0.0918  0.1131
 7029TIP3   OH245281   0.289   1.842  -3.082  0.3109  0.8831  0.5148
 7029TIP3    H145282   0.292   1.877  -2.993  0.5783 -0.0770  0.8912
 7029TIP3    H245283   0.343   1.763  -3.079  0.5226  0.9669 -0.5628
 7030TIP3   OH245284   1.967  -1.868  -5.256 -0.6180  0.3665  0.4329
 7030TIP3    H145285   1.956  -1.790  -5.201 -2.0468 -1.0567  2.3066
 7030TIP3    H245286   1.891  -1.923  -5.236 -0.1974 -1.0809 -1.5993
 7031TIP3   OH245287   1.207   2.992  -5.279 -0.0366 -0.4879 -0.3072
 7031TIP3    H145288   1.173   2.964  -5.364 -1.8033  0.9764 -0.1324
 7031TIP3    H245289   1.257   3.072  -5.299  0.6148 -0.8408 -0.1192
 7032TIP3   OH245290  -0.831   0.300  -3.122  0.1513  0.2470 -0.0535
 7032TIP3    H145291  -0.906   0.288  -3.065  1.1497 -0.4737  1.1709
 7032TIP3    H245292  -0.867   0.335  -3.203 -1.2895  1.5993  1.1114
 7033TIP3   OH245293  -3.165   2.725  -3.468  0.1210 -0.5523 -0.0451
 7033TIP3    H145294  -3.215   2.673  -3.405  0.4734  0.0164  0.7208
 7033TIP3    H245295  -3.074   2.702  -3.452  0.2377 -0.1457 -0.1023
 7034TIP3   OH245296  -3.012  -2.327  -4.510 -0.4190 -0.5029 -0.1047
 7034TIP3    H145297  -3.033  -2.367  -4.594  0.6994  0.0118 -0.6419
 7034TIP3    H245298  -3.008  -2.233  -4.527  0.5542 -0.4462  0.3401
 7035TIP3   OH245299  -2.659  -2.942  -3.678 -0.2619  0.5471 -0.1680
 7035TIP3    H145300  -2.570  -2.977  -3.686  0.4524  2.0229  0.7217
 7035TIP3    H245301  -2.707  -3.009  -3.630  0.3545 -0.3027 -0.7196
 7036TIP3   OH245302   0.523   0.038  -3.035 -0.0936  0.1729 -0.1195
 7036TIP3    H145303   0.486   0.016  -2.950  0.6780 -0.8112 -0.0198
 7036TIP3    H245304   0.453   0.085  -3.081 -0.0402  2.0350  1.5783
 7037TIP3   OH245305   1.053  -1.277  -3.172  0.0762 -0.7952 -0.3544
 7037TIP3    H145306   1.009  -1.273  -3.257  0.6207  0.6159 -0.6057
 7037TIP3    H245307   1.014  -1.352  -3.128 -0.0253 -1.7246 -1.9517
 7038TIP3   OH245308  -3.253   1.153   4.525 -0.1617 -0.7062 -0.2933
 7038TIP3    H145309  -3.339   1.118   4.545 -0.9000  1.0146 -0.3034
 7038TIP3    H245310  -3.219   1.184   4.609 -0.2653  0.1076 -0.5436
 7039TIP3   OH245311  -2.226   1.212  -3.947 -0.4148  0.2733  0.2523
 7039TIP3    H145312  -2.299   1.258  -3.906  0.2333 -0.6532  2.6413
 7039TIP3    H245313  -2.183   1.166  -3.874  1.8391 -0.1648 -1.2527
 7040TIP3   OH245314  -2.033  -1.770  -4.544  0.2161 -0.2557  0.0964
 7040TIP3    H145315  -1.985  -1.712  -4.603  1.3770 -1.1683  0.1128
 7040TIP3    H245316  -1.981  -1.850  -4.541 -0.1987 -0.5033  1.7699
 7041TIP3   OH245317   0.465  -1.016  -3.775 -0.2856 -0.5021 -0.1419
 7041TIP3    H145318   0.538  -0.958  -3.795 -0.9237  0.1583 -0.5964
 7041TIP3    H245319   0.485  -1.097  -3.823  1.0686 -1.0354  1.2257
 7042TIP3   OH245320   2.675  -0.384  -3.046  0.0759 -0.4255  0.0074
 7042TIP3    H145321   2.732  -0.307  -3.042 -1.0234  0.3611  1.6009
 7042TIP3    H245322   2.713  -0.445  -2.983  0.6743 -1.0239 -0.9116
 7043TIP3   OH245323  -3.177  -1.858  -3.155  0.0404  0.2310  0.4937
 7043TIP3    H145324  -3.175  -1.763  -3.146  0.5179  0.2754 -0.0634
 7043TIP3    H245325  -3.255  -1.885  -3.107 -1.0608  1.0568 -0.7866
 7044TIP3   OH245326   2.612  -1.434  -3.781  0.2897 -0.4421 -0.0472
 7044TIP3    H145327   2.705  -1.445  -3.802  0.6981  1.1691  0.8077
 7044TIP3    H245328   2.609  -1.360  -3.721 -1.6315  0.0783 -0.7099
 7045TIP3   OH245329  -2.370   3.223  -2.757  0.1231 -0.1771  0.9523
 7045TIP3    H145330  -2.289   3.243  -2.710  0.6348  0.1517 -0.0426
 7045TIP3    H245331  -2.438   3.269  -2.709  0.9370  1.9947  0.1408
 7046TIP3   OH245332   2.552  -2.167  -1.973  0.1145 -0.1261 -0.2075
 7046TIP3    H145333   2.611  -2.184  -1.899 -0.1067 -0.9747 -0.2154
 7046TIP3    H245334   2.591  -2.092  -2.018  1.5029 -1.0067 -0.5356
 7047TIP3   OH245335  -1.175   2.635  -5.278  0.3099 -0.0156  0.2577
 7047TIP3    H145336  -1.133   2.670  -5.200  1.2194  0.3156 -0.3646
 7047TIP3    H245337  -1.188   2.712  -5.334 -0.8547 -0.1604  0.3057
 7048TIP3   OH245338  -1.840  -2.387  -5.017 -0.9555  0.3154  0.6218
 7048TIP3    H145339  -1.890  -2.396  -4.936 -0.2603  0.8428  1.1189
 7048TIP3    H245340  -1.749  -2.399  -4.991 -0.7861 -0.2984 -0.2211
 7049TIP3   OH245341   2.179  -2.843  -5.750  0.0473  0.3001 -0.1772
 7049TIP3    H145342   2.144  -2.881  -5.831 -1.3833  1.3320 -0.0786
 7049TIP3    H245343   2.166  -2.748  -5.760 -0.0502  0.4569  1.2142
 7050TIP3   OH245344  -3.173   0.852  -5.579  0.2979  0.5692  0.2810
 7050TIP3    H145345  -3.192   0.843  -5.486 -2.3813 -0.9945 -0.2700
 7050TIP3    H245346  -3.169   0.761  -5.611  1.5735  1.0661 -1.0682
 7051TIP3   OH245347  -2.718   2.417  -4.343 -0.0810 -0.2657  0.1194
 7051TIP3    H145348  -2.796   2.470  -4.331 -0.4338 -0.3341 -1.5791
 7051TIP3    H245349  -2.675   2.455  -4.420  0.3804 -1.5905 -0.3046
 7052TIP3   OH245350  -1.118   0.314  -4.220 -0.0196 -0.0932  0.5961
 7052TIP3    H145351  -1.058   0.244  -4.246  1.6757  1.0955  1.2233
 7052TIP3    H245352  -1.090   0.339  -4.133  0.0173  2.0129  0.0224
 7053TIP3   OH245353   1.400   0.884  -4.864 -0.2607 -0.1290  0.0002
 7053TIP3    H145354   1.386   0.906  -4.956  2.4349  0.1081 -0.4372
 7053TIP3    H245355   1.362   0.957  -4.815  0.6138  1.0428 -1.0501
 7054TIP3   OH245356   2.306  -2.520  -4.496 -0.4947 -0.1216 -0.0489
 7054TIP3    H145357   2.252  -2.462  -4.443  0.0609 -0.8333  1.3534
 7054TIP3    H245358   2.377  -2.464  -4.528  0.0372  0.0008  1.2878
 7055TIP3   OH245359   0.342   2.264  -4.179 -0.0747  0.3397 -0.3212
 7055TIP3    H145360   0.328   2.358  -4.180  0.3212  0.3902 -1.1555
 7055TIP3    H245361   0.292   2.231  -4.253  1.7364  0.1811 -1.5322
 7056TIP3   OH245362   2.798   1.111  -3.101  0.1041 -0.2283  0.0241
 7056TIP3    H145363   2.889   1.107  -3.130  0.2798  0.2467  0.4914
 7056TIP3    H245364   2.794   1.189  -3.046 -0.3020 -0.9218  0.9953
 7057TIP3   OH245365   0.467  -2.151  -3.358  0.1291  0.2019  0.2913
 7057TIP3    H145366   0.396  -2.111  -3.408 -0.3329 -0.0421  0.7545
 7057TIP3    H245367   0.489  -2.086  -3.292  0.3834  0.3011  0.1138
 7058TIP3   OH245368   3.338   2.151  -5.633  0.1030  0.1992  0.4004
 7058TIP3    H145369   3.283   2.222  -5.602 -0.5942 -1.0759  2.2786
 7058TIP3    H245370   3.366   2.106  -5.553  2.1531 -0.4545 -0.6183
 7059TIP3   OH245371  -1.833   0.070  -3.779 -0.1767  0.2963  0.5143
 7059TIP3    H145372  -1.856   0.141  -3.718  0.6512  0.8418  0.2204
 7059TIP3    H245373  -1.878   0.093  -3.860  1.3741  1.4185 -0.0929
 7060TIP3   OH245374  -2.171  -2.841  -4.182 -0.5343  0.4676  0.2463
 7060TIP3    H145375  -2.151  -2.752  -4.211 -0.9083  0.6948  0.6777
 7060TIP3    H245376  -2.237  -2.830  -4.113 -1.3690 -0.2016 -0.4217
 7061TIP3   OH245377  -3.152   0.937  -3.116  0.1786 -0.9394 -0.3558
 7061TIP3    H145378  -3.063   0.950  -3.085  0.6693  1.0233 -2.3257
 7061TIP3    H245379  -3.162   1.000  -3.187 -3.1437 -0.3657  0.4767
 7062TIP3   OH245380  -1.550   3.056  -4.202 -0.2527  0.0005 -0.0525
 7062TIP3    H145381  -1.585   2.973  -4.233 -1.1259  0.0715  0.7061
 7062TIP3    H245382  -1.626   3.112  -4.191  0.2408  0.6374  0.2395
 7063TIP3   OH245383  -1.864   1.264  -2.181 -0.6804  0.2703  0.2427
 7063TIP3    H145384  -1.793   1.219  -2.135 -0.0341  0.7256 -0.2942
 7063TIP3    H245385  -1.923   1.293  -2.111  0.6777  1.6403  0.8593
 7064TIP3   OH245386   0.702   0.454  -4.208 -0.1620 -0.2818  0.0619
 7064TIP3    H145387   0.678   0.507  -4.284 -1.3855 -3.0003 -1.6109
 7064TIP3    H245388   0.786   0.490  -4.180  0.0918  1.1763 -2.2776
 7065TIP3   OH245389  -1.040  -3.068  -3.396  0.3018 -0.1048 -0.3375
 7065TIP3    H145390  -0.946  -3.050  -3.406 -0.0105  2.3702  0.6059
 7065TIP3    H245391  -1.049  -3.097  -3.305  0.2934 -1.9294 -0.8632
 7066TIP3   OH245392   0.857  -2.577  -3.458 -0.1602  0.9320 -0.0645
 7066TIP3    H145393   0.815  -2.607  -3.378 -1.2977  0.9760 -0.6241
 7066TIP3    H245394   0.791  -2.523  -3.502  0.5821  1.2522 -0.8365
 7067TIP3   OH245395   1.398   2.066  -3.573  0.3527  0.0019 -0.0117
 7067TIP3    H145396   1.366   2.137  -3.629  0.4610  0.0202 -0.0500
 7067TIP3    H245397   1.464   2.022  -3.626  0.4341  0.0014  0.0909
 7068TIP3   OH245398  -0.533   2.562  -5.621  0.2693  0.6010  0.0081
 7068TIP3    H145399  -0.583   2.519  -5.552  1.0053  0.4263  0.4361
 7068TIP3    H245400  -0.498   2.641  -5.581  0.4542  0.6538 -0.2535
 7069TIP3   OH245401   1.720  -2.526  -2.456 -0.2224  0.0403  0.3282
 7069TIP3    H145402   1.721  -2.463  -2.385  0.6999  0.3689  0.0417
 7069TIP3    H245403   1.628  -2.531  -2.483 -0.8177 -1.0212  2.3273
 7070TIP3   OH245404   0.183  -1.701  -4.457  0.2074  0.6263 -0.1093
 7070TIP3    H145405   0.172  -1.791  -4.426  1.0775  0.3839 -0.4671
 7070TIP3    H245406   0.213  -1.711  -4.547 -1.9957  1.3172 -0.9876
 7071TIP3   OH245407   0.479  -0.073  -4.239  0.0269 -0.6269  0.1261
 7071TIP3    H145408   0.520  -0.008  -4.182 -0.0106 -0.6218  0.1474
 7071TIP3    H245409   0.535  -0.150  -4.231 -1.2204 -1.4260  1.9751
 7072TIP3   OH245410  -1.030  -3.301  -5.258 -0.2416  0.0286  0.0217
 7072TIP3    H145411  -0.999  -3.232  -5.199 -1.3919  1.2839 -0.7899
 7072TIP3    H245412  -0.994  -3.278  -5.343 -1.2658  0.0869 -0.4103
 7073TIP3   OH245413  -0.824  -3.042  -3.794  0.4943 -0.0344 -0.1124
 7073TIP3    H145414  -0.842  -3.112  -3.730 -2.0307  0.1708 -0.4951
 7073TIP3    H245415  -0.859  -3.076  -3.876  1.7554  0.5900 -0.9261
 7074TIP3   OH245416   1.925  -1.089  -5.277 -0.2319  0.0264 -0.3240
 7074TIP3    H145417   1.871  -1.164  -5.303  0.6471 -0.1606 -1.7259
 7074TIP3    H245418   1.983  -1.124  -5.209 -1.1489 -0.0279  0.4612
 7075TIP3   OH245419   1.072  -2.082  -4.409 -0.6079 -0.5818  0.0699
 7075TIP3    H145420   1.159  -2.080  -4.450  0.2745 -1.9660  1.7388
 7075TIP3    H245421   1.085  -2.041  -4.324 -2.2525  1.6166 -0.6685
 7076TIP3   OH245422  -1.810   1.972  -2.634 -0.6268 -0.3032 -0.1646
 7076TIP3    H145423  -1.825   1.878  -2.641  2.2115 -0.9367  0.9457
 7076TIP3    H245424  -1.794   1.987  -2.540  1.3702  0.7986 -0.6168
 7077TIP3   OH245425  -0.560   1.475  -4.045  0.4616  0.3443  0.4389
 7077TIP3    H145426  -0.512   1.403  -4.087  0.2063  0.2359  0.3267
 7077TIP3    H245427  -0.649   1.441  -4.037  0.2104  0.8496 -0.1082
 7078TIP3   OH245428   2.825  -1.980  -5.829  0.1764  0.0272 -0.0565
 7078TIP3    H145429   2.859  -1.904  -5.877  1.7444 -0.5550  0.0868
 7078TIP3    H245430   2.741  -1.950  -5.793 -0.4288  0.8924 -2.0377
 7079TIP3   OH245431  -0.806   1.399  -4.209 -0.3924 -0.2249 -0.1010
 7079TIP3    H145432  -0.802   1.306  -4.232 -0.7441 -0.4610  0.7639
 7079TIP3    H245433  -0.833   1.400  -4.117 -1.9494  0.7762 -0.5368
 7080TIP3   OH245434  -1.103  -0.260  -3.044  0.1740  0.0593 -0.0632
 7080TIP3    H145435  -1.027  -0.297  -2.999 -0.2880 -0.7062  0.1110
 7080TIP3    H245436  -1.069  -0.183  -3.090  0.7603  0.5687  1.1749
 7081TIP3   OH245437  -0.737  -1.741  -4.994  0.2356 -0.0247 -0.9255
 7081TIP3    H145438  -0.658  -1.762  -4.943  0.2178 -0.6729 -1.1550
 7081TIP3    H245439  -0.703  -1.714  -5.080  0.2318  0.3390 -0.8161
 7082TIP3   OH245440  -0.617   2.902  -5.206 -0.0843 -0.2356 -0.1291
 7082TIP3    H145441  -0.544   2.894  -5.146 -0.3349 -1.1071  0.0814
 7082TIP3    H245442  -0.583   2.870  -5.290 -0.3402 -1.0959  0.0809
 7083TIP3   OH245443   1.532  -1.087  -4.932 -0.4093  0.0987  0.3630
 7083TIP3    H145444   1.478  -1.059  -4.858 -0.9907  1.1445 -0.4272
 7083TIP3    H245445   1.611  -1.033  -4.927 -1.8793  2.6683 -1.6280
 7084TIP3   OH245446  -0.217   3.038  -3.984  1.3006  0.2420  0.3446
 7084TIP3    H145447  -0.309   3.064  -3.983  1.4203  0.8634 -1.5151
 7084TIP3    H245448  -0.204   2.993  -3.900 -0.7734 -0.1795  0.4934
 7085TIP3   OH245449  -2.359   1.049  -4.412 -0.0862  0.4713 -0.0404
 7085TIP3    H145450  -2.390   1.134  -4.445 -1.0800  1.0509  2.1574
 7085TIP3    H245451  -2.294   1.072  -4.345 -0.6345 -0.4569  0.8477
 7086TIP3   OH245452  -2.147  -3.009  -4.889  0.5826  0.4203  0.6696
 7086TIP3    H145453  -2.123  -3.079  -4.950 -1.1216  0.5175 -0.1648
 7086TIP3    H245454  -2.069  -2.954  -4.885  1.1517 -0.2575 -0.5004
 7087TIP3   OH245455   3.115  -0.275  -4.249 -0.3542 -0.2479  0.0508
 7087TIP3    H145456   3.053  -0.317  -4.190 -1.3450 -0.0616 -0.8272
 7087TIP3    H245457   3.179  -0.233  -4.191 -0.1153 -1.7876  0.9522
 7088TIP3   OH245458   3.189   0.876  -4.263 -0.1378 -0.6235 -0.6379
 7088TIP3    H145459   3.165   0.785  -4.243  2.3298 -1.2149 -0.0143
 7088TIP3    H245460   3.268   0.868  -4.316  1.4952  1.1425  1.3615
 7089TIP3   OH245461   0.000  -2.203  -4.934 -0.2740  0.2839  0.1374
 7089TIP3    H145462  -0.004  -2.209  -4.838 -1.2458  0.5289  0.1230
 7089TIP3    H245463   0.081  -2.155  -4.951 -1.1814  2.2134  0.9426
 7090TIP3   OH245464   1.678   3.166  -5.772 -0.2440 -0.3220  0.3321
 7090TIP3    H145465   1.697   3.083  -5.728 -2.3526  0.7933  3.7177
 7090TIP3    H245466   1.594   3.151  -5.816 -0.1319 -0.2615  0.0960
 7091TIP3   OH245467  -2.535  -2.690  -3.567  0.2674  0.1983  0.4908
 7091TIP3    H145468  -2.564  -2.772  -3.607 -0.3144  0.4008  0.4729
 7091TIP3    H245469  -2.446  -2.678  -3.598 -0.7618  1.3465 -2.4087
 7092TIP3   OH245470  -0.121   2.369  -3.562  0.0288  0.4229 -0.9842
 7092TIP3    H145471  -0.026   2.364  -3.570 -0.0355 -2.4765 -1.0021
 7092TIP3    H245472  -0.153   2.292  -3.607 -2.3114  0.9199 -0.3038
 7093TIP3   OH245473   1.160   3.150  -5.037  0.2232  0.1291 -0.5254
 7093TIP3    H145474   1.208   3.106  -5.107 -0.2333 -1.3534  0.0546
 7093TIP3    H245475   1.073   3.111  -5.039  0.4400 -0.5312  1.3560
 7094TIP3   OH245476   0.842  -1.818  -5.124  0.0899 -0.0185 -0.1496
 7094TIP3    H145477   0.781  -1.851  -5.190 -2.2702  0.2980  1.7139
 7094TIP3    H245478   0.843  -1.886  -5.057  2.6057 -0.4277 -0.5248
 7095TIP3   OH245479   2.596   2.234  -5.658 -0.6374  0.7879 -0.2459
 7095TIP3    H145480   2.669   2.258  -5.715 -0.2853 -0.5693 -0.4110
 7095TIP3    H245481   2.549   2.167  -5.708  0.2043 -1.1163  1.3667
 7096TIP3   OH245482   3.049  -0.709  -3.205  0.2079  0.2529 -0.1293
 7096TIP3    H145483   2.979  -0.708  -3.139  0.6535 -1.6568  0.4607
 7096TIP3    H245484   3.128  -0.691  -3.155  0.2362  1.7007 -0.6734
 7097TIP3   OH245485  -1.580   2.017  -3.486 -0.1799 -0.0335 -0.5147
 7097TIP3    H145486  -1.651   2.057  -3.537  0.3798  0.0691 -1.2389
 7097TIP3    H245487  -1.522   2.090  -3.465  0.6413 -0.3721 -1.4984
 7098TIP3   OH245488  -3.142  -2.393  -5.793 -0.4123  0.0238 -0.2784
 7098TIP3    H145489  -3.113  -2.475  -5.752  0.0221  0.3995  0.1712
 7098TIP3    H245490  -3.232  -2.412  -5.822 -0.0752 -0.8374 -0.8121
 7099TIP3   OH245491   2.566   0.762  -5.480 -0.0364 -0.2095 -0.1701
 7099TIP3    H145492   2.551   0.712  -5.560 -1.4532  0.4718 -0.3694
 7099TIP3    H245493   2.594   0.848  -5.511 -2.1832  0.6016 -0.0714
 7100TIP3   OH245494  -2.767   2.119  -3.478 -0.0454  0.2632  0.3930
 7100TIP3    H145495  -2.708   2.145  -3.548  0.0184  1.8165  0.9931
 7100TIP3    H245496  -2.711   2.070  -3.417 -0.4350 -2.5757 -1.3596
 7101TIP3   OH245497  -2.418   0.116  -5.606 -0.1392 -0.1770  0.5602
 7101TIP3    H145498  -2.338   0.127  -5.657 -1.2594  1.8093 -0.8953
 7101TIP3    H245499  -2.411   0.180  -5.535 -0.5240  0.1415  0.3112
 7102TIP3   OH245500   0.090  -0.615  -5.555 -0.2946 -0.2465  0.5246
 7102TIP3    H145501   0.058  -0.694  -5.512 -0.5336  0.1836  1.1534
 7102TIP3    H245502   0.122  -0.645  -5.639 -1.4939 -0.8378  0.2535
 7103TIP3   OH245503  -1.934   0.605  -5.331 -0.0882 -0.1373 -0.2663
 7103TIP3    H145504  -1.895   0.617  -5.245 -0.5024 -2.8609  0.3776
 7103TIP3    H245505  -1.992   0.530  -5.321 -1.5874  0.6271 -2.4757
 7104TIP3   OH245506  -0.866  -3.248  -5.742 -0.8825 -0.2909 -0.3599
 7104TIP3    H145507  -0.791  -3.289  -5.785 -1.1559  0.0217 -1.1449
 7104TIP3    H245508  -0.922  -3.322  -5.716 -0.2210 -0.5384  0.4185
 7105TIP3   OH245509   2.098   0.583  -4.429  0.3133 -0.2323 -0.4356
 7105TIP3    H145510   2.158   0.606  -4.500  0.8093 -0.8231 -0.2159
 7105TIP3    H245511   2.148   0.601  -4.349 -0.6566  1.5886 -0.1894
 7106TIP3   OH245512   0.771  -1.131  -4.560 -0.1377  0.2125 -0.2845
 7106TIP3    H145513   0.849  -1.103  -4.608  1.7953 -1.2449  1.7800
 7106TIP3    H245514   0.755  -1.220  -4.592 -0.5348  0.2535 -0.2038
 7107TIP3   OH245515  -0.864   1.302  -5.489 -0.0635 -0.6615 -0.2790
 7107TIP3    H145516  -0.820   1.227  -5.529 -0.3371 -1.3470  0.6661
 7107TIP3    H245517  -0.946   1.311  -5.537 -0.1408 -1.1292 -0.2409
 7108TIP3   OH245518   3.046  -1.461  -3.986  0.6444  0.0984 -0.0913
 7108TIP3    H145519   2.978  -1.417  -4.036  1.3086  1.7491  0.3927
 7108TIP3    H245520   3.117  -1.473  -4.049  0.6810  0.2481 -0.0796
 7109TIP3   OH245521   1.290  -1.033  -5.394 -0.3988 -0.0212 -0.4452
 7109TIP3    H145522   1.212  -1.050  -5.341  0.0550  1.3704  0.7599
 7109TIP3    H245523   1.288  -1.099  -5.463 -1.5572 -1.2797  0.7422
 7110TIP3   OH245524   0.363   3.123  -5.554 -0.2812 -0.6972 -0.2256
 7110TIP3    H145525   0.290   3.152  -5.609  0.3901 -0.2877 -0.9323
 7110TIP3    H245526   0.418   3.201  -5.544  0.4102 -1.1595 -0.2952
 7111TIP3   OH245527  -1.455   0.879  -2.995  0.0299 -0.3381 -0.0570
 7111TIP3    H145528  -1.396   0.870  -3.070  0.5761 -0.9318  0.4211
 7111TIP3    H245529  -1.540   0.899  -3.033  0.2407 -0.9034 -0.8531
 7112TIP3   OH245530  -2.276  -2.063  -3.664 -0.5481 -0.2651 -0.6745
 7112TIP3    H145531  -2.362  -2.033  -3.634 -0.2828  1.1487 -1.2578
 7112TIP3    H245532  -2.295  -2.145  -3.711 -1.5000 -0.2524 -0.3406
 7113TIP3   OH245533   0.941   2.561  -3.356  0.5093 -1.0668 -0.0017
 7113TIP3    H145534   1.005   2.560  -3.284  0.8664 -3.7099 -0.2759
 7113TIP3    H245535   0.956   2.646  -3.399  2.5436 -0.8129  1.0639
 7114TIP3   OH245536   3.331  -0.448  -5.296 -0.5299 -0.2105  0.0866
 7114TIP3    H145537   3.389  -0.393  -5.348 -0.9694 -0.3147 -0.5279
 7114TIP3    H245538   3.308  -0.520  -5.355 -1.6194  0.0553  0.1785
 7115TIP3   OH245539  -2.086   1.359  -2.018 -0.5495  0.1163 -0.0461
 7115TIP3    H145540  -2.165   1.342  -2.070 -0.1256 -0.2943 -0.5796
 7115TIP3    H245541  -2.073   1.453  -2.024 -0.9959  0.1832  0.0363
 7116TIP3   OH245542   2.129   1.833  -3.712 -0.0182  0.2770  0.8264
 7116TIP3    H145543   2.131   1.890  -3.635 -2.2435  1.9613 -0.2243
 7116TIP3    H245544   2.215   1.791  -3.715  1.1437  2.3900  2.5754
 7117TIP3   OH245545   2.252   0.816  -5.164  0.0377 -0.3727  0.0599
 7117TIP3    H145546   2.320   0.802  -5.098 -0.6768 -0.7537  0.7376
 7117TIP3    H245547   2.259   0.740  -5.222 -0.1130 -0.6569  0.4078
 7118TIP3   OH245548  -0.956   3.184  -2.633 -0.1211  0.3891 -0.1633
 7118TIP3    H145549  -0.964   3.262  -2.688  3.6571 -0.2166 -1.9063
 7118TIP3    H245550  -0.911   3.214  -2.555 -2.0755  0.5381  0.9734
 7119TIP3   OH245551  -2.333   2.419  -1.808  0.0250 -0.1353  0.0085
 7119TIP3    H145552  -2.316   2.450  -1.897 -0.8608  1.3478  0.3250
 7119TIP3    H245553  -2.416   2.371  -1.815  0.4718 -0.9125 -0.1323
 7120TIP3   OH245554  -1.540  -0.362  -2.833  0.5217 -0.2049  0.7383
 7120TIP3    H145555  -1.447  -0.383  -2.842  0.5484 -0.2457  1.1283
 7120TIP3    H245556  -1.577  -0.436  -2.785  0.0535 -0.7847 -0.4598
 7121TIP3   OH245557   2.160   1.981  -2.763 -0.0878 -0.2373 -0.4935
 7121TIP3    H145558   2.250   1.958  -2.740 -0.5560 -1.6103  0.0922
 7121TIP3    H245559   2.149   2.070  -2.731  0.3569 -0.8711  1.5733
 7122TIP3   OH245560   3.038  -2.838  -2.567 -0.3189 -0.0057  0.2285
 7122TIP3    H145561   2.965  -2.781  -2.544  1.3144  2.3076  0.0135
 7122TIP3    H245562   3.063  -2.881  -2.485 -1.6933 -0.6215  0.3550
 7123TIP3   OH245563   1.184   2.809  -4.866 -0.1266 -0.4264 -0.3705
 7123TIP3    H145564   1.214   2.793  -4.955 -1.6131  1.5173 -1.2957
 7123TIP3    H245565   1.090   2.828  -4.875  0.0314  1.5397  1.3284
 7124TIP3   OH245566  -3.003   2.753  -3.048  0.1024  0.2501  0.0270
 7124TIP3    H145567  -2.972   2.803  -2.973 -0.4040 -0.4162  0.6907
 7124TIP3    H245568  -2.957   2.669  -3.042 -0.0148  0.1562 -0.3564
 7125TIP3   OH245569   2.362   2.012  -3.836  0.0173  0.1050 -0.5696
 7125TIP3    H145570   2.290   2.071  -3.855 -0.9038 -0.3898  1.1614
 7125TIP3    H245571   2.364   1.951  -3.910 -0.9382  0.4886 -0.9181
 7126TIP3   OH245572   0.779  -1.147  -5.609  0.1472 -0.1465 -0.4890
 7126TIP3    H145573   0.800  -1.240  -5.620  0.2773 -0.1535 -0.1992
 7126TIP3    H245574   0.840  -1.101  -5.666  0.1851 -0.2314 -0.5174
 7127TIP3   OH245575   1.525  -0.649  -4.461 -0.1697 -0.8583  0.2525
 7127TIP3    H145576   1.500  -0.678  -4.549 -0.4129 -1.2844  0.4612
 7127TIP3    H245577   1.615  -0.682  -4.450 -0.1943 -0.9344  0.2238
 7128TIP3   OH245578   3.085   2.671  -1.956  0.3427 -0.5685 -0.4613
 7128TIP3    H145579   2.997   2.682  -1.993  0.6282 -1.7644 -1.5881
 7128TIP3    H245580   3.076   2.697  -1.865 -0.8733  0.5903 -0.8652
 7129TIP3   OH245581   2.905   2.566  -3.863  0.7867  0.4211  0.0322
 7129TIP3    H145582   2.878   2.657  -3.873  2.5758  1.0041  0.1601
 7129TIP3    H245583   2.928   2.538  -3.952  1.6471  0.5708  0.2030
 7130TIP3   OH245584  -2.065   3.247  -4.065  0.2645  0.2755  0.0413
 7130TIP3    H145585  -2.058   3.335  -4.027  0.1516 -0.7840  2.7236
 7130TIP3    H245586  -2.061   3.188  -3.990  2.3665 -2.1458 -1.7948
 7131TIP3   OH245587  -2.721  -0.906  -3.248  0.6653 -0.0240  0.4780
 7131TIP3    H145588  -2.764  -0.945  -3.172  2.3574 -0.5296  1.2307
 7131TIP3    H245589  -2.754  -0.957  -3.323  0.0144 -0.4234  1.0234
 7132TIP3   OH245590  -3.076   0.327  -4.535  0.2741  0.6787 -0.7786
 7132TIP3    H145591  -3.067   0.238  -4.569  1.3796  1.1497 -1.7910
 7132TIP3    H245592  -3.108   0.378  -4.609 -0.4236  1.1196 -0.1854
 7133TIP3   OH245593   1.630  -2.858  -2.959 -0.4879  0.3334 -0.9817
 7133TIP3    H145594   1.636  -2.810  -3.042  1.7243  2.6955  0.4076
 7133TIP3    H245595   1.647  -2.793  -2.892 -0.2295 -1.8857  1.2604
 7134TIP3   OH245596  -1.204   0.101  -3.339  0.1466 -0.0519  0.1872
 7134TIP3    H145597  -1.252   0.083  -3.257  0.5199  0.0318  0.4245
 7134TIP3    H245598  -1.113   0.080  -3.319  0.3585  0.6573  0.0140
 7135TIP3   OH245599   1.791   2.008  -4.846  0.4220  0.3781  0.9339
 7135TIP3    H145600   1.768   2.030  -4.755 -0.4973 -1.9971  1.3361
 7135TIP3    H245601   1.867   1.950  -4.838  1.3206  1.3934  0.0559
 7136TIP3   OH245602   1.648  -2.635  -4.237  0.2449 -0.2572 -0.9713
 7136TIP3    H145603   1.615  -2.585  -4.311 -0.0483 -1.2039 -1.4923
 7136TIP3    H245604   1.719  -2.687  -4.272  1.1719  0.4702 -0.2276
 7137TIP3   OH245605  -2.856   1.911  -4.686  0.3973  0.1552  0.1057
 7137TIP3    H145606  -2.893   1.850  -4.622 -1.2456  0.6439 -0.3062
 7137TIP3    H245607  -2.922   1.915  -4.755  0.3238  2.5470  0.2296
 7138TIP3   OH245608  -0.427   1.171  -4.527  0.4025 -0.5548 -0.6291
 7138TIP3    H145609  -0.376   1.116  -4.586  1.8635 -0.9970  0.9479
 7138TIP3    H245610  -0.363   1.229  -4.486 -0.6905  0.3503 -0.1281
 7139TIP3   OH245611  -2.726   1.080  -4.356 -0.2211 -0.6540  0.3305
 7139TIP3    H145612  -2.726   1.113  -4.266 -0.2931  0.1603  0.0459
 7139TIP3    H245613  -2.791   1.133  -4.401 -1.0407 -1.8479  0.0658
 7140TIP3   OH245614  -2.264   1.989  -2.208  0.3089 -0.7121  0.4064
 7140TIP3    H145615  -2.182   1.954  -2.174 -0.2500 -2.0801  0.4136
 7140TIP3    H245616  -2.307   1.914  -2.248 -2.4284 -0.8652  3.2739
 7141TIP3   OH245617  -2.183  -0.146  -5.628 -0.1157  0.5373 -0.1429
 7141TIP3    H145618  -2.088  -0.155  -5.614  0.0568  1.9592 -0.2549
 7141TIP3    H245619  -2.219  -0.133  -5.541 -0.1329  0.5447 -0.1512
 7142TIP3   OH245620  -0.371  -2.700  -3.119 -0.4747  0.3734 -0.2638
 7142TIP3    H145621  -0.455  -2.679  -3.159 -0.8514 -0.9447 -0.2208
 7142TIP3    H245622  -0.326  -2.616  -3.111 -2.1150  1.2191  0.4694
 7143TIP3   OH245623   0.151  -2.685  -3.431 -0.1313  0.1850 -0.6643
 7143TIP3    H145624   0.163  -2.774  -3.398  0.0882  0.4771  0.0779
 7143TIP3    H245625   0.140  -2.695  -3.525 -2.9563 -0.8876 -0.3268
 7144TIP3   OH245626   2.167  -0.146  -5.561 -0.1308  0.4723 -0.0423
 7144TIP3    H145627   2.100  -0.078  -5.570 -0.6865 -0.4121 -3.9657
 7144TIP3    H245628   2.120  -0.228  -5.575  1.3456 -0.3744 -0.1580
 7145TIP3   OH245629   1.031   1.037  -3.932  0.4300  0.0257 -0.0497
 7145TIP3    H145630   1.028   0.974  -4.004 -2.8705 -2.0743  1.6530
 7145TIP3    H245631   0.945   1.078  -3.932  1.4163  2.2581  0.9040
 7146TIP3   OH245632   2.665   1.332  -2.923 -0.4040  0.0526  0.5426
 7146TIP3    H145633   2.607   1.274  -2.873 -2.2967  1.4662  0.0642
 7146TIP3    H245634   2.612   1.363  -2.996  0.6081  2.2412  0.6532
 7147TIP3   OH245635   3.350   0.685  -4.819 -0.0578 -0.7053 -0.6716
 7147TIP3    H145636   3.410   0.698  -4.892 -0.9046 -1.2986 -1.5037
 7147TIP3    H245637   3.329   0.591  -4.822 -0.8029 -0.5611 -0.2359
 7148TIP3   OH245638  -0.104   1.048  -4.368  0.0750  0.1097 -0.1828
 7148TIP3    H145639  -0.176   1.053  -4.431 -0.0669 -0.3765 -0.0652
 7148TIP3    H245640  -0.055   0.970  -4.393  0.6087  0.4791 -0.3050
 7149TIP3   OH245641   1.674  -3.115  -5.085  0.4175  0.5815  0.6102
 7149TIP3    H145642   1.628  -3.052  -5.030 -0.1956  0.9490 -0.2894
 7149TIP3    H245643   1.767  -3.099  -5.067  0.2582  1.4948  0.6875
 7150TIP3   OH245644   2.282  -0.057  -3.183 -0.2480 -0.2583  0.1262
 7150TIP3    H145645   2.374  -0.063  -3.208 -0.5944  0.6597 -1.5304
 7150TIP3    H245646   2.259  -0.146  -3.155  1.7812  0.0115  3.2425
 7151TIP3   OH245647   0.760  -0.067  -3.141  0.7487 -0.3065 -0.5016
 7151TIP3    H145648   0.683  -0.012  -3.126  0.5323 -0.8850  0.6261
 7151TIP3    H245649   0.769  -0.118  -3.060  1.2194 -1.5860 -1.3297
 7152TIP3   OH245650  -1.237   0.289  -5.211  0.5363 -0.4321 -0.1824
 7152TIP3    H145651  -1.226   0.272  -5.304  1.0593 -2.2588  0.1758
 7152TIP3    H245652  -1.330   0.307  -5.201  0.5955  0.4829 -1.1442
 7153TIP3   OH245653  -0.185   0.268  -5.269  0.6596  0.7260  0.3747
 7153TIP3    H145654  -0.277   0.296  -5.264  0.7540  1.2732 -0.6446
 7153TIP3    H245655  -0.146   0.298  -5.187 -0.0953  0.3696  0.8776
 7154TIP3   OH245656  -1.803   0.535  -4.431  0.6459  0.0595  0.1372
 7154TIP3    H145657  -1.776   0.549  -4.340  0.4848  0.5081  0.1212
 7154TIP3    H245658  -1.723   0.513  -4.477  1.1149  1.8566 -0.0078
 7155TIP3   OH245659   2.181   3.180  -3.867 -0.0067 -0.2901  0.2940
 7155TIP3    H145660   2.240   3.106  -3.853 -2.0279 -2.1943 -0.7580
 7155TIP3    H245661   2.105   3.162  -3.812 -0.7794  0.6790 -0.4129
 7156TIP3   OH245662   3.112  -0.617  -5.188 -0.5596 -0.4665 -0.0640
 7156TIP3    H145663   3.144  -0.646  -5.103 -2.7641  2.5958  2.0167
 7156TIP3    H245664   3.180  -0.556  -5.219 -0.0767 -1.0669 -0.2091
 7157TIP3   OH245665  -0.926   2.912  -3.810  0.4538 -0.2905 -0.1939
 7157TIP3    H145666  -0.907   2.837  -3.867  0.1790  0.3307 -1.1309
 7157TIP3    H245667  -1.022   2.912  -3.803  0.4215  0.2224 -0.5623
 7158TIP3   OH245668  -2.295   1.196  -3.491  0.1086  0.4366 -0.2635
 7158TIP3    H145669  -2.215   1.154  -3.525  0.2921  0.6551 -0.1066
 7158TIP3    H245670  -2.366   1.156  -3.541  0.3382  0.4317 -0.5911
 7159TIP3   OH245671  -2.736  -3.023  -5.743 -0.8927 -0.8090 -0.1003
 7159TIP3    H145672  -2.725  -3.096  -5.804 -0.6044  0.7479 -2.0260
 7159TIP3    H245673  -2.688  -2.950  -5.783 -0.7146  0.3266  2.0026
 7160TIP3   OH245674  -1.253   0.222  -5.484 -0.2984 -0.1646 -0.2065
 7160TIP3    H145675  -1.233   0.281  -5.556  0.4947 -2.0139 -1.5967
 7160TIP3    H245676  -1.347   0.207  -5.490 -0.0978 -1.1127 -1.5894
 7161TIP3   OH245677  -2.488   1.290  -4.420 -0.1895 -0.1508 -0.0165
 7161TIP3    H145678  -2.514   1.315  -4.509 -0.8131 -1.1896 -0.1479
 7161TIP3    H245679  -2.559   1.234  -4.389  1.1498 -1.8522  0.1726
 7162TIP3   OH245680  -3.129   1.424  -3.698  0.3217  0.1752 -0.4692
 7162TIP3    H145681  -3.222   1.400  -3.692  0.0798  1.0765 -0.5162
 7162TIP3    H245682  -3.084   1.340  -3.707 -0.2159 -0.5661  2.4858
 7163TIP3   OH245683   0.717   2.718  -5.572 -0.2331 -0.2917 -0.5543
 7163TIP3    H145684   0.771   2.792  -5.547 -1.1847  0.6484 -1.1892
 7163TIP3    H245685   0.631   2.756  -5.591 -0.9220 -1.6360 -0.2815
 7164TIP3   OH245686  -1.936  -0.194  -4.364 -0.3423  0.2630  0.2457
 7164TIP3    H145687  -1.971  -0.185  -4.453 -0.4880  0.8779  0.3638
 7164TIP3    H245688  -1.950  -0.286  -4.342  2.1137 -0.6065 -1.3998
 7165TIP3   OH245689   3.278   3.225  -5.159  0.2674 -0.0362 -0.4493
 7165TIP3    H145690   3.200   3.196  -5.208 -0.5590  1.8178 -0.2978
 7165TIP3    H245691   3.273   3.177  -5.076  0.3481 -1.3529 -1.1638
 7166TIP3   OH245692  -2.630   0.440  -5.712  0.5073  0.0448  0.3630
 7166TIP3    H145693  -2.673   0.359  -5.684 -0.4603 -0.2299 -1.7416
 7166TIP3    H245694  -2.544   0.437  -5.670  0.9528 -2.6562 -0.5598
 7167TIP3   OH245695  -0.251  -0.555  -5.395  0.2824 -0.3849  0.1062
 7167TIP3    H145696  -0.211  -0.618  -5.334  0.8456 -1.5581 -1.4059
 7167TIP3    H245697  -0.256  -0.473  -5.345 -0.0078 -1.4897  1.9675
 7168TIP3   OH245698  -3.043  -3.027  -2.974  0.1259 -0.4110 -0.1268
 7168TIP3    H145699  -3.067  -3.118  -2.954  2.0733 -0.8489  0.3641
 7168TIP3    H245700  -2.968  -3.034  -3.033 -0.4780  0.9084 -1.1059
 7169TIP3   OH245701  -0.975   2.662  -4.738  0.0497  0.3305  0.5973
 7169TIP3    H145702  -0.952   2.574  -4.767 -0.5966  0.6860 -1.0671
 7169TIP3    H245703  -0.962   2.660  -4.643  0.6497 -1.3595  0.5058
 7170TIP3   OH245704   1.136   2.243  -4.557  0.3017 -0.8355  0.3687
 7170TIP3    H145705   1.229   2.257  -4.539  0.1534  0.2555  0.3543
 7170TIP3    H245706   1.118   2.299  -4.632 -0.7786  0.4370  1.5198
 7171TIP3   OH245707   2.867   2.101  -3.842  0.4296  0.4819 -0.6273
 7171TIP3    H145708   2.803   2.031  -3.832 -1.4983  2.2023 -0.2157
 7171TIP3    H245709   2.938   2.078  -3.782 -2.0284  0.8580  2.6685
 7172TIP3   OH245710   1.078   3.232  -3.158  0.5184  0.2064  0.4572
 7172TIP3    H145711   1.149   3.176  -3.127 -1.0228 -0.2543  3.5541
 7172TIP3    H245712   1.095   3.317  -3.118 -0.5958  0.0978  1.2212
 7173TIP3   OH245713   0.274  -0.144  -4.396  0.2337  0.0902 -0.4996
 7173TIP3    H145714   0.339  -0.122  -4.329 -0.0751 -0.4651 -0.0140
 7173TIP3    H245715   0.320  -0.202  -4.456 -0.1405 -1.3227  0.5233
 7174TIP3   OH245716   1.030   2.939  -4.585  0.5425 -0.2356 -0.4080
 7174TIP3    H145717   1.085   2.975  -4.654 -0.7224 -1.1150 -1.9374
 7174TIP3    H245718   0.945   2.981  -4.598  0.2412 -0.5365  0.5316
 7175TIP3   OH245719   3.016  -2.488  -4.204 -0.1795 -0.2253 -0.0532
 7175TIP3    H145720   3.108  -2.498  -4.177  0.0870  0.7811 -0.5410
 7175TIP3    H245721   3.008  -2.396  -4.229 -1.1808 -0.4362 -0.5730
 7176TIP3   OH245722   1.432  -2.151  -5.624 -0.0617 -0.8664  0.1285
 7176TIP3    H145723   1.476  -2.104  -5.694  1.0174 -1.8163  0.1404
 7176TIP3    H245724   1.437  -2.092  -5.549 -1.3677  0.2228 -0.6069
 7177TIP3   OH245725   0.858   2.705  -4.551  0.1172 -0.0509  0.5194
 7177TIP3    H145726   0.772   2.735  -4.579  0.8923  0.7619 -1.1669
 7177TIP3    H245727   0.866   2.735  -4.461 -0.4076  2.0945 -0.0810
 7178TIP3   OH245728  -0.582   0.356  -2.607 -0.3623  0.4262  0.2575
 7178TIP3    H145729  -0.675   0.335  -2.616  0.3650 -4.0661  0.4192
 7178TIP3    H245730  -0.575   0.401  -2.523 -2.2901 -0.4545  0.9514
 7179TIP3   OH245731  -0.231   3.352  -3.231  0.0800  0.3677  0.4218
 7179TIP3    H145732  -0.169   3.416  -3.198 -0.1668  0.5849  0.4711
 7179TIP3    H245733  -0.304   3.405  -3.265  0.7160  0.2185 -1.3064
 7180TIP3   OH245734  -2.247  -0.197  -5.376  0.0618 -0.1648  0.2522
 7180TIP3    H145735  -2.196  -0.274  -5.398 -1.3081 -1.5544  1.6821
 7180TIP3    H245736  -2.182  -0.129  -5.357  1.2771 -0.6347 -1.9194
 7181TIP3   OH245737  -3.293   0.044  -3.122 -0.2304 -0.2364  0.0462
 7181TIP3    H145738  -3.341  -0.038  -3.133  0.8127 -0.7794 -0.5947
 7181TIP3    H245739  -3.296   0.060  -3.027  0.6801 -1.7230  0.3549
 7182TIP3   OH245740   1.911   2.305  -3.445  0.0663  0.0198  0.2665
 7182TIP3    H145741   1.829   2.270  -3.480  0.1922 -0.2208  0.2164
 7182TIP3    H245742   1.964   2.228  -3.426  0.9485  0.2089 -1.2898
 7183TIP3   OH245743   2.446   1.050  -5.762 -0.4088 -0.6148 -0.4511
 7183TIP3    H145744   2.418   1.024  -5.850 -0.4428 -0.8332 -0.3772
 7183TIP3    H245745   2.374   1.025  -5.705  0.2101 -1.8356 -0.1628
 7184TIP3   OH245746   2.798  -2.639  -4.802 -0.5699 -0.1750 -0.0579
 7184TIP3    H145747   2.719  -2.680  -4.835 -0.2338 -1.8273  1.0816
 7184TIP3    H245748   2.779  -2.620  -4.710 -0.7324  2.3780 -0.5318
 7185TIP3   OH245749   1.739  -3.203  -3.950 -0.6114 -0.9637  0.4814
 7185TIP3    H145750   1.699  -3.175  -4.032  0.0408 -1.9222 -0.1937
 7185TIP3    H245751   1.773  -3.123  -3.910  0.7997 -0.7009 -1.1490
 7186TIP3   OH245752  -1.733   3.234  -2.192 -0.3781  0.5423  0.2862
 7186TIP3    H145753  -1.692   3.311  -2.232 -0.7000  1.7679  2.1272
 7186TIP3    H245754  -1.802   3.208  -2.253  0.1676  1.3176 -0.6858
 7187TIP3   OH245755  -1.051   2.247  -3.539 -0.1540  0.5620 -0.3518
 7187TIP3    H145756  -1.058   2.172  -3.480  0.7707 -0.4332 -1.4458
 7187TIP3    H245757  -1.042   2.323  -3.481 -1.8877 -0.0374  0.8005
 7188TIP3   OH245758  -1.499   1.449  -3.135 -0.1169 -0.6847 -0.1574
 7188TIP3    H145759  -1.438   1.519  -3.157 -2.6593  1.8023  0.0543
 7188TIP3    H245760  -1.494   1.388  -3.209  2.9719 -0.9537  0.1727
 7189TIP3   OH245761  -0.189  -0.280  -4.390 -1.0497 -0.9583 -0.5288
 7189TIP3    H145762  -0.125  -0.332  -4.439  0.8305  2.2390 -1.8109
 7189TIP3    H245763  -0.187  -0.316  -4.302  0.7068 -2.5417 -1.1478
 7190TIP3   OH245764  -0.545  -3.291  -4.298 -0.2314  0.0977  0.1501
 7190TIP3    H145765  -0.629  -3.310  -4.257 -0.3784 -0.1270 -0.2468
 7190TIP3    H245766  -0.564  -3.219  -4.359  0.2422  1.2848  1.3647
 7191TIP3   OH245767   2.644  -3.181  -5.828 -0.7414  0.3217  0.2500
 7191TIP3    H145768   2.607  -3.215  -5.909  0.4645 -0.0876 -0.1499
 7191TIP3    H245769   2.575  -3.126  -5.791 -1.2688  0.5993 -1.1075
 7192TIP3   OH245770  -0.785  -1.555  -5.724 -0.2772  0.0691 -0.5633
 7192TIP3    H145771  -0.811  -1.617  -5.793 -0.1202  0.0982 -0.6477
 7192TIP3    H245772  -0.729  -1.492  -5.768  0.9627 -0.6993 -0.1139
 7193TIP3   OH245773   2.572  -2.233  -4.385  0.5238  0.7009  0.2613
 7193TIP3    H145774   2.588  -2.252  -4.477  0.8758  0.2024  0.4211
 7193TIP3    H245775   2.659  -2.219  -4.347  0.3690  1.0970  0.4784
 7194TIP3   OH245776  -1.054   1.687  -5.643  0.2179  0.0282 -0.3190
 7194TIP3    H145777  -1.068   1.782  -5.645 -1.7575 -0.2277 -0.8655
 7194TIP3    H245778  -0.964   1.676  -5.675  0.6581  1.7203  0.1937
 7195TIP3   OH245779   0.659   0.529  -2.911 -0.0467  1.1757 -0.1442
 7195TIP3    H145780   0.681   0.581  -2.834 -0.4756  0.5074  0.4423
 7195TIP3    H245781   0.712   0.450  -2.903  0.0551  1.1886 -0.6443
 7196TIP3   OH245782   1.240  -0.423  -3.790 -0.2493 -0.2890  0.6941
 7196TIP3    H145783   1.178  -0.355  -3.764  1.3301  1.9689 -1.0513
 7196TIP3    H245784   1.318  -0.407  -3.738  0.3638 -0.3335 -0.1873
 7197TIP3   OH245785  -1.687  -0.051  -2.931 -0.7515  0.1335 -0.5532
 7197TIP3    H145786  -1.701   0.040  -2.959  3.4944  0.2817 -3.1666
 7197TIP3    H245787  -1.628  -0.043  -2.856  1.0079 -0.3051 -1.8056
 7198TIP3   OH245788   0.824  -1.813  -3.803  0.0941  0.4017 -0.2326
 7198TIP3    H145789   0.892  -1.747  -3.790 -0.5925  1.2616 -0.8346
 7198TIP3    H245790   0.742  -1.763  -3.805 -0.5268 -0.5617  0.0654
 7199TIP3   OH245791  -0.914  -2.971  -5.784 -0.1178 -0.0345  0.0135
 7199TIP3    H145792  -0.902  -3.061  -5.753 -0.2032 -0.3695 -0.9038
 7199TIP3    H245793  -0.827  -2.946  -5.817 -0.3157 -0.1109 -0.5720
 7200TIP3   OH245794   0.890   2.790  -2.510  0.6191  0.6969  0.3461
 7200TIP3    H145795   0.968   2.734  -2.511  0.8836  0.9335 -2.7543
 7200TIP3    H245796   0.817   2.729  -2.500  1.0482  0.1005 -0.0919
 7201TIP3   OH245797   1.606  -2.347  -5.591 -0.2467 -0.0893 -0.0413
 7201TIP3    H145798   1.561  -2.359  -5.508 -0.9539 -0.2077 -0.4335
 7201TIP3    H245799   1.544  -2.299  -5.645 -0.3088 -1.1346 -0.9287
 7202TIP3   OH245800   2.762   0.190  -3.924 -0.4139 -0.1112  0.1043
 7202TIP3    H145801   2.701   0.116  -3.922  0.7131 -1.0983 -0.8361
 7202TIP3    H245802   2.710   0.264  -3.956 -1.9089 -0.1123  2.3425
 7203TIP3   OH245803  -2.980  -1.875  -5.160  0.5052  0.4758  0.2173
 7203TIP3    H145804  -3.035  -1.954  -5.156 -1.1599  1.5937  0.2958
 7203TIP3    H245805  -3.016  -1.824  -5.232  2.6555  0.4339 -0.9704
 7204TIP3   OH245806  -0.794   2.719  -4.936 -0.2451 -0.3647  0.2432
 7204TIP3    H145807  -0.825   2.727  -4.846  0.5321  1.7615  0.3829
 7204TIP3    H245808  -0.778   2.625  -4.948 -1.2505 -0.8053  1.9827
 7205TIP3   OH245809  -0.970   0.352  -3.356 -0.5376  0.0225 -0.5397
 7205TIP3    H145810  -1.053   0.309  -3.336 -1.0615  0.9395 -0.6716
 7205TIP3    H245811  -0.991   0.415  -3.424 -0.0653  1.3585  0.4883
 7206TIP3   OH245812  -0.092   3.316  -4.434  0.3032  0.5389  0.0890
 7206TIP3    H145813  -0.029   3.244  -4.431 -2.1381 -1.7522  0.0542
 7206TIP3    H245814  -0.133   3.316  -4.347 -2.3131 -0.6694 -1.0590
 7207TIP3   OH245815  -0.012  -0.122  -5.046 -0.0787 -0.0774 -0.4482
 7207TIP3    H145816   0.038  -0.083  -5.118  3.1534 -0.3143  1.4825
 7207TIP3    H245817  -0.045  -0.046  -4.997  1.3612  0.1797  0.1559
 7208TIP3   OH245818  -0.190   0.483  -4.691 -0.9499  0.2014  0.3352
 7208TIP3    H145819  -0.260   0.493  -4.627  0.0910  1.5754  1.3117
 7208TIP3    H245820  -0.188   0.566  -4.739 -0.4016 -0.0646 -0.1197
 7209TIP3   OH245821   0.174   1.631  -2.878  0.0041 -0.0793  0.1117
 7209TIP3    H145822   0.137   1.627  -2.790  0.7157 -0.7255  0.3964
 7209TIP3    H245823   0.099   1.630  -2.936 -0.4617 -0.0300  0.7060
 7210TIP3   OH245824   2.463  -0.745  -4.596 -1.1717  0.1028  0.3872
 7210TIP3    H145825   2.460  -0.650  -4.594 -0.5740  0.1294  0.3147
 7210TIP3    H245826   2.446  -0.772  -4.506  1.3263  0.3929  1.0316
 7211TIP3   OH245827  -1.502   1.141  -5.596  0.6693 -0.2952  0.6320
 7211TIP3    H145828  -1.451   1.060  -5.605 -0.5215 -1.0401  0.3571
 7211TIP3    H245829  -1.526   1.164  -5.686  0.6263  0.1069  0.7475
 7212TIP3   OH245830  -0.669   0.648  -3.857  0.0007 -0.2126 -0.0032
 7212TIP3    H145831  -0.740   0.707  -3.834  0.4598  0.2008  0.3681
 7212TIP3    H245832  -0.668   0.583  -3.787  0.4700  0.2138  0.3869
 7213TIP3   OH245833  -2.322  -1.752  -4.557  0.2250 -0.3131  0.8932
 7213TIP3    H145834  -2.226  -1.750  -4.551  0.2280  1.1602  0.6986
 7213TIP3    H245835  -2.346  -1.665  -4.587 -1.1791 -0.7344  0.7247
 7214TIP3   OH245836  -0.208  -0.983  -5.787  0.3169 -0.1034  0.3019
 7214TIP3    H145837  -0.297  -1.013  -5.772  0.8347 -1.4808  0.8264
 7214TIP3    H245838  -0.191  -1.001  -5.879  0.6451 -1.5779  0.6274
 7215TIP3   OH245839  -0.691  -0.744  -4.792 -0.3949  0.4513  0.1746
 7215TIP3    H145840  -0.713  -0.769  -4.882  1.4553  0.4617 -0.3303
 7215TIP3    H245841  -0.596  -0.727  -4.795  0.0145 -0.9946  2.4378
 7216TIP3   OH245842   0.923  -1.722  -5.480  0.6496 -0.6721 -0.0539
 7216TIP3    H145843   0.996  -1.762  -5.527  0.9037 -0.4853  0.1780
 7216TIP3    H245844   0.909  -1.780  -5.405  0.2968 -0.9266 -0.3138
 7217TIP3   OH245845  -1.846   2.999  -2.960  0.5520  0.0068  0.4707
 7217TIP3    H145846  -1.903   2.971  -2.889 -0.5090  0.8121 -0.0408
 7217TIP3    H245847  -1.890   2.969  -3.040  3.7056 -4.7485  0.0654
 7218TIP3   OH245848  -2.071   2.913  -3.998  0.0475  0.0575 -0.6786
 7218TIP3    H145849  -2.053   2.997  -3.956 -0.1536  0.7623 -1.9526
 7218TIP3    H245850  -1.993   2.860  -3.980 -1.0547 -0.6407  2.7682
 7219TIP3   OH245851   0.177  -1.489  -3.369 -0.3267 -0.0478  0.1704
 7219TIP3    H145852   0.216  -1.560  -3.319  0.9994 -0.0722 -0.8454
 7219TIP3    H245853   0.248  -1.455  -3.423 -2.0318 -1.3142 -3.2032
 7220TIP3   OH245854   0.361  -2.187  -2.607 -0.9107  0.4774 -0.6274
 7220TIP3    H145855   0.423  -2.115  -2.597 -1.1452  0.8046 -1.5261
 7220TIP3    H245856   0.403  -2.260  -2.561 -1.5322  1.6516  2.0153
 7221TIP3   OH245857   2.373   0.521  -3.881  0.4086  0.0159  0.3485
 7221TIP3    H145858   2.424   0.571  -3.818  0.7929  0.1347 -0.0545
 7221TIP3    H245859   2.286   0.516  -3.842  0.5943  0.2464  0.8013
 7222TIP3   OH245860  -2.412  -0.547  -4.992  0.1395 -0.0715  0.2067
 7222TIP3    H145861  -2.341  -0.591  -4.946 -0.0555 -1.5725 -0.8588
 7222TIP3    H245862  -2.367  -0.486  -5.051  0.4490  0.3743  0.8853
 7223TIP3   OH245863  -0.600  -1.432  -5.877 -0.1170 -0.6207 -0.4702
 7223TIP3    H145864  -0.611  -1.422  -5.972 -0.5774 -1.4693 -0.5184
 7223TIP3    H245865  -0.508  -1.412  -5.861  0.5597 -2.6943 -1.4310
 7224TIP3   OH245866   3.124  -2.271  -5.603 -0.1012  0.2669 -0.0658
 7224TIP3    H145867   3.040  -2.309  -5.631  0.4509 -0.3224 -0.9734
 7224TIP3    H245868   3.125  -2.184  -5.644  0.4794 -0.3991 -1.5198
 7225TIP3   OH245869   1.166   1.057  -3.526 -0.2061  0.0276 -0.0940
 7225TIP3    H145870   1.153   0.996  -3.598 -1.5822  0.6930 -0.4403
 7225TIP3    H245871   1.237   1.018  -3.474 -1.0088 -1.8223 -0.3128
 7226TIP3   OH245872  -1.637  -2.996  -3.667  0.3235  0.2171 -0.0022
 7226TIP3    H145873  -1.548  -2.981  -3.635  0.2088 -0.0892  0.4728
 7226TIP3    H245874  -1.689  -2.926  -3.627  0.3511  0.3940 -0.2772
 7227TIP3   OH245875  -1.800  -2.157  -4.246 -0.4900  0.0626 -0.2210
 7227TIP3    H145876  -1.708  -2.136  -4.234 -0.2321 -1.5215  0.7919
 7227TIP3    H245877  -1.800  -2.245  -4.283 -1.6123 -0.2906  0.5798
 7228TIP3   OH245878  -2.195   2.450  -2.589  0.6044  0.0822  0.2382
 7228TIP3    H145879  -2.289   2.432  -2.601  0.6685  0.2644 -0.6598
 7228TIP3    H245880  -2.163   2.378  -2.535  0.1734 -0.6130 -0.4088
 7229TIP3   OH245881   1.965  -2.877  -2.635  0.2280  0.1773 -0.1231
 7229TIP3    H145882   1.996  -2.787  -2.622 -0.8499  0.5947 -0.2774
 7229TIP3    H245883   1.870  -2.870  -2.626  0.2352 -1.2050  1.1993
 7230TIP3   OH245884  -2.140   0.420  -4.628 -0.5694 -0.1677  0.0490
 7230TIP3    H145885  -2.143   0.508  -4.589  0.9381  0.0757 -0.3343
 7230TIP3    H245886  -2.103   0.365  -4.559  0.4072 -0.0858 -0.3952
 7231TIP3   OH245887  -1.265  -0.797  -5.098  0.2451 -0.2969 -0.2155
 7231TIP3    H145888  -1.333  -0.851  -5.058  0.1258 -1.0445 -1.3833
 7231TIP3    H245889  -1.312  -0.724  -5.138  0.3171  0.1617  0.5086
 7232TIP3   OH245890   0.491   1.269  -3.138  0.5681 -0.1987 -0.4422
 7232TIP3    H145891   0.559   1.237  -3.079 -1.0771 -2.3490  0.4626
 7232TIP3    H245892   0.538   1.317  -3.206  2.8433 -0.6247  0.7376
 7233TIP3   OH245893  -0.856  -0.504  -5.658  0.0474  0.5090  0.4138
 7233TIP3    H145894  -0.878  -0.433  -5.598 -1.3158  0.9663 -0.5991
 7233TIP3    H245895  -0.761  -0.499  -5.668  0.0727  1.5661  1.0984
 7234TIP3   OH245896  -2.955  -0.962  -5.117  0.0290 -0.0573 -0.3520
 7234TIP3    H145897  -2.936  -0.921  -5.202 -0.5993 -0.0020 -0.4692
 7234TIP3    H245898  -3.043  -0.998  -5.127 -0.9422  1.8002  0.9816
 7235TIP3   OH245899   2.927   2.884  -3.215  0.3102  0.4383  0.4685
 7235TIP3    H145900   2.975   2.816  -3.169  1.3372  0.1686 -0.9400
 7235TIP3    H245901   2.920   2.852  -3.305  0.4925  2.0001 -0.1360
 7236TIP3   OH245902   2.058  -1.592  -2.755 -0.2942  0.5185  0.8695
 7236TIP3    H145903   1.976  -1.547  -2.735 -0.4627  1.1311 -0.9366
 7236TIP3    H245904   2.096  -1.613  -2.670 -1.0556  2.5822  1.7897
 7237TIP3   OH245905  -0.516   0.139  -4.543 -0.2472 -0.3672  0.1295
 7237TIP3    H145906  -0.443   0.100  -4.495  0.4465  0.2131 -0.4453
 7237TIP3    H245907  -0.594   0.093  -4.509  0.2799 -0.3705  1.3950
 7238TIP3   OH245908  -2.477  -1.817  -3.135 -0.2218  0.3065 -0.2882
 7238TIP3    H145909  -2.519  -1.732  -3.148  1.0269  1.7203  3.4768
 7238TIP3    H245910  -2.527  -1.858  -3.064  1.6360 -0.1503  0.8419
 7239TIP3   OH245911   1.782   0.284  -3.974  0.6557  0.4585 -0.5575
 7239TIP3    H145912   1.766   0.200  -4.016 -0.1293 -0.2276  1.0226
 7239TIP3    H245913   1.714   0.290  -3.906  1.2568  1.9534 -0.0490
 7240TIP3   OH245914   3.017   1.573  -5.540  0.3805 -0.0889 -0.2628
 7240TIP3    H145915   2.986   1.579  -5.630 -0.4848  0.8639  0.0746
 7240TIP3    H245916   2.960   1.508  -5.499  0.2172  0.0943 -0.1955
 7241TIP3   OH245917  -0.239   3.297  -4.160  0.1786  0.1133  0.4873
 7241TIP3    H145918  -0.225   3.236  -4.088  2.2241  0.2131  0.2232
 7241TIP3    H245919  -0.327   3.333  -4.145 -0.1965 -1.2840  1.8303
 7242TIP3   OH245920   0.384  -2.773  -5.002  0.1598 -0.0152 -0.2153
 7242TIP3    H145921   0.397  -2.843  -5.066  0.3600  0.7093 -0.9775
 7242TIP3    H245922   0.454  -2.786  -4.938  0.8703  0.1323 -0.9465
 7243TIP3   OH245923   1.077  -3.028  -3.697  0.3350 -0.5491  0.6713
 7243TIP3    H145924   1.084  -3.079  -3.779 -0.2540 -1.7637  1.3511
 7243TIP3    H245925   0.999  -2.974  -3.709  0.1882 -0.8023  0.4739
 7244TIP3   OH245926  -1.289   0.728  -2.094 -0.6771 -0.1081  0.4448
 7244TIP3    H145927  -1.239   0.783  -2.154 -0.8249  0.9552  1.2700
 7244TIP3    H245928  -1.381   0.748  -2.112 -0.8243 -1.4821 -0.5241
 7245TIP3   OH245929  -0.884  -2.246  -2.429  0.1401 -0.6572  0.3760
 7245TIP3    H145930  -0.891  -2.168  -2.484 -0.1168 -1.7554 -1.2366
 7245TIP3    H245931  -0.931  -2.314  -2.478 -0.8715 -1.4934  2.3980
 7246TIP3   OH245932  -1.503  -2.024  -3.047 -0.3987  0.2523  0.0231
 7246TIP3    H145933  -1.413  -1.993  -3.052 -1.2607  3.3683  0.9753
 7246TIP3    H245934  -1.512  -2.061  -2.959 -0.2349  0.7186  0.2390
 7247TIP3   OH245935  -1.585  -0.771  -4.244 -0.1403 -0.3262  0.8318
 7247TIP3    H145936  -1.501  -0.727  -4.240 -0.9456  1.2164  1.4167
 7247TIP3    H245937  -1.598  -0.806  -4.156  0.4750 -1.7868  0.3859
 7248TIP3   OH245938   1.917  -1.427  -4.925  0.2851 -0.2675  0.0127
 7248TIP3    H145939   1.829  -1.415  -4.888  0.5957  1.3259  0.3219
 7248TIP3    H245940   1.972  -1.451  -4.850  0.3265 -0.0994  0.0375
 7249TIP3   OH245941   0.424   0.732  -4.899  0.1439  0.5817  0.3671
 7249TIP3    H145942   0.422   0.669  -4.827 -2.2927  0.1114 -0.0032
 7249TIP3    H245943   0.469   0.687  -4.970  0.0570 -0.0325  0.6999
 7250TIP3   OH245944  -0.629  -3.027  -4.043 -0.1817 -0.1712  0.4492
 7250TIP3    H145945  -0.597  -3.117  -4.045  0.0752 -0.0720 -0.1124
 7250TIP3    H245946  -0.722  -3.036  -4.022  0.0374 -0.5016  1.3391
 7251TIP3   OH245947   0.801   2.837  -3.367 -0.3462  0.3230  0.0653
 7251TIP3    H145948   0.835   2.840  -3.278 -1.2892  1.3328  0.4133
 7251TIP3    H245949   0.743   2.761  -3.369 -1.1596  0.9178  0.6382
 7252TIP3   OH245950   2.045  -0.124  -3.750  0.1132  0.5600  0.4700
 7252TIP3    H145951   1.965  -0.113  -3.801  1.1948  0.3083 -1.3780
 7252TIP3    H245952   2.110  -0.069  -3.795  1.1207  0.3150  1.5715
 7253TIP3   OH245953   3.092   3.294  -2.971 -0.1058  0.2027 -0.1162
 7253TIP3    H145954   3.153   3.312  -3.043 -1.3093 -1.8161 -1.7802
 7253TIP3    H245955   3.007   3.287  -3.014 -1.2018  0.8965  1.8381
 7254TIP3   OH245956   2.456  -2.887  -5.606 -0.7998  0.0209 -0.0175
 7254TIP3    H145957   2.490  -2.959  -5.553  1.6345  1.2819  0.3269
 7254TIP3    H245958   2.377  -2.859  -5.561  0.6179  0.3600  2.4667
 7255TIP3   OH245959   2.716  -2.970  -2.940  0.0277  0.5998 -0.2714
 7255TIP3    H145960   2.740  -2.892  -2.989 -1.6650  0.5998 -1.1782
 7255TIP3    H245961   2.793  -2.990  -2.886  1.1396  1.8401 -1.3438
 7256TIP3   OH245962  -2.863   2.885  -5.103  0.5641 -0.4892 -0.1205
 7256TIP3    H145963  -2.800   2.954  -5.082 -0.2022  0.1900 -0.0344
 7256TIP3    H245964  -2.856   2.824  -5.030  0.4262  0.0860  0.3806
 7257TIP3   OH245965   0.383  -1.650  -2.211 -0.5518  0.1120 -0.0029
 7257TIP3    H145966   0.427  -1.704  -2.277 -2.0137 -2.2166  0.7846
 7257TIP3    H245967   0.322  -1.596  -2.261  0.9583  1.1083 -0.8245
 7258TIP3   OH245968  -2.916  -0.768  -2.607  0.1780 -0.1413 -0.6017
 7258TIP3    H145969  -2.869  -0.760  -2.524 -1.0366  1.7802 -0.0204
 7258TIP3    H245970  -2.981  -0.835  -2.592 -0.5794  0.7661  0.3207
 7259TIP3   OH245971  -2.218  -0.868  -4.426 -0.5145 -0.1961  0.5668
 7259TIP3    H145972  -2.210  -0.802  -4.495 -1.1801  1.7085  2.2216
 7259TIP3    H245973  -2.278  -0.933  -4.462  0.4179 -0.1042 -1.2419
 7260TIP3   OH245974   0.244   0.387  -3.296  0.5742 -0.1449 -0.1514
 7260TIP3    H145975   0.157   0.366  -3.263  0.2394  1.7462  0.2960
 7260TIP3    H245976   0.229   0.445  -3.370  1.4342 -1.2377 -1.2134
 7261TIP3   OH245977   1.974   1.403  -4.363 -0.0643  0.2236  0.6414
 7261TIP3    H145978   2.039   1.472  -4.373  1.9108 -1.7311 -1.0450
 7261TIP3    H245979   1.890   1.448  -4.368  1.1034  2.7234  1.9035
 7262TIP3   OH245980  -2.489   3.037  -3.180 -0.0341  0.4393 -0.1311
 7262TIP3    H145981  -2.418   2.985  -3.142 -0.0571  0.7701  0.3751
 7262TIP3    H245982  -2.479   3.124  -3.141 -0.7965  0.4543  0.0529
 7263TIP3   OH245983  -0.520   1.559  -3.190  0.0176  0.5558 -0.0359
 7263TIP3    H145984  -0.574   1.519  -3.122 -0.3590 -0.0623 -0.6821
 7263TIP3    H245985  -0.569   1.545  -3.271  2.0215 -1.8826 -0.9793
 7264TIP3   OH245986  -1.120   0.776  -1.898 -1.2678  0.5286 -0.0266
 7264TIP3    H145987  -1.138   0.730  -1.817  0.1866  1.6488  1.0084
 7264TIP3    H245988  -1.177   0.736  -1.963 -0.4603 -2.3582  0.8897
 7265TIP3   OH245989   2.451   0.305   4.242  0.1337  0.1355 -0.1242
 7265TIP3    H145990   2.411   0.265   4.319 -0.5305  1.0218  0.0102
 7265TIP3    H245991   2.377   0.339   4.192  0.4579 -1.4165 -1.7521
 7266TIP3   OH245992   2.831  -2.146  -4.317  0.3417  0.0035  0.2819
 7266TIP3    H145993   2.876  -2.069  -4.281  2.2248 -0.3091 -1.2810
 7266TIP3    H245994   2.889  -2.179  -4.385 -2.1927 -0.5619 -1.7746
 7267TIP3   OH245995   1.160   1.646  -4.330  0.8970  0.1557  0.0291
 7267TIP3    H145996   1.218   1.589  -4.280 -0.6234  0.2646  1.9990
 7267TIP3    H245997   1.157   1.727  -4.280 -2.1857 -0.3973  0.9077
 7268TIP3   OH245998  -0.137   3.125  -5.174  0.8298 -0.2688 -0.3622
 7268TIP3    H145999  -0.191   3.079  -5.239  1.0082  0.5839 -1.1323
 7268TIP3    H246000  -0.105   3.202  -5.220  1.5866 -0.0419  0.5184
 7269TIP3   OH246001  -0.457   1.128  -3.650  0.1225  0.0475  0.0274
 7269TIP3    H146002  -0.364   1.127  -3.631  0.0615 -2.1426  0.4526
 7269TIP3    H246003  -0.463   1.113  -3.744  0.2020 -1.6545  0.2666
 7270TIP3   OH246004   0.072   1.220  -5.262  0.1648 -0.3822 -0.1851
 7270TIP3    H146005   0.083   1.198  -5.169 -1.7110 -1.4288 -0.1532
 7270TIP3    H246006   0.058   1.314  -5.263 -2.8535 -0.7022  1.0200
 7271TIP3   OH246007   3.271  -2.062  -3.902  0.1273  0.1198 -0.5809
 7271TIP3    H146008   3.236  -2.121  -3.969 -0.0939 -0.2092 -0.1774
 7271TIP3    H246009   3.362  -2.092  -3.889 -0.3656 -0.9854  0.5523
 7272TIP3   OH246010  -2.350  -0.753  -3.016  0.8712  0.0381  0.3552
 7272TIP3    H146011  -2.273  -0.715  -3.059 -0.3041  2.3376  0.1156
 7272TIP3    H246012  -2.315  -0.826  -2.965  2.8095 -0.6970 -1.8069
 7273TIP3   OH246013   1.665  -1.432  -5.816 -0.1791  0.0275 -0.0280
 7273TIP3    H146014   1.729  -1.403  -5.751  0.9978  0.2338 -1.2380
 7273TIP3    H246015   1.638  -1.519  -5.786  1.2929 -0.4204  0.0989
 7274TIP3   OH246016   3.315  -0.146  -5.709 -0.3612  0.0368  0.2881
 7274TIP3    H146017   3.282  -0.069  -5.756  1.4413  1.5759  1.4059
 7274TIP3    H246018   3.361  -0.197  -5.775 -1.3626  0.0321 -0.4241
 7275TIP3   OH246019  -1.315   1.659  -4.594  0.1111  0.9487  0.5721
 7275TIP3    H146020  -1.320   1.636  -4.687  0.4029  1.8554  0.3163
 7275TIP3    H246021  -1.403   1.692  -4.573 -0.0753  0.3573  0.7295
 7276TIP3   OH246022   0.254   3.378  -3.707 -0.0390 -0.4107 -0.1703
 7276TIP3    H146023   0.272   3.296  -3.661  1.8722 -1.4609 -2.5429
 7276TIP3    H246024   0.274   3.447  -3.643  0.9707 -1.7939  1.0568
 7277TIP3   OH246025  -3.230   0.621  -4.410  0.6223 -0.0611  0.1186
 7277TIP3    H146026  -3.245   0.603  -4.317 -1.5063  0.5252 -0.0538
 7277TIP3    H246027  -3.234   0.716  -4.418  0.7018 -0.1089 -0.5749
 7278TIP3   OH246028  -0.133  -0.383  -4.677 -0.3161  0.0277  0.1050
 7278TIP3    H146029  -0.059  -0.418  -4.628  0.6163  1.9902  0.1783
 7278TIP3    H246030  -0.109  -0.292  -4.696 -2.1094  0.3070 -1.0832
 7279TIP3   OH246031   1.772   1.863  -5.066 -0.2187 -0.3411 -0.6520
 7279TIP3    H146032   1.766   1.921  -5.141 -2.7581  0.2699 -0.0862
 7279TIP3    H246033   1.753   1.919  -4.991 -0.1455 -1.4062  0.1871
 7280TIP3   OH246034  -3.052  -0.447  -3.887  0.4278  0.3281 -0.3034
 7280TIP3    H146035  -3.068  -0.426  -3.795 -0.6553 -0.8989 -0.1801
 7280TIP3    H246036  -2.974  -0.502  -3.886  0.9055  0.9848 -0.2257
 7281TIP3   OH246037  -1.462  -3.028  -4.394 -0.2865 -0.9434  0.1575
 7281TIP3    H146038  -1.390  -3.006  -4.334 -1.6884 -0.2258  1.6662
 7281TIP3    H246039  -1.419  -3.047  -4.477  1.5826  0.2219  0.7910
 7282TIP3   OH246040   0.221   2.258  -3.608 -0.1143  0.2250  0.0028
 7282TIP3    H146041   0.183   2.179  -3.571  0.5603 -0.8156 -1.4344
 7282TIP3    H246042   0.203   2.326  -3.544  2.1834 -1.7151  2.9929
 7283TIP3   OH246043  -1.664  -1.520  -4.614 -0.1069  0.0896  0.1022
 7283TIP3    H146044  -1.751  -1.552  -4.640 -0.6084  0.9175  0.6961
 7283TIP3    H246045  -1.603  -1.570  -4.668 -1.0263  0.6412 -1.5383
 7284TIP3   OH246046  -3.041   1.671  -3.800  0.4426  0.4434  0.3338
 7284TIP3    H146047  -3.103   1.743  -3.797 -0.4822 -0.3352  0.2133
 7284TIP3    H246048  -3.092   1.594  -3.778  1.2012 -0.3190 -0.4756
 7285TIP3   OH246049   2.957  -0.715  -3.707 -0.0030 -0.0324 -0.0379
 7285TIP3    H146050   2.989  -0.777  -3.641 -0.2997  0.0641  0.2018
 7285TIP3    H246051   3.037  -0.676  -3.743  0.2530 -1.6375 -1.2831
 7286TIP3   OH246052   0.733   2.034  -3.915 -0.8263 -0.6125 -0.1957
 7286TIP3    H146053   0.715   2.076  -3.999  0.2684 -1.4296 -0.8682
 7286TIP3    H246054   0.681   2.083  -3.852  0.2251  1.6153 -0.9604
 7287TIP3   OH246055  -2.533   0.136  -2.797  0.6776 -0.1150  0.1957
 7287TIP3    H146056  -2.504   0.208  -2.740 -0.2035 -0.3587  0.9819
 7287TIP3    H246057  -2.596   0.088  -2.743 -0.1466 -0.3843 -0.9840
 7288TIP3   OH246058  -0.916   1.055  -4.059  0.1432 -0.0945 -0.4125
 7288TIP3    H146059  -0.862   1.050  -4.138  1.5950  1.7031  0.3856
 7288TIP3    H246060  -0.858   1.092  -3.993 -1.2533 -0.8621  1.3236
 7289TIP3   OH246061  -1.693   0.934  -5.039  0.1849 -0.2114  0.3102
 7289TIP3    H146062  -1.757   0.963  -5.104 -0.9975  1.8216  2.2101
 7289TIP3    H246063  -1.743   0.928  -4.958  1.5667 -2.8156  1.0738
 7290TIP3   OH246064   2.496   2.911  -5.297  0.4487 -0.4158  0.2668
 7290TIP3    H146065   2.551   2.957  -5.233 -0.0176 -0.7410  0.9114
 7290TIP3    H246066   2.418   2.966  -5.305  1.5014  0.8727 -1.8305
 7291TIP3   OH246067   1.715  -0.282  -2.503  0.1012  0.4050 -0.4024
 7291TIP3    H146068   1.809  -0.277  -2.520  0.0868 -0.9150 -1.0141
 7291TIP3    H246069   1.699  -0.374  -2.482 -1.1994  0.3952 -1.2963
 7292TIP3   OH246070   1.256   1.080  -2.524  0.1781 -0.1700  0.1310
 7292TIP3    H146071   1.189   1.055  -2.588 -0.4304  0.5548  0.4713
 7292TIP3    H246072   1.251   1.013  -2.456  0.1141 -0.3656 -0.0634
 7293TIP3   OH246073  -2.348  -3.274  -4.782  0.2925 -0.1206  0.0242
 7293TIP3    H146074  -2.421  -3.267  -4.843  0.6899  2.8093 -0.2445
 7293TIP3    H246075  -2.304  -3.355  -4.807 -0.6417  0.0133 -2.3189
 7294TIP3   OH246076   0.188  -0.666  -5.801  0.0305  0.1581  0.7234
 7294TIP3    H146077   0.228  -0.716  -5.873 -1.3654 -0.5602  0.4198
 7294TIP3    H246078   0.253  -0.599  -5.781  1.9036 -1.6190  0.9986
 7295TIP3   OH246079  -2.886   1.170  -3.371 -0.3180  0.7700 -0.3032
 7295TIP3    H146080  -2.982   1.170  -3.374 -0.5456  2.4782  2.8794
 7295TIP3    H246081  -2.859   1.214  -3.451 -2.0429 -0.9644 -1.9631
 7296TIP3   OH246082  -0.302  -1.143  -4.597 -0.1589 -0.4601 -0.0816
 7296TIP3    H146083  -0.325  -1.236  -4.593  0.0250 -0.5357 -0.7225
 7296TIP3    H246084  -0.262  -1.125  -4.512 -1.8020 -0.5228  0.7490
 7297TIP3   OH246085  -1.353  -2.654  -4.975  0.1060 -0.2698 -0.6984
 7297TIP3    H146086  -1.268  -2.668  -4.933  0.3360  0.0264 -1.0632
 7297TIP3    H246087  -1.333  -2.646  -5.068 -0.4658 -1.4882 -0.9344
 7298TIP3   OH246088  -2.603   2.417  -3.154 -0.1385 -0.1774 -0.0440
 7298TIP3    H146089  -2.600   2.451  -3.243 -0.2943  2.1983  0.7899
 7298TIP3    H246090  -2.538   2.347  -3.152  0.4706  0.3032 -1.7880
 7299TIP3   OH246091   3.188  -3.071  -5.196 -0.1434 -0.4454  0.2280
 7299TIP3    H146092   3.158  -3.071  -5.287 -1.5015 -0.1667  0.6510
 7299TIP3    H246093   3.118  -3.028  -5.147  2.0098  2.6368  0.9588
 7300TIP3   OH246094   3.208  -1.430  -3.398 -0.4850 -0.1087 -0.0028
 7300TIP3    H146095   3.271  -1.427  -3.470 -0.2986 -0.5734  0.1394
 7300TIP3    H246096   3.197  -1.523  -3.380 -1.9250 -0.0882 -0.6453
 7301TIP3   OH246097   1.019   2.232  -2.862 -0.2490  0.1108 -0.2919
 7301TIP3    H146098   1.076   2.264  -2.791  1.6268 -1.5439 -0.9474
 7301TIP3    H246099   0.999   2.142  -2.837 -2.5281  0.5880 -0.1894
 7302TIP3   OH246100   2.555  -0.844  -4.830 -0.3374 -0.1389  0.0598
 7302TIP3    H146101   2.645  -0.875  -4.824  0.3021  1.6911  0.9746
 7302TIP3    H246102   2.538  -0.806  -4.743 -1.3717  1.0587 -0.6332
 7303TIP3   OH246103   2.886   2.566  -3.253  0.2201 -0.4953  0.4251
 7303TIP3    H146104   2.904   2.600  -3.165  2.6434  1.1149 -0.5596
 7303TIP3    H246105   2.849   2.641  -3.300  0.5362 -0.8164 -0.3557
 7304TIP3   OH246106  -0.728  -3.090  -4.726 -0.2428  0.3268 -0.8099
 7304TIP3    H146107  -0.761  -3.069  -4.813 -2.9384  0.6966  0.2006
 7304TIP3    H246108  -0.761  -3.019  -4.671  1.1584 -0.0467  0.5826
 7305TIP3   OH246109   3.126  -1.422  -3.123  0.9183  0.7325 -0.2410
 7305TIP3    H146110   3.047  -1.466  -3.156  2.0699  0.2372 -2.5761
 7305TIP3    H246111   3.166  -1.485  -3.063  0.4157  0.2890 -0.3628
 7306TIP3   OH246112  -0.704  -2.725  -2.351  0.0956 -0.1958 -0.4618
 7306TIP3    H146113  -0.707  -2.728  -2.255  0.5731 -0.7773 -0.4604
 7306TIP3    H246114  -0.611  -2.719  -2.372  0.2004 -2.6311 -0.9433
 7307TIP3   OH246115  -1.218  -2.072  -3.371  0.0668  0.1098 -0.5555
 7307TIP3    H146116  -1.210  -1.990  -3.323  0.0888 -1.0429  1.5291
 7307TIP3    H246117  -1.131  -2.086  -3.409 -0.0208  1.1635 -1.1846
 7308TIP3   OH246118  -2.553   2.996  -3.458  0.3524  0.2161  0.6153
 7308TIP3    H146119  -2.545   3.027  -3.368  0.6066 -0.1018  0.7047
 7308TIP3    H246120  -2.496   2.919  -3.462  0.6645  0.4746  0.0693
 7309TIP3   OH246121   0.464  -2.598  -4.645 -0.0501  0.1005 -0.0385
 7309TIP3    H146122   0.512  -2.618  -4.564 -1.0860 -0.2288  0.5156
 7309TIP3    H246123   0.467  -2.679  -4.695 -0.3051 -0.0189  0.1397
 7310TIP3   OH246124  -2.797   2.008  -5.180  0.5966 -0.1211 -0.0407
 7310TIP3    H146125  -2.831   2.092  -5.211 -1.2889 -0.7988  0.0346
 7310TIP3    H246126  -2.703   2.013  -5.195  0.7161  2.4399  1.0159
 7311TIP3   OH246127  -1.699  -2.751  -5.223  0.1540  0.0339 -0.4806
 7311TIP3    H146128  -1.703  -2.655  -5.223 -0.8085  0.0969  2.3932
 7311TIP3    H246129  -1.620  -2.772  -5.174  1.2206 -0.7441 -2.4046
 7312TIP3   OH246130  -2.197   1.150  -4.704  0.3003 -0.1990  0.6709
 7312TIP3    H146131  -2.124   1.142  -4.766 -0.7518 -1.6146 -0.4703
 7312TIP3    H246132  -2.177   1.229  -4.653  2.2294 -0.1272 -0.1024
 7313TIP3   OH246133   1.015  -1.106  -4.708  0.7494  0.2102  0.2561
 7313TIP3    H146134   0.962  -1.029  -4.729 -2.1852 -1.3277  1.4392
 7313TIP3    H246135   1.075  -1.075  -4.640  0.7214  1.8160 -0.4079
 7314TIP3   OH246136   1.953  -1.631  -5.090  0.7169 -0.0528  0.3558
 7314TIP3    H146137   2.036  -1.622  -5.136  1.3613 -0.1225  1.4574
 7314TIP3    H246138   1.953  -1.561  -5.025  0.8655 -1.2652  1.7258
 7315TIP3   OH246139   0.697   0.901  -4.297 -0.0958  0.3819  0.3127
 7315TIP3    H146140   0.623   0.876  -4.242 -0.3766 -1.2396 -0.7387
 7315TIP3    H246141   0.711   0.826  -4.354  0.3983  1.8468 -1.5966
 7316TIP3   OH246142  -0.590   0.674  -2.654  0.2468  0.5383 -0.5337
 7316TIP3    H146143  -0.559   0.744  -2.598  0.6757  0.9596 -1.2746
 7316TIP3    H246144  -0.524   0.605  -2.645 -0.3473  0.0691  0.4543
 7317TIP3   OH246145   1.922   1.697  -3.002  0.7580 -0.3217 -0.0492
 7317TIP3    H146146   1.935   1.680  -3.096 -1.9390 -0.5801 -0.4510
 7317TIP3    H246147   1.949   1.616  -2.959  2.2069 -0.1369 -0.5435
 7318TIP3   OH246148   0.165   0.829  -4.897  0.3512 -0.2390 -0.4138
 7318TIP3    H146149   0.211   0.912  -4.886 -0.9636  0.4945 -0.2132
 7318TIP3    H246150   0.232   0.768  -4.928  2.1831 -0.0742  2.8731
 7319TIP3   OH246151  -0.458  -0.799  -2.759  0.0225  0.0267  0.5204
 7319TIP3    H146152  -0.525  -0.838  -2.703 -0.9849 -1.7447 -1.7552
 7319TIP3    H246153  -0.382  -0.855  -2.748 -0.0702 -0.1271  0.3912
 7320TIP3   OH246154  -0.940   1.551  -4.427  0.2397 -0.3161  0.1735
 7320TIP3    H146155  -0.947   1.480  -4.491  1.5942 -0.4896  0.1901
 7320TIP3    H246156  -0.903   1.509  -4.349  0.9519  0.3719  0.2198
 7321TIP3   OH246157  -0.640  -3.036  -5.179 -0.0715 -0.1670 -0.5744
 7321TIP3    H146158  -0.674  -3.124  -5.197 -0.5886  0.4813 -3.1155
 7321TIP3    H246159  -0.711  -2.992  -5.132 -0.4752 -0.5933 -0.7740
 7322TIP3   OH246160   1.866  -0.261  -4.028  0.0361 -0.1404 -0.0962
 7322TIP3    H146161   1.791  -0.294  -4.077  0.4693 -2.7376  0.8670
 7322TIP3    H246162   1.827  -0.221  -3.950 -0.3873 -0.2533 -0.2469
 7323TIP3   OH246163   0.561  -1.547  -5.705  0.1828  0.5266 -0.3735
 7323TIP3    H146164   0.521  -1.595  -5.777  1.0374  1.1599 -1.2888
 7323TIP3    H246165   0.496  -1.552  -5.634 -0.5617 -0.3096 -1.0894
 7324TIP3   OH246166   2.945  -3.247  -2.628  0.3719  0.4176 -0.0541
 7324TIP3    H146167   2.964  -3.176  -2.690 -0.2879  0.6954  0.0574
 7324TIP3    H246168   2.895  -3.205  -2.558 -0.8416 -0.3356 -0.4506
 7325TIP3   OH246169   2.655   2.191  -4.019  0.2786 -0.0054  0.3015
 7325TIP3    H146170   2.591   2.124  -3.998  2.0353 -1.6255  0.7486
 7325TIP3    H246171   2.737   2.159  -3.982  1.8946  0.8277 -2.2598
 7326TIP3   OH246172   2.310   1.915  -3.335  0.4501 -0.2257 -0.2904
 7326TIP3    H146173   2.267   1.987  -3.288 -0.8674 -0.3978 -1.1739
 7326TIP3    H246174   2.246   1.844  -3.331  0.8641 -0.6519 -1.2353
 7327TIP3   OH246175  -3.094  -1.448  -3.402  0.2436  0.2507 -0.2620
 7327TIP3    H146176  -3.142  -1.493  -3.472 -0.0588  2.4043 -1.5283
 7327TIP3    H246177  -3.122  -1.492  -3.322 -0.7103 -1.1851 -1.3219
 7328TIP3   OH246178   0.316   1.404  -4.589  0.4364 -0.3657  0.3741
 7328TIP3    H146179   0.345   1.368  -4.673  3.4745  2.3918  0.0335
 7328TIP3    H246180   0.243   1.461  -4.612 -0.0608 -1.1477 -0.0420
 7329TIP3   OH246181  -2.780  -1.664  -3.217 -0.5097  0.1045 -0.5082
 7329TIP3    H146182  -2.806  -1.756  -3.214 -1.7168  0.4518  0.0880
 7329TIP3    H246183  -2.754  -1.650  -3.308 -0.4962 -0.7676 -0.6540
 7330TIP3   OH246184   2.523   0.240  -5.820 -0.3288  0.2468  0.2564
 7330TIP3    H146185   2.473   0.175  -5.771  1.9542 -1.3045  0.7066
 7330TIP3    H246186   2.568   0.190  -5.888  0.2561  1.6273 -0.4195
 7331TIP3   OH246187   2.665  -2.893  -5.232 -0.0843 -0.0451  0.3869
 7331TIP3    H146188   2.659  -2.834  -5.308 -1.8481  0.2573  0.7269
 7331TIP3    H246189   2.576  -2.897  -5.197  0.5393 -0.8078  1.9874
 7332TIP3   OH246190  -0.116  -2.291  -5.717 -0.0162 -0.6712  0.3680
 7332TIP3    H146191  -0.042  -2.314  -5.660  0.5439  0.9971  0.3506
 7332TIP3    H246192  -0.192  -2.293  -5.659  0.6562  1.8385  1.4663
 7333TIP3   OH246193   1.902  -2.654  -5.509 -0.1235  0.6197  0.0249
 7333TIP3    H146194   1.956  -2.699  -5.445  1.3906  0.8124 -1.0672
 7333TIP3    H246195   1.963  -2.595  -5.555 -1.3035  1.0354 -1.0736
 7334TIP3   OH246196  -0.471  -3.074  -2.759 -0.1560  0.5320 -0.1092
 7334TIP3    H146197  -0.514  -3.157  -2.779  0.1591  0.5468 -0.8541
 7334TIP3    H246198  -0.436  -3.044  -2.842 -0.2123  1.3889  0.1688
 7335TIP3   OH246199  -2.495   2.813  -2.217 -0.4923  0.5104  0.1945
 7335TIP3    H146200  -2.562   2.745  -2.223  2.9947 -3.1748 -1.9751
 7335TIP3    H246201  -2.463   2.807  -2.127 -1.9393  1.2466  0.7939
 7336TIP3   OH246202  -2.513  -2.198  -2.131 -0.3768  0.3345 -0.7455
 7336TIP3    H146203  -2.551  -2.111  -2.121 -0.4214  0.4952 -2.0992
 7336TIP3    H246204  -2.447  -2.188  -2.200  1.2014 -0.2389  0.6194
 7337TIP3   OH246205  -0.805  -1.336  -4.819 -0.6015  0.1356 -1.1037
 7337TIP3    H146206  -0.780  -1.244  -4.828  1.5420 -0.1873  0.9641
 7337TIP3    H246207  -0.794  -1.372  -4.907 -0.1421  1.5255 -1.6432
 7338TIP3   OH246208   2.985   0.677  -5.467 -0.8644 -0.0076 -0.3451
 7338TIP3    H146209   3.011   0.718  -5.549  0.4446 -0.0531  0.0155
 7338TIP3    H246210   2.890   0.669  -5.472 -0.7029 -1.0784 -2.3308
 7339TIP3   OH246211   0.961  -2.093  -3.134 -0.0854  0.1519 -0.3771
 7339TIP3    H146212   1.049  -2.054  -3.134  0.0685 -0.1957 -0.2151
 7339TIP3    H246213   0.973  -2.179  -3.175 -0.2444 -0.1351  0.1750
 7340TIP3   OH246214  -1.284   1.268  -4.253 -0.3072 -0.0395 -0.1309
 7340TIP3    H146215  -1.316   1.341  -4.201 -0.7032  0.2700 -0.7967
 7340TIP3    H246216  -1.268   1.305  -4.340  2.6895  0.0410  0.3388
 7341TIP3   OH246217  -2.882   3.264  -5.004 -0.4901  0.2563  0.3915
 7341TIP3    H146218  -2.854   3.341  -5.053  0.3761 -1.8405 -2.7233
 7341TIP3    H246219  -2.965   3.239  -5.043 -0.1658 -1.0585  0.4809
 7342TIP3   OH246220   0.732  -0.852  -5.257  0.0607 -0.5117  0.2803
 7342TIP3    H146221   0.764  -0.794  -5.188 -1.0918  0.2583  0.1951
 7342TIP3    H246222   0.683  -0.794  -5.316  0.0921 -1.3437 -0.5808
 7343TIP3   OH246223   2.706   2.755  -5.792 -0.4051 -0.5382 -0.9284
 7343TIP3    H146224   2.643   2.716  -5.731  0.2382 -0.9129 -0.4907
 7343TIP3    H246225   2.683   2.717  -5.877 -2.2811  1.1295 -1.2542
 7344TIP3   OH246226  -2.064   2.413  -1.849 -0.6291  0.1829  0.1079
 7344TIP3    H146227  -2.021   2.346  -1.796  1.8558  0.6549 -1.1971
 7344TIP3    H246228  -2.156   2.408  -1.822  0.2116 -0.6331  3.2906
 7345TIP3   OH246229  -2.274  -1.198  -2.576 -0.2573  0.5985  0.0195
 7345TIP3    H146230  -2.195  -1.171  -2.530  0.0293 -1.0187  0.5576
 7345TIP3    H246231  -2.346  -1.175  -2.516 -0.1564  1.5786 -0.2317
 7346TIP3   OH246232  -1.039  -0.443  -3.912 -0.2153 -0.2141  0.2701
 7346TIP3    H146233  -1.084  -0.391  -3.845 -0.5515 -1.9568  1.4565
 7346TIP3    H246234  -1.005  -0.519  -3.865  0.3612 -1.0289 -1.3850
 7347TIP3   OH246235  -1.531  -1.798  -3.757  0.2167  0.4875 -0.0676
 7347TIP3    H146236  -1.573  -1.817  -3.673  0.4177  0.1963 -0.0324
 7347TIP3    H246237  -1.505  -1.883  -3.791 -0.3490  0.5538 -0.6842
 7348TIP3   OH246238   3.050  -3.057  -4.564 -0.1379 -0.0635  0.1798
 7348TIP3    H146239   3.143  -3.075  -4.578 -0.1175 -0.4300  0.7245
 7348TIP3    H246240   3.036  -3.077  -4.471 -0.1540  2.6221  0.8218
 7349TIP3   OH246241   3.163   0.621  -3.733 -0.0020  0.0506 -0.5517
 7349TIP3    H146242   3.102   0.695  -3.727 -0.2357 -0.1327 -0.6516
 7349TIP3    H246243   3.127   0.555  -3.674 -1.2686 -1.0170 -2.4203
 7350TIP3   OH246244   1.812   0.351  -5.315  0.7638  0.2244 -0.3498
 7350TIP3    H146245   1.876   0.421  -5.329 -0.7881  1.7683 -0.0137
 7350TIP3    H246246   1.754   0.384  -5.247  2.1458 -2.9592  2.6557
 7351TIP3   OH246247   0.428  -2.427  -2.075 -0.1631  0.0181  0.0303
 7351TIP3    H146248   0.341  -2.464  -2.058 -0.2326 -0.2213 -0.8315
 7351TIP3    H246249   0.479  -2.499  -2.111  0.0382  0.4573 -0.5854
 7352TIP3   OH246250   0.006   0.516  -5.260  0.4758  0.5265  0.6127
 7352TIP3    H146251   0.047   0.547  -5.179 -0.9021  0.5126  1.3358
 7352TIP3    H246252  -0.088   0.523  -5.244  0.1577  1.6897 -1.4338
 7353TIP3   OH246253   0.421  -3.044  -5.596  0.0785 -0.2966 -0.0929
 7353TIP3    H146254   0.425  -3.002  -5.682  0.6280  0.2461  0.1901
 7353TIP3    H246255   0.359  -3.116  -5.607  0.2359 -0.3072 -0.9772
 7354TIP3   OH246256   2.623  -1.275  -2.879 -0.5395  0.0997 -0.0611
 7354TIP3    H146257   2.539  -1.310  -2.909 -0.4465  1.0418 -1.4756
 7354TIP3    H246258   2.617  -1.181  -2.895  0.9087  0.1321 -0.5084
 7355TIP3   OH246259   0.295  -0.673  -5.328 -0.4636 -0.5320  0.0150
 7355TIP3    H146260   0.330  -0.762  -5.329 -0.8959 -0.7128 -1.0813
 7355TIP3    H246261   0.343  -0.628  -5.398 -0.3864  0.0387  0.4326
 7356TIP3   OH246262  -2.427   2.008  -4.195 -0.5309  0.1428  0.2771
 7356TIP3    H146263  -2.451   1.931  -4.245  0.1137  1.4608 -2.2062
 7356TIP3    H246264  -2.491   2.075  -4.220  0.5127  1.1723  0.2531
 7357TIP3   OH246265  -1.287  -3.261  -5.170  0.7370 -0.3076  0.1170
 7357TIP3    H146266  -1.213  -3.245  -5.228  1.0924 -0.6360  0.4707
 7357TIP3    H246267  -1.248  -3.274  -5.084  0.2599 -0.3752  0.3299
 7358TIP3   OH246268   0.406  -0.913  -3.517 -0.0919 -0.3304  0.3578
 7358TIP3    H146269   0.451  -0.830  -3.508 -0.5976  0.0544 -0.5611
 7358TIP3    H246270   0.416  -0.937  -3.609 -0.7518 -0.8173  0.4024
 7359TIP3   OH246271   0.703   0.457  -4.890 -0.2985 -0.1197 -0.2077
 7359TIP3    H146272   0.709   0.541  -4.845  1.7942  0.5920 -1.6577
 7359TIP3    H246273   0.618   0.460  -4.935 -1.1150  0.3570  1.3155
 7360TIP3   OH246274   2.256  -1.357  -4.459 -0.6320 -0.4699 -0.3368
 7360TIP3    H146275   2.194  -1.300  -4.414  0.0047 -0.4911  0.5850
 7360TIP3    H246276   2.333  -1.358  -4.403  0.2053 -0.4681 -1.4484
 7361TIP3   OH246277   0.022   0.042  -3.237  0.0670  0.0450  0.3840
 7361TIP3    H146278   0.004   0.082  -3.152  1.8917  0.6635  0.5223
 7361TIP3    H246279   0.057   0.114  -3.290  1.2813 -0.8590 -0.0814
 7362TIP3   OH246280   0.591   2.525  -2.732 -0.0516  0.4825 -0.1567
 7362TIP3    H146281   0.530   2.506  -2.804  0.5049  0.9810 -0.7761
 7362TIP3    H246282   0.677   2.521  -2.773  0.2438  1.3030  0.3633
 7363TIP3   OH246283   1.208   2.525  -5.114  0.3574 -0.4691  0.4127
 7363TIP3    H146284   1.169   2.504  -5.029  1.5770  0.4450  1.2303
 7363TIP3    H246285   1.230   2.618  -5.107  1.3838 -0.6268 -0.5253
 7364TIP3   OH246286   0.699   2.221  -2.128  0.0042  0.4830 -0.3049
 7364TIP3    H146287   0.768   2.206  -2.063  0.6602  0.3408 -1.0274
 7364TIP3    H246288   0.715   2.309  -2.161 -0.3160  0.5452 -0.2994
 7365TIP3   OH246289   0.085  -0.385  -3.526  0.8085 -0.0948  0.1187
 7365TIP3    H146290   0.065  -0.478  -3.536 -1.5820  0.4193 -0.4342
 7365TIP3    H246291   0.011  -0.349  -3.478  2.2126  1.3726  1.3253
 7366TIP3   OH246292  -2.615  -3.275  -3.684 -0.1767  0.0493 -0.0179
 7366TIP3    H146293  -2.694  -3.284  -3.630 -0.4730 -1.1574 -0.6280
 7366TIP3    H246294  -2.634  -3.201  -3.741  0.5888  2.1194  2.2207
 7367TIP3   OH246295   2.074  -0.760  -3.604  0.3245  0.6406 -0.2098
 7367TIP3    H146296   2.003  -0.792  -3.548  0.1852  1.2167 -0.0491
 7367TIP3    H246297   2.061  -0.805  -3.688  1.0806 -0.9391  0.4758
 7368TIP3   OH246298  -1.965  -2.791  -5.822 -0.1717 -0.5071 -0.7000
 7368TIP3    H146299  -2.016  -2.807  -5.743  0.8012  0.2877  0.1152
 7368TIP3    H246300  -1.900  -2.861  -5.824  0.6188  0.1861 -0.0782
 7369TIP3   OH246301   0.857   0.847  -5.368 -0.6219 -0.9129 -0.6403
 7369TIP3    H146302   0.929   0.797  -5.331 -1.4365 -1.1903  0.6204
 7369TIP3    H246303   0.863   0.831  -5.462  0.9328 -0.9347 -0.5574
 7370TIP3   OH246304   1.682  -1.338  -3.058 -0.9181  0.3219 -0.2942
 7370TIP3    H146305   1.676  -1.267  -3.122 -1.2467  2.0221  1.5326
 7370TIP3    H246306   1.769  -1.375  -3.071 -0.6588  1.1955 -1.1638
 7371TIP3   OH246307  -1.574  -1.070  -2.547 -0.6297  0.4812  0.3114
 7371TIP3    H146308  -1.519  -0.992  -2.539 -0.5095  0.4870 -0.5448
 7371TIP3    H246309  -1.573  -1.108  -2.459  1.6668 -0.1303  0.0890
 7372TIP3   OH246310  -2.167  -2.298  -5.631 -0.2989 -0.1770 -0.2943
 7372TIP3    H146311  -2.159  -2.276  -5.538 -0.4799 -0.0111 -0.3171
 7372TIP3    H246312  -2.172  -2.393  -5.633 -0.2659 -0.1825 -0.1360
 7373TIP3   OH246313  -0.210  -0.040  -5.488 -0.9382 -0.4183 -0.4330
 7373TIP3    H146314  -0.245  -0.055  -5.400  1.1160 -3.9755 -0.0373
 7373TIP3    H246315  -0.281  -0.067  -5.546 -2.3483  2.0487  0.0348
 7374TIP3   OH246316   3.280  -2.536  -3.439  0.1618  0.3421 -0.1758
 7374TIP3    H146317   3.299  -2.443  -3.434 -0.5822  0.5731 -1.1599
 7374TIP3    H246318   3.184  -2.541  -3.445 -0.0254 -0.6337  2.3250
 7375TIP3   OH246319  -0.115  -0.595  -4.400  0.5141  0.0473 -0.1921
 7375TIP3    H146320  -0.030  -0.571  -4.435  1.2197 -1.4702  0.3875
 7375TIP3    H246321  -0.124  -0.688  -4.421 -0.6248 -0.0151  0.4850
 7376TIP3   OH246322   2.080  -1.843  -4.298 -0.0831  0.2101  0.3938
 7376TIP3    H146323   2.064  -1.836  -4.203 -0.4660 -0.9863  0.4318
 7376TIP3    H246324   2.142  -1.772  -4.317 -0.0097  0.4733  1.5378
 7377TIP3   OH246325  -0.902  -3.322  -2.865 -0.5378  0.7517  0.2129
 7377TIP3    H146326  -0.953  -3.256  -2.914 -0.9095  0.0364 -0.3826
 7377TIP3    H246327  -0.878  -3.387  -2.931 -0.5709  0.0442  0.8833
 7378TIP3   OH246328  -2.665  -2.232  -4.332 -0.1308 -0.4805 -0.1856
 7378TIP3    H146329  -2.610  -2.295  -4.379  0.8183 -0.1986  0.5174
 7378TIP3    H246330  -2.702  -2.177  -4.401  0.9967 -0.2633 -0.6482
 7379TIP3   OH246331  -3.130   0.563  -4.668  0.4898 -0.0772  0.3157
 7379TIP3    H146332  -3.205   0.554  -4.727  0.9831  0.0415 -0.3487
 7379TIP3    H246333  -3.168   0.589  -4.584 -0.4240 -2.3803  0.6755
 7380TIP3   OH246334  -3.253  -2.728  -4.541 -0.1835 -0.1745 -0.4550
 7380TIP3    H146335  -3.248  -2.794  -4.611 -0.8053 -2.0085  1.1352
 7380TIP3    H246336  -3.170  -2.738  -4.494 -0.0294  0.6153 -0.5510
 7381TIP3   OH246337   0.613   0.277  -3.234 -0.3867 -0.2806 -0.1837
 7381TIP3    H146338   0.597   0.183  -3.244 -0.8671 -0.2057 -0.1382
 7381TIP3    H246339   0.568   0.301  -3.153 -1.4815  0.2633 -0.9275
 7382TIP3   OH246340   0.536   0.922  -3.666 -0.4337  0.0413  0.1785
 7382TIP3    H146341   0.586   0.968  -3.598 -0.8394  3.5187 -1.6375
 7382TIP3    H246342   0.603   0.884  -3.723  0.1422  1.8790 -0.4458
 7383TIP3   OH246343   3.120   1.506  -4.343  0.1893  0.2450 -0.4888
 7383TIP3    H146344   3.046   1.500  -4.403  0.9544  0.7560 -1.5057
 7383TIP3    H246345   3.144   1.415  -4.325 -0.1685  0.0890 -0.7960
 7384TIP3   OH246346  -1.052   0.803  -2.665 -0.5730  0.2400 -0.0508
 7384TIP3    H146347  -1.114   0.818  -2.736 -2.1062 -0.4270  1.0766
 7384TIP3    H246348  -0.977   0.761  -2.707 -1.8281 -0.9968 -1.1649
 7385TIP3   OH246349  -0.671  -1.987  -4.703  0.0850 -0.5355  0.0654
 7385TIP3    H146350  -0.732  -2.034  -4.760  0.0280 -0.3140 -0.0583
 7385TIP3    H246351  -0.604  -1.954  -4.763  2.0814 -3.3948  0.4919
 7386TIP3   OH246352  -0.756   3.030  -2.810  0.3150  0.2466  0.1359
 7386TIP3    H146353  -0.806   3.061  -2.735 -0.0158  0.0968 -0.0229
 7386TIP3    H246354  -0.811   2.964  -2.851  0.5894  0.1661 -0.1119
 7387TIP3   OH246355  -1.192   1.955  -2.723  0.4047 -0.0982  0.3646
 7387TIP3    H146356  -1.149   1.873  -2.746 -1.4770 -0.5525 -1.7961
 7387TIP3    H246357  -1.285   1.938  -2.733 -0.0998  2.0218  0.8988
 7388TIP3   OH246358  -1.930   2.917  -3.238  0.6210 -0.4347  0.3082
 7388TIP3    H146359  -1.870   2.862  -3.289  0.3523 -1.4281  1.0298
 7388TIP3    H246360  -1.982   2.855  -3.187 -1.8753  0.3095 -1.1659
 7389TIP3   OH246361   1.904   2.938  -5.757  0.1539  0.3745 -0.4728
 7389TIP3    H146362   1.932   2.846  -5.757  2.1802  0.8992 -1.8906
 7389TIP3    H246363   1.963   2.981  -5.695  2.6910  1.4750 -3.3728
 7390TIP3   OH246364  -0.030   0.751  -4.415 -0.5808 -0.7194 -0.4440
 7390TIP3    H146365   0.016   0.780  -4.494  0.0247  1.3358  0.5968
 7390TIP3    H246366  -0.020   0.656  -4.415  0.9756 -0.6034 -1.8764
 7391TIP3   OH246367  -0.020  -3.291  -3.545  0.5158 -0.3058 -0.4672
 7391TIP3    H146368  -0.059  -3.280  -3.631 -2.6236 -1.1095  0.7005
 7391TIP3    H246369  -0.089  -3.264  -3.484  2.6284  0.3067  1.8242
 7392TIP3   OH246370   0.145  -2.127  -3.869 -0.6826  0.4279  0.6631
 7392TIP3    H146371   0.167  -2.039  -3.898  0.2331  0.0066  0.0165
 7392TIP3    H246372   0.175  -2.184  -3.940  0.4939 -0.5408  1.8689
 7393TIP3   OH246373  -2.000  -3.290  -5.501 -0.4934 -0.4009 -0.0638
 7393TIP3    H146374  -1.926  -3.302  -5.441  1.1102  1.5293 -1.5136
 7393TIP3    H246375  -1.999  -3.369  -5.555  1.8158  0.3622 -1.2964
 7394TIP3   OH246376   2.192  -2.623  -2.817 -0.0984 -0.0424 -0.6224
 7394TIP3    H146377   2.150  -2.699  -2.858  0.1229  0.3521 -1.6102
 7394TIP3    H246378   2.128  -2.553  -2.827 -0.8301 -0.3522  1.3866
 7395TIP3   OH246379  -1.901   0.228  -5.183  0.1288  0.5988  0.0860
 7395TIP3    H146380  -1.828   0.252  -5.240 -1.1596  0.1572 -1.8504
 7395TIP3    H246381  -1.863   0.223  -5.096  1.9959  2.2505 -0.5685
 7396TIP3   OH246382   2.010  -2.181  -3.690 -0.1794  0.0373 -0.0628
 7396TIP3    H146383   2.095  -2.156  -3.725  0.3416 -0.1593  1.0172
 7396TIP3    H246384   2.030  -2.244  -3.621 -1.2926 -1.0857 -0.7260
 7397TIP3   OH246385  -3.344  -0.714  -3.419  0.2572 -0.2405 -0.4658
 7397TIP3    H146386  -3.312  -0.779  -3.356  0.9417 -0.2269 -0.7950
 7397TIP3    H246387  -3.303  -0.632  -3.391 -2.6174  0.7083  1.5907
 7398TIP3   OH246388   3.101   0.906  -3.992  0.4667  0.6327  0.0616
 7398TIP3    H146389   3.117   0.813  -4.008  0.2175  0.5341  0.3774
 7398TIP3    H246390   3.162   0.951  -4.051 -0.7982  0.3054 -1.5492
 7399TIP3   OH246391  -1.499   1.836  -2.423 -0.4019 -0.0848 -0.0227
 7399TIP3    H146392  -1.530   1.893  -2.352 -0.6674 -0.7258  0.3768
 7399TIP3    H246393  -1.425   1.884  -2.461  1.8684 -1.0925  2.7221
 7400TIP3   OH246394   1.097  -1.583  -5.217 -0.2965  0.5022  0.4437
 7400TIP3    H146395   1.136  -1.546  -5.138 -0.0073  1.0740  0.0379
 7400TIP3    H246396   1.017  -1.532  -5.231 -0.9930 -0.3992  1.0438
 7401TIP3   OH246397   3.317  -1.621  -3.792 -0.2291  0.1345 -0.4820
 7401TIP3    H146398   3.312  -1.612  -3.887 -0.7753  0.6898 -0.4075
 7401TIP3    H246399   3.281  -1.708  -3.775  0.0796 -0.0580 -0.7986
 7402TIP3   OH246400   2.959  -3.292  -5.090  0.3976  0.0524 -0.4561
 7402TIP3    H146401   2.893  -3.348  -5.130 -0.6494  0.6266  0.4122
 7402TIP3    H246402   2.930  -3.203  -5.109  0.9246  0.3197 -0.0508
 7403TIP3   OH246403  -0.684   2.809  -2.171 -0.0202 -1.0585  0.3897
 7403TIP3    H146404  -0.629   2.854  -2.235 -1.6194 -0.4489 -0.6092
 7403TIP3    H246405  -0.623   2.753  -2.123  1.4047 -0.6898 -0.9020
 7404TIP3   OH246406  -0.705   0.388  -2.878 -0.2887  0.3796  0.1424
 7404TIP3    H146407  -0.732   0.351  -2.962 -0.2567 -0.0701  0.3286
 7404TIP3    H246408  -0.782   0.436  -2.846 -0.7784 -0.6405  0.5267
 7405TIP3   OH246409   1.974   1.166  -5.270  0.1048 -0.2135  0.3291
 7405TIP3    H146410   2.007   1.252  -5.298 -0.9792  0.4151  0.8949
 7405TIP3    H246411   2.050   1.108  -5.274  1.0043  0.9236  0.5434
 7406TIP3   OH246412   0.184  -1.091  -5.057 -0.1127  0.2306  0.4478
 7406TIP3    H146413   0.155  -1.029  -4.990  0.6140  0.4717  0.5395
 7406TIP3    H246414   0.194  -1.174  -5.010 -2.2451 -0.2815  0.0993
 7407TIP3   OH246415  -0.078   3.283  -2.328  0.7858  0.4870 -0.0712
 7407TIP3    H146416  -0.044   3.194  -2.338  0.1896  0.4078 -1.8370
 7407TIP3    H246417  -0.028   3.321  -2.255  2.6219 -0.5488 -0.7306
 7408TIP3   OH246418   2.379  -2.265  -4.817 -0.2282  0.1889  0.0240
 7408TIP3    H146419   2.431  -2.328  -4.768  0.1967 -0.3262 -1.0380
 7408TIP3    H246420   2.426  -2.255  -4.900 -0.9582  0.9549 -0.3126
 7409TIP3   OH246421  -1.712  -3.027  -5.353 -0.1116 -0.1840 -0.2404
 7409TIP3    H146422  -1.727  -2.964  -5.424  0.4208 -0.0014 -0.1974
 7409TIP3    H246423  -1.623  -3.007  -5.322 -0.8063  0.6303  1.3682
 7410TIP3   OH246424   3.140  -2.434  -4.942  0.0415  0.4555  0.2183
 7410TIP3    H146425   3.186  -2.359  -4.906 -1.4965  0.9140  1.3293
 7410TIP3    H246426   3.176  -2.509  -4.894  0.9425  0.5588 -0.2665
 7411TIP3   OH246427   3.208   2.206  -4.323  0.3707 -0.2380 -0.8540
 7411TIP3    H146428   3.262   2.161  -4.258 -0.5908 -0.4391 -0.1676
 7411TIP3    H246429   3.150   2.263  -4.271 -1.5145 -1.5809 -1.3781
 7412TIP3   OH246430  -0.753   2.696  -5.853 -0.4081  0.3566  0.9591
 7412TIP3    H146431  -0.676   2.681  -5.906 -1.0649 -0.8514  0.3051
 7412TIP3    H246432  -0.719   2.714  -5.765  0.6562  1.7571  0.2881
 7413TIP3   OH246433   1.900   0.918  -3.608  0.7703 -0.3745 -0.0347
 7413TIP3    H146434   1.895   0.843  -3.549  1.9297  0.8525  1.7177
 7413TIP3    H246435   1.826   0.905  -3.669 -2.0036 -0.5772  3.0727
 7414TIP3   OH246436   2.791  -0.823  -4.497 -0.3028 -0.2929  0.3730
 7414TIP3    H146437   2.767  -0.908  -4.461 -0.6258 -0.3504  0.0356
 7414TIP3    H246438   2.812  -0.841  -4.589  1.6691 -0.3384  0.8039
 7415TIP3   OH246439  -3.228  -0.645  -3.745 -0.0548  0.5128  0.3359
 7415TIP3    H146440  -3.261  -0.686  -3.665 -3.3958 -0.2124 -1.2501
 7415TIP3    H246441  -3.180  -0.714  -3.790 -0.3576  0.1707  0.5368
 7416TIP3   OH246442   3.123  -2.320  -3.769 -0.2728  0.2698  0.6150
 7416TIP3    H146443   3.184  -2.318  -3.843 -1.3715  1.8702 -0.3376
 7416TIP3    H246444   3.178  -2.329  -3.692  0.9661 -0.7674 -0.3511
 7417TIP3   OH246445  -2.121  -0.082  -3.497  0.1162 -0.2000  0.6774
 7417TIP3    H146446  -2.141  -0.008  -3.439  0.7635  0.7360 -0.2631
 7417TIP3    H246447  -2.136  -0.048  -3.585  0.9703 -1.0273  0.2027
 7418TIP3   OH246448  -0.419   0.523  -4.517  0.5935  0.0398  0.6022
 7418TIP3    H146449  -0.477   0.597  -4.503 -0.3409 -0.3891 -0.8019
 7418TIP3    H246450  -0.450   0.456  -4.457 -1.8603 -0.9547 -1.5606
 7419TIP3   OH246451  -0.015   0.179  -3.836 -0.5050 -0.0816  0.0980
 7419TIP3    H146452  -0.026   0.257  -3.782 -0.1155 -0.6600  1.0308
 7419TIP3    H246453  -0.094   0.176  -3.890  0.2053  1.8585 -1.1394
 7420TIP3   OH246454   2.987   1.084  -4.259  0.2322 -0.1575  0.1395
 7420TIP3    H146455   3.061   1.029  -4.232  1.4695  1.1813 -0.4204
 7420TIP3    H246456   3.000   1.097  -4.353 -0.8640 -0.1051 -0.0139
 7421TIP3   OH246457  -1.190  -2.833  -2.729  0.2306 -0.1703 -0.0041
 7421TIP3    H146458  -1.178  -2.752  -2.679 -0.3567 -0.6313  0.9083
 7421TIP3    H246459  -1.237  -2.891  -2.669 -1.2999 -0.4342 -1.3875
 7422TIP3   OH246460   1.909   1.783  -5.852 -0.7278  0.1948 -0.2290
 7422TIP3    H146461   1.845   1.716  -5.826  0.2351 -0.6283  0.0849
 7422TIP3    H246462   1.862   1.837  -5.916 -1.1066 -1.6902 -1.6619
 7423TIP3   OH246463   1.147  -3.034  -4.940  0.8271  0.2908 -0.4771
 7423TIP3    H146464   1.183  -3.119  -4.964 -0.2658  0.2144 -1.9735
 7423TIP3    H246465   1.107  -3.048  -4.854  0.7301 -0.6710 -0.6712
 7424TIP3   OH246466   3.044   2.366  -2.634  0.4017  0.4557 -0.3793
 7424TIP3    H146467   3.137   2.346  -2.625 -0.1229 -1.2520  1.9579
 7424TIP3    H246468   3.034   2.453  -2.594  0.8455  0.2550  0.1752
 7425TIP3   OH246469   0.448  -2.231  -1.873 -0.2364 -0.1200  0.9550
 7425TIP3    H146470   0.523  -2.182  -1.906 -0.5743 -0.5275 -0.5009
 7425TIP3    H246471   0.445  -2.310  -1.928 -1.6377 -0.1723  1.0696
 7426TIP3   OH246472  -0.859  -0.051  -4.616 -0.1458  1.1074  0.1372
 7426TIP3    H146473  -0.802   0.017  -4.580  1.2781  0.9609 -1.6997
 7426TIP3    H246474  -0.872  -0.025  -4.708 -1.2030 -0.0594 -0.0642
 7427TIP3   OH246475  -2.603  -2.348  -4.885 -0.3395 -0.0019  0.3943
 7427TIP3    H146476  -2.536  -2.285  -4.911  0.7156 -1.4534 -0.5828
 7427TIP3    H246477  -2.554  -2.425  -4.857 -1.5926 -1.0611 -0.1993
 7428TIP3   OH246478   1.575   0.571  -3.927 -0.0546  0.2875  0.0094
 7428TIP3    H146479   1.487   0.594  -3.896  0.1266  0.4240  0.4395
 7428TIP3    H246480   1.561   0.523  -4.008 -0.5955 -0.8142  0.7338
 7429TIP3   OH246481  -0.931   2.808  -2.940  0.6679 -0.1282  0.0912
 7429TIP3    H146482  -0.929   2.763  -3.024  0.9666  0.0184  0.0202
 7429TIP3    H246483  -0.973   2.745  -2.880  0.8499 -0.4008 -0.0653
 7430TIP3   OH246484  -2.158  -0.844  -3.449 -0.3325 -1.0244  0.1527
 7430TIP3    H146485  -2.154  -0.817  -3.541  0.0133  0.4580  0.5829
 7430TIP3    H246486  -2.229  -0.793  -3.411  0.8650 -0.0603  1.1835
 7431TIP3   OH246487  -0.641   0.068  -3.859 -0.0700  0.0350  0.3626
 7431TIP3    H146488  -0.713   0.095  -3.800 -1.7457 -2.5174 -0.3733
 7431TIP3    H246489  -0.584   0.015  -3.804 -0.2283 -0.2029  0.2970
 7432TIP3   OH246490  -1.660  -0.582  -2.748  0.1153 -0.3374 -0.0874
 7432TIP3    H146491  -1.715  -0.645  -2.794  0.1379  0.2546 -0.9324
 7432TIP3    H246492  -1.585  -0.634  -2.718  0.2759 -0.6656 -1.0211
 7433TIP3   OH246493   2.348   1.360  -3.636 -0.8903 -0.3486  0.3900
 7433TIP3    H146494   2.281   1.305  -3.595 -0.3183 -1.9876 -0.7633
 7433TIP3    H246495   2.331   1.353  -3.730  0.7444 -0.6468  0.0793
 7434TIP3   OH246496  -2.622   2.576  -2.551  0.4292 -0.1531  0.1259
 7434TIP3    H146497  -2.675   2.649  -2.521 -0.2926 -0.8224  0.5281
 7434TIP3    H246498  -2.569   2.551  -2.476  1.9111  0.9953 -0.4907
 7435TIP3   OH246499   2.223   2.447  -5.941  0.2104  0.3437  0.0468
 7435TIP3    H146500   2.190   2.393  -5.869  0.6236 -0.8416 -0.6324
 7435TIP3    H246501   2.310   2.412  -5.960  0.9892  2.0168  0.3520
 7436TIP3   OH246502   1.774  -1.560  -2.556  0.1818  0.7813 -0.0193
 7436TIP3    H146503   1.773  -1.617  -2.479  1.1440  0.2565 -0.3689
 7436TIP3    H246504   1.822  -1.482  -2.527 -0.9118  1.3137  0.3851
 7437TIP3   OH246505   3.263   0.111  -5.859  0.9103 -0.0684  0.0938
 7437TIP3    H146506   3.270   0.146  -5.948 -4.0806 -1.3056 -1.1174
 7437TIP3    H246507   3.224   0.182  -5.808  2.2638  0.0948  0.9517
 7438TIP3   OH246508  -2.888   0.472  -3.311  0.1998 -0.0288  0.3522
 7438TIP3    H146509  -2.813   0.447  -3.257  0.7584  0.6251 -0.1092
 7438TIP3    H246510  -2.922   0.552  -3.270  0.0222 -0.0779  0.3022
 7439TIP3   OH246511  -2.512   2.500  -5.701 -0.7960 -0.8424  0.5096
 7439TIP3    H146512  -2.420   2.498  -5.674 -0.2001 -0.0893 -1.3511
 7439TIP3    H246513  -2.536   2.592  -5.699 -1.6686 -1.0676  1.3720
 7440TIP3   OH246514  -1.762  -1.342  -3.511  0.0949 -0.2803 -0.1050
 7440TIP3    H146515  -1.848  -1.301  -3.521 -0.6518 -1.8462 -0.4295
 7440TIP3    H246516  -1.774  -1.404  -3.439  1.0628 -0.2438  0.0909
 7441TIP3   OH246517  -0.678   1.790  -4.031 -0.1811 -0.5893  0.1694
 7441TIP3    H146518  -0.633   1.803  -4.115 -1.2751 -0.3876 -0.3976
 7441TIP3    H246519  -0.734   1.714  -4.045 -1.4903  0.3398  0.2335
 7442TIP3   OH246520  -2.091  -3.108  -5.677 -0.3922  0.1623  0.1357
 7442TIP3    H146521  -2.116  -3.143  -5.763 -0.1785 -0.5554  0.3570
 7442TIP3    H246522  -2.050  -3.183  -5.632  0.2423  0.7516  0.5506
 7443TIP3   OH246523  -1.406   2.454  -3.620 -0.0351 -0.0488  0.1432
 7443TIP3    H146524  -1.420   2.544  -3.591 -0.9486 -0.6253  1.5873
 7443TIP3    H246525  -1.459   2.445  -3.699 -2.4481 -0.1531  1.6675
 7444TIP3   OH246526  -3.221  -1.011  -5.128 -0.1841 -0.2565  0.8397
 7444TIP3    H146527  -3.279  -1.087  -5.131 -1.1604  0.5128 -0.2454
 7444TIP3    H246528  -3.272  -0.939  -5.164  0.9480  0.7887  1.2278
 7445TIP3   OH246529   0.679  -1.480  -5.225 -0.7674 -0.9202  0.3285
 7445TIP3    H146530   0.770  -1.488  -5.253 -0.7386 -0.4476  0.2774
 7445TIP3    H246531   0.644  -1.408  -5.277 -1.0877 -0.9047  0.5598
 7446TIP3   OH246532   2.539   0.323  -4.268 -0.9806  0.3314 -0.0041
 7446TIP3    H146533   2.491   0.371  -4.336  0.1318  2.2631  0.5014
 7446TIP3    H246534   2.528   0.231  -4.292 -1.3018  0.9004 -2.3390
 7447TIP3   OH246535  -0.472   0.375  -5.519 -0.7421 -0.1489  0.4445
 7447TIP3    H146536  -0.509   0.443  -5.464 -1.2562 -0.9849  1.1546
 7447TIP3    H246537  -0.393   0.414  -5.557  0.0272  0.2092  2.3324
 7448TIP3   OH246538   3.054   0.610  -4.802  0.6315  0.0454 -0.6411
 7448TIP3    H146539   3.139   0.625  -4.760  0.9582  0.2398 -1.3550
 7448TIP3    H246540   2.990   0.632  -4.735  1.0811  3.6277 -1.2081
 7449TIP3   OH246541  -2.186  -2.874  -5.586 -0.4830 -0.0239  1.1843
 7449TIP3    H146542  -2.247  -2.897  -5.516  0.0669 -1.4378  1.2447
 7449TIP3    H246543  -2.144  -2.957  -5.609  1.7467  0.9467  1.4568
 7450TIP3   OH246544   2.227  -0.853  -5.472 -0.3144 -0.6556  0.4791
 7450TIP3    H146545   2.309  -0.902  -5.464  0.7147  0.8032 -0.5980
 7450TIP3    H246546   2.250  -0.774  -5.522 -2.4785 -0.4296 -0.2959
 7451TIP3   OH246547  -0.847  -0.755  -3.391 -0.0743 -0.4923 -0.3935
 7451TIP3    H146548  -0.759  -0.793  -3.397 -0.6389 -1.9251  0.1119
 7451TIP3    H246549  -0.905  -0.830  -3.383 -1.1275  0.4839  1.9112
 7452TIP3   OH246550   1.968  -1.823  -5.553  0.7768 -0.7849  0.1685
 7452TIP3    H146551   1.964  -1.816  -5.458  2.0535  0.0179  0.1847
 7452TIP3    H246552   2.058  -1.848  -5.572  0.6104 -0.6703 -0.8394
 7453TIP3   OH246553  -1.881   0.439  -2.752 -0.1063  0.5951 -0.6709
 7453TIP3    H146554  -1.825   0.478  -2.818  0.4297  2.1666  0.6524
 7453TIP3    H246555  -1.820   0.401  -2.688 -0.5435  1.1591  0.1006
 7454TIP3   OH246556   1.224  -2.972  -3.473  0.3965  0.2657 -0.1186
 7454TIP3    H146557   1.260  -3.035  -3.536 -1.7004  0.1132 -1.2601
 7454TIP3    H246558   1.177  -2.908  -3.527  0.0419  1.1587  1.2012
 7455TIP3   OH246559   1.276  -0.225  -3.150  0.2437 -0.0015  0.1946
 7455TIP3    H146560   1.189  -0.193  -3.174 -0.2741 -0.1736  1.7374
 7455TIP3    H246561   1.294  -0.186  -3.065  1.8045  0.2133 -0.1868
 7456TIP3   OH246562   2.769  -2.094  -5.541 -0.5877 -0.0392 -0.1857
 7456TIP3    H146563   2.835  -2.046  -5.492 -0.6125 -0.3742  0.1779
 7456TIP3    H246564   2.725  -2.027  -5.593 -2.0322  0.6894  1.8678
 7457TIP3   OH246565  -2.096   2.579  -2.265 -0.1111  0.0415 -0.0307
 7457TIP3    H146566  -2.017   2.624  -2.295 -1.3747  1.0462 -2.1048
 7457TIP3    H246567  -2.168   2.634  -2.296 -1.6979 -2.3244 -0.8375
 7458TIP3   OH246568  -2.471  -0.431  -5.332 -0.1807 -0.5300 -0.2020
 7458TIP3    H146569  -2.395  -0.489  -5.342  0.0433 -0.0844 -1.2292
 7458TIP3    H246570  -2.446  -0.371  -5.261 -0.2557 -1.4097  0.5936
 7459TIP3   OH246571  -0.648   2.187  -1.985  0.5059 -0.2287  0.0823
 7459TIP3    H146572  -0.643   2.119  -1.918  0.6671  0.5543  0.8844
 7459TIP3    H246573  -0.636   2.269  -1.937  1.0020  0.3259 -0.9581
 7460TIP3   OH246574  -0.462  -0.911  -3.056  0.4092 -0.5861 -0.4565
 7460TIP3    H146575  -0.403  -0.955  -2.995  1.1846 -0.1685 -0.8782
 7460TIP3    H246576  -0.523  -0.863  -3.001  0.8949 -0.4814 -0.0027
 7461TIP3   OH246577   1.048  -2.212  -5.623 -0.6381 -0.2142 -0.0807
 7461TIP3    H146578   1.070  -2.285  -5.681 -0.2419 -0.7241  0.7072
 7461TIP3    H246579   1.133  -2.177  -5.596 -0.8263  0.3057 -0.1493
 7462TIP3   OH246580   0.819  -3.125  -3.196  0.0959 -0.3686  0.2341
 7462TIP3    H146581   0.833  -3.128  -3.291  2.0320  0.4719  0.4512
 7462TIP3    H246582   0.772  -3.207  -3.176 -0.0198 -0.7263 -1.3794
 7463TIP3   OH246583  -1.240  -1.490  -4.857  0.3298  0.1660 -0.4347
 7463TIP3    H146584  -1.200  -1.574  -4.834 -0.0612  0.1239  0.1272
 7463TIP3    H246585  -1.175  -1.425  -4.829  0.7738  0.0506 -1.1646
 7464TIP3   OH246586   0.561  -3.042  -4.487 -0.1544  0.0098  0.3409
 7464TIP3    H146587   0.636  -3.024  -4.542 -0.8554 -1.0585 -1.0284
 7464TIP3    H246588   0.599  -3.081  -4.407  0.7141 -3.1951 -1.4399
 7465TIP3   OH246589  -0.751   1.943  -3.214 -0.0661  0.2090 -0.0282
 7465TIP3    H146590  -0.685   1.905  -3.272  0.1546 -0.7273  0.8127
 7465TIP3    H246591  -0.835   1.916  -3.251 -0.0123  1.4178 -1.1127
 7466TIP3   OH246592  -1.374  -1.189  -3.009  0.0125  0.2749  0.2191
 7466TIP3    H146593  -1.360  -1.173  -3.103 -0.5773  2.0201  0.3813
 7466TIP3    H246594  -1.306  -1.137  -2.966 -1.8852  2.4919  0.7965
 7467TIP3   OH246595  -0.307   2.638  -3.895 -0.2853 -0.0515  0.0958
 7467TIP3    H146596  -0.276   2.658  -3.807 -1.1414 -0.3176  0.4670
 7467TIP3    H246597  -0.309   2.542  -3.899 -0.4066 -0.0404 -0.1537
 7468TIP3   OH246598  -1.402  -2.622  -2.245 -0.0757  0.7424 -0.2233
 7468TIP3    H146599  -1.342  -2.574  -2.302  0.2215  0.7184  0.0642
 7468TIP3    H246600  -1.415  -2.565  -2.170  1.2670 -0.1143  0.7171
 7469TIP3   OH246601  -0.328   0.665  -3.440  0.3973  0.2129  0.2736
 7469TIP3    H146602  -0.274   0.587  -3.429  2.3050  1.6195  1.6124
 7469TIP3    H246603  -0.302   0.701  -3.524 -1.1690 -1.0380 -0.7911
 7470TIP3   OH246604   0.445   3.122  -2.849  0.1718 -0.5829 -0.0143
 7470TIP3    H146605   0.464   3.119  -2.756 -0.0708 -1.0663  0.0196
 7470TIP3    H246606   0.498   3.053  -2.888 -0.4838 -1.0469 -0.0982
 7471TIP3   OH246607  -2.220  -2.435  -2.980  0.2279 -0.4267 -0.6348
 7471TIP3    H146608  -2.162  -2.387  -3.040  0.6284 -1.0135 -0.7250
 7471TIP3    H246609  -2.161  -2.473  -2.915 -0.2302  0.4448  0.3181
 7472TIP3   OH246610  -0.610   0.501  -4.746 -0.2238 -0.0881  0.3436
 7472TIP3    H146611  -0.605   0.432  -4.680 -2.0743 -0.2581  0.3505
 7472TIP3    H246612  -0.553   0.470  -4.817 -1.7772 -2.1770 -0.1020
 7473TIP3   OH246613  -0.317   2.036  -5.198 -0.0560 -0.6690 -0.7615
 7473TIP3    H146614  -0.319   2.105  -5.264 -0.4247 -0.2945 -0.3706
 7473TIP3    H246615  -0.400   2.046  -5.150  0.9966  0.2842  0.9888
 7474TIP3   OH246616   2.258  -2.518  -5.022  0.2289  0.5808 -0.2714
 7474TIP3    H146617   2.194  -2.589  -5.030  0.8319  0.1680 -2.1074
 7474TIP3    H246618   2.264  -2.501  -4.928 -2.1669  0.2926  0.0152
 7475TIP3   OH246619  -0.446   3.191  -4.935 -0.3273 -0.0986 -0.6591
 7475TIP3    H146620  -0.475   3.107  -4.969 -0.0168 -0.4718 -0.0157
 7475TIP3    H246621  -0.513   3.217  -4.872 -0.4731  0.1883 -0.9278
 7476TIP3   OH246622   1.728  -2.126  -2.435 -0.2377  0.0323 -0.2594
 7476TIP3    H146623   1.664  -2.186  -2.394  2.3892 -1.4089  2.1456
 7476TIP3    H246624   1.730  -2.051  -2.377  1.0869 -0.5023  0.4258
 7477TIP3   OH246625  -1.254  -0.362  -4.101  0.9219 -0.3883 -0.1237
 7477TIP3    H146626  -1.190  -0.386  -4.033 -0.0086 -1.5598  0.3681
 7477TIP3    H246627  -1.277  -0.445  -4.143 -0.8726 -0.1170  0.2430
 7478TIP3   OH246628   2.881   1.603  -3.286 -0.6586 -0.4728 -0.4951
 7478TIP3    H146629   2.834   1.520  -3.297  0.4137 -1.1759  0.0976
 7478TIP3    H246630   2.936   1.610  -3.364 -0.7552 -0.3098 -0.5482
 7479TIP3   OH246631   2.692  -2.064   3.628 -0.1894 -0.7963 -0.0652
 7479TIP3    H146632   2.758  -2.119   3.586  0.9166  0.3759  0.0571
 7479TIP3    H246633   2.609  -2.091   3.589  0.6161 -0.8307 -1.8128
 7480TIP3   OH246634   0.332   3.047  -4.994  0.4341 -0.2677  0.3766
 7480TIP3    H146635   0.239   3.051  -4.971  0.8218 -0.6354  2.1889
 7480TIP3    H246636   0.353   2.954  -4.992  1.1123 -0.1114  1.2908
 7481TIP3   OH246637   2.489   3.365  -5.660  0.4398  0.1774 -0.2765
 7481TIP3    H146638   2.503   3.274  -5.635  1.1307  0.2949 -0.2143
 7481TIP3    H246639   2.577   3.398  -5.682  0.2325  0.8878 -0.0739
 7482TIP3   OH246640   0.454   1.760  -4.534  0.1935 -0.0109 -0.1181
 7482TIP3    H146641   0.407   1.806  -4.465 -1.0205  0.6857 -1.3567
 7482TIP3    H246642   0.465   1.671  -4.501  0.5392  0.5464  1.3607
 7483TIP3   OH246643   1.596   0.584  -4.256  0.6337  0.0932  0.2486
 7483TIP3    H146644   1.540   0.637  -4.313  0.3068 -0.7766 -0.2653
 7483TIP3    H246645   1.579   0.494  -4.284 -1.4863 -0.6571  3.3886
 7484TIP3   OH246646   3.191   0.649  -3.387  0.1841  0.4506  0.1224
 7484TIP3    H146647   3.138   0.712  -3.436 -1.4658 -0.1699  1.0073
 7484TIP3    H246648   3.162   0.563  -3.420 -1.4136 -0.0092  2.4914
 7485TIP3   OH246649  -1.855  -1.386  -2.733  0.1993  0.0460 -0.4000
 7485TIP3    H146650  -1.884  -1.361  -2.645  1.7788  1.6554 -0.2968
 7485TIP3    H246651  -1.765  -1.354  -2.739  0.2424 -0.3435 -2.4960
 7486TIP3   OH246652   3.032   3.207  -2.653 -0.0489 -0.1130  0.4758
 7486TIP3    H146653   3.096   3.208  -2.724 -1.5958  0.5679 -0.9717
 7486TIP3    H246654   3.016   3.299  -2.633 -1.3219 -0.2309  0.0952
 7487TIP3   OH246655  -3.197   1.779  -5.518 -0.1246  0.0030 -0.4585
 7487TIP3    H146656  -3.227   1.696  -5.482  0.9511 -0.1502  0.1329
 7487TIP3    H246657  -3.145   1.755  -5.594  0.8172  0.0723  0.1506
 7488TIP3   OH246658  -1.543   0.493  -4.201 -0.0151 -0.1012  0.1259
 7488TIP3    H146659  -1.565   0.411  -4.157  1.1898  0.5809  2.1146
 7488TIP3    H246660  -1.619   0.549  -4.186 -0.7334 -0.7103 -1.0242
 7489TIP3   OH246661  -0.112   3.035  -2.513  0.1255 -0.4852 -0.2024
 7489TIP3    H146662  -0.119   2.949  -2.553 -0.1800 -0.9658  0.8650
 7489TIP3    H246663  -0.047   3.024  -2.444 -1.0401 -0.2692  0.9633
 7490TIP3   OH246664   2.028   1.704  -5.121 -0.1324 -0.0278 -0.3258
 7490TIP3    H146665   2.053   1.784  -5.074 -0.2775 -0.8384  1.2183
 7490TIP3    H246666   1.934   1.715  -5.138  0.3437  1.2046 -2.4046
 7491TIP3   OH246667  -1.802   2.811  -3.913  0.1038  0.4904  0.6329
 7491TIP3    H146668  -1.752   2.747  -3.964 -0.0825 -0.1024  1.1834
 7491TIP3    H246669  -1.828   2.764  -3.834 -0.5075  1.0844  0.7941
 7492TIP3   OH246670  -1.001   0.854  -4.377  0.5402  0.1088  0.3173
 7492TIP3    H146671  -0.954   0.817  -4.303 -0.4306 -1.0464  0.3862
 7492TIP3    H246672  -0.941   0.845  -4.451  1.3883  0.9701  0.8771
 7493TIP3   OH246673  -0.716  -2.685  -4.046 -0.4245  0.0266  0.1642
 7493TIP3    H146674  -0.740  -2.606  -4.093 -2.0072  0.0568  0.9824
 7493TIP3    H246675  -0.620  -2.680  -4.039 -0.0294 -0.1050 -3.1982
 7494TIP3   OH246676   2.178  -1.847  -2.501  0.1875  0.2156 -0.0135
 7494TIP3    H146677   2.267  -1.845  -2.466  0.4886  0.3818 -0.7567
 7494TIP3    H246678   2.152  -1.755  -2.506  0.2380  0.2114 -0.4281
 7495TIP3   OH246679   1.094   2.762  -3.472 -0.2591 -0.3888 -0.0237
 7495TIP3    H146680   1.024   2.816  -3.435 -0.8827 -1.2928  0.1593
 7495TIP3    H246681   1.167   2.823  -3.485 -1.1999  0.6518 -0.5800
 7496TIP3   OH246682  -2.301   0.751  -3.385 -0.0962 -0.1745 -0.0575
 7496TIP3    H146683  -2.389   0.741  -3.348  0.3363 -0.0543  1.0356
 7496TIP3    H246684  -2.310   0.721  -3.475 -0.9959 -1.2784  0.3742
 7497TIP3   OH246685  -1.814   0.638  -2.406 -0.1348  0.2354 -0.3247
 7497TIP3    H146686  -1.783   0.606  -2.491 -2.0490 -0.8440 -0.6793
 7497TIP3    H246687  -1.836   0.730  -2.421  0.0156  0.1879 -0.8594
 7498TIP3   OH246688  -0.599   1.777  -3.398  0.0293 -0.8067 -0.0652
 7498TIP3    H146689  -0.530   1.749  -3.459  1.4258  0.9749  0.5942
 7498TIP3    H246690  -0.646   1.697  -3.377  2.1560 -2.1983 -0.2623
 7499TIP3   OH246691   2.093  -2.539  -2.362 -0.2192  0.4678  0.0274
 7499TIP3    H146692   2.052  -2.461  -2.325 -2.4274 -1.3052  1.6083
 7499TIP3    H246693   2.051  -2.550  -2.447 -0.1248  0.8277 -0.0663
 7500TIP3   OH246694   0.732  -1.279  -2.991  0.5530 -0.4533 -0.0061
 7500TIP3    H146695   0.726  -1.352  -2.929 -0.7495 -0.0567  0.3756
 7500TIP3    H246696   0.738  -1.201  -2.935  0.0940 -0.1415 -0.3816
 7501TIP3   OH246697   2.514  -2.405  -3.183  0.5762  0.1053  0.1589
 7501TIP3    H146698   2.543  -2.496  -3.193  1.4878  0.3656  0.3538
 7501TIP3    H246699   2.522  -2.368  -3.270  1.2717  0.2972  0.2989
 7502TIP3   OH246700  -3.208   2.030  -3.179 -0.2230  0.0071 -0.0756
 7502TIP3    H146701  -3.201   2.037  -3.274  1.7810 -2.1827 -0.1771
 7502TIP3    H246702  -3.244   2.115  -3.151  1.2183  1.5519 -2.5716
 7503TIP3   OH246703   0.036  -0.795  -4.545  0.2369  0.0577  0.3223
 7503TIP3    H146704   0.112  -0.802  -4.488  1.1596 -0.7955 -0.9694
 7503TIP3    H246705   0.022  -0.884  -4.577 -0.4382  0.4665 -0.5563
 7504TIP3   OH246706  -0.759  -1.885  -3.148 -0.6494 -0.1973  0.2886
 7504TIP3    H146707  -0.804  -1.893  -3.232  0.9184 -3.2755 -0.3994
 7504TIP3    H246708  -0.676  -1.843  -3.170  0.2899 -2.1019 -0.0241
 7505TIP3   OH246709   1.398  -3.116  -3.667  0.2301  0.0152 -0.4292
 7505TIP3    H146710   1.424  -3.041  -3.720  1.3691  1.7312  2.3000
 7505TIP3    H246711   1.326  -3.156  -3.715 -0.0516  2.5281 -2.3089
 7506TIP3   OH246712  -1.022  -0.963  -3.324 -0.1660 -0.4546 -0.3066
 7506TIP3    H146713  -1.055  -1.014  -3.398 -1.5691 -1.3470  0.8803
 7506TIP3    H246714  -1.081  -0.984  -3.252  1.0550  0.5172  1.0406
 7507TIP3   OH246715  -1.839  -1.527  -5.014 -0.1714 -0.5155 -0.5484
 7507TIP3    H146716  -1.748  -1.506  -5.035  0.1433 -1.4760 -0.1860
 7507TIP3    H246717  -1.872  -1.568  -5.094 -0.2949 -0.1700 -0.6785
 7508TIP3   OH246718  -3.135   2.831  -5.108 -0.0714 -0.0976 -0.2027
 7508TIP3    H146719  -3.040   2.833  -5.111  0.0952 -2.9420  0.4331
 7508TIP3    H246720  -3.163   2.842  -5.199  0.8772  0.2301 -0.4607
 7509TIP3   OH246721  -2.759  -1.268  -4.070  0.5267  0.0046  0.0209
 7509TIP3    H146722  -2.670  -1.265  -4.036  0.5690  0.1796 -0.1059
 7509TIP3    H246723  -2.796  -1.181  -4.049  0.5270  0.0837 -0.3092
 7510TIP3   OH246724   0.871  -0.064  -4.388 -0.0153 -0.8009  0.1399
 7510TIP3    H146725   0.848   0.026  -4.365 -1.8765 -1.0794 -0.4768
 7510TIP3    H246726   0.963  -0.073  -4.361 -0.5097  0.4849  2.5284
 7511TIP3   OH246727  -3.096  -1.571  -2.808 -0.0422 -0.2783  0.1277
 7511TIP3    H146728  -3.096  -1.515  -2.730 -1.3479 -0.4845  0.2904
 7511TIP3    H246729  -3.028  -1.533  -2.864  0.6570  0.1045  1.1891
 7512TIP3   OH246730   1.202  -2.290  -4.120 -0.3741  0.6085  0.3897
 7512TIP3    H146731   1.196  -2.300  -4.025  1.8839  2.2109  0.7769
 7512TIP3    H246732   1.236  -2.374  -4.151 -0.5111  0.2982  1.0662
 7513TIP3   OH246733  -2.764   2.114  -3.970 -0.4618  0.0503  0.1858
 7513TIP3    H146734  -2.817   2.044  -4.008  1.1919 -1.3809  0.4253
 7513TIP3    H246735  -2.700   2.135  -4.037 -1.4657  2.0200 -0.2335
 7514TIP3   OH246736  -3.075  -2.635  -5.668 -0.0265 -0.1134 -0.1703
 7514TIP3    H146737  -3.065  -2.637  -5.573  1.6289 -0.3177 -0.3188
 7514TIP3    H246738  -3.045  -2.721  -5.697 -2.4737 -0.8541 -0.7682
 7515TIP3   OH246739   2.423   2.839  -4.698  0.3730  0.5627 -0.2750
 7515TIP3    H146740   2.387   2.925  -4.675 -0.3629  0.5151 -1.1891
 7515TIP3    H246741   2.346   2.782  -4.704  0.8328 -0.1042  0.0686
 7516TIP3   OH246742   2.924  -0.738  -4.054 -0.4165 -0.0789 -0.7649
 7516TIP3    H146743   2.880  -0.762  -3.972  0.7279  2.2588  0.6556
 7516TIP3    H246744   2.855  -0.738  -4.119 -2.0393  0.9375  0.8514
 7517TIP3   OH246745  -2.364  -3.171  -5.562 -0.4682  0.7456 -0.2223
 7517TIP3    H146746  -2.272  -3.165  -5.538 -0.8135  1.8280  0.9931
 7517TIP3    H246747  -2.364  -3.191  -5.655  0.9813 -1.9883  0.2496
 7518TIP3   OH246748   1.394  -2.753  -1.985  0.3595 -0.0869 -0.4421
 7518TIP3    H146749   1.302  -2.729  -1.973  0.3466 -0.2770 -0.1685
 7518TIP3    H246750   1.411  -2.818  -1.918  0.9774  0.6802  0.1572
 7519TIP3   OH246751   2.252  -1.438  -4.726 -0.0623 -0.5499 -0.0404
 7519TIP3    H146752   2.259  -1.415  -4.633 -0.7472 -2.6872  0.6045
 7519TIP3    H246753   2.190  -1.511  -4.727 -3.3462  1.9609 -2.6478
 7520TIP3   OH246754   0.081  -1.560  -5.802 -0.5356  0.0656  0.1178
 7520TIP3    H146755   0.051  -1.637  -5.851  0.3776 -1.2254  1.4703
 7520TIP3    H246756   0.022  -1.556  -5.726  0.6504 -0.5418  1.0983
 7521TIP3   OH246757   0.220  -1.887  -4.702 -0.3943  0.0100 -0.1842
 7521TIP3    H146758   0.284  -1.876  -4.772 -1.4350  0.4027 -1.0883
 7521TIP3    H246759   0.273  -1.898  -4.623  0.8300  2.3807 -0.5787
 7522TIP3   OH246760  -2.254   1.986  -3.142  0.0617  0.0576  0.1663
 7522TIP3    H146761  -2.176   1.988  -3.087  1.2686 -0.2676 -1.4667
 7522TIP3    H246762  -2.264   1.893  -3.165  0.0629  0.2999 -0.8203
 7523TIP3   OH246763   2.836   2.470  -4.664 -0.0422 -0.0221  0.0546
 7523TIP3    H146764   2.892   2.546  -4.651  0.8281 -0.8954  1.9312
 7523TIP3    H246765   2.862   2.435  -4.749  0.1878  1.2462 -0.4138
 7524TIP3   OH246766   0.353  -2.367  -4.724 -0.1766  0.2504  0.0088
 7524TIP3    H146767   0.332  -2.382  -4.816  1.3842 -0.1427 -0.3253
 7524TIP3    H246768   0.396  -2.449  -4.697  1.2628  1.1220  0.4615
 7525TIP3   OH246769   2.542   1.720  -5.603 -0.4469 -0.4888 -0.1608
 7525TIP3    H146770   2.543   1.815  -5.602  0.3302 -0.4871  0.5994
 7525TIP3    H246771   2.473   1.696  -5.665  0.8130  0.5571 -2.0083
 7526TIP3   OH246772   0.675  -3.004  -3.467  0.1948  0.0093 -0.3886
 7526TIP3    H146773   0.613  -3.076  -3.453  0.0705 -0.2083 -1.9081
 7526TIP3    H246774   0.620  -2.926  -3.473  0.4263  0.5574  2.8550
 7527TIP3   OH246775  -0.059  -1.133  -4.325 -0.0955  0.5340 -1.1505
 7527TIP3    H146776  -0.053  -1.039  -4.304  0.2401 -0.1669  2.5982
 7527TIP3    H246777  -0.134  -1.164  -4.275  1.6450 -1.7276  0.2552
 7528TIP3   OH246778   3.087  -2.075  -3.470  0.2180  0.3237 -0.5632
 7528TIP3    H146779   3.012  -2.112  -3.423 -0.2619  0.7269 -1.0020
 7528TIP3    H246780   3.138  -2.031  -3.402  1.1657 -1.6641  0.1025
 7529TIP3   OH246781   3.292  -3.047  -2.648 -0.0752  0.4106  0.7055
 7529TIP3    H146782   3.301  -3.014  -2.559  1.3483  0.7764  0.4435
 7529TIP3    H246783   3.373  -3.022  -2.692 -0.7998  0.3373 -0.7368
 7530TIP3   OH246784  -2.029  -2.661  -3.130  0.2600 -0.6950 -0.7673
 7530TIP3    H146785  -1.963  -2.603  -3.168  0.1360 -0.7862 -1.1201
 7530TIP3    H246786  -2.102  -2.603  -3.108  0.3512 -0.6349 -0.6243
 7531TIP3   OH246787  -2.850   2.912  -2.876 -0.0865  0.6553 -0.0213
 7531TIP3    H146788  -2.772   2.882  -2.831 -0.2198  1.1265  0.5457
 7531TIP3    H246789  -2.825   2.919  -2.968 -0.4305 -2.4294 -0.4309
 7532TIP3   OH246790  -1.783   0.662  -5.094 -0.6268  0.2426  0.0880
 7532TIP3    H146791  -1.778   0.652  -4.999  1.0766  3.0993  0.4202
 7532TIP3    H246792  -1.822   0.748  -5.107 -1.4376 -0.3638 -1.8567
 7533TIP3   OH246793   2.343  -2.059  -5.123  0.0143  0.6460 -0.4071
 7533TIP3    H146794   2.351  -2.040  -5.216  0.8276  1.6347 -0.1566
 7533TIP3    H246795   2.432  -2.080  -5.095 -0.5116 -1.4511 -0.2024
 7534TIP3   OH246796  -0.337  -0.632  -5.645 -0.0593 -0.4643  0.2175
 7534TIP3    H146797  -0.266  -0.627  -5.709  1.6312  3.1392  2.0589
 7534TIP3    H246798  -0.294  -0.629  -5.560 -2.3588  0.4544  1.4600
 7535TIP3   OH246799  -2.036  -0.759  -5.277  0.0839  0.1344 -0.0509
 7535TIP3    H146800  -1.989  -0.768  -5.360  0.3915 -1.0263  0.2343
 7535TIP3    H246801  -1.971  -0.727  -5.215  0.1114 -0.0146 -0.0044
 7536TIP3   OH246802  -3.034  -2.116  -2.410 -0.4146 -0.0376  0.3075
 7536TIP3    H146803  -2.949  -2.137  -2.371  0.3946  1.2131 -0.6882
 7536TIP3    H246804  -3.023  -2.139  -2.503 -1.2137  0.0270  0.1930
 7537TIP3   OH246805  -0.497  -1.436  -5.195  0.0895  0.2190 -0.4806
 7537TIP3    H146806  -0.456  -1.420  -5.109  1.2072  0.3456 -1.0237
 7537TIP3    H246807  -0.587  -1.460  -5.174  0.1336  0.9828  0.6988
 7538TIP3   OH246808  -1.166   2.883  -4.769  0.3295  0.2601  0.1973
 7538TIP3    H146809  -1.160   2.917  -4.679 -2.1064  0.4650  0.3533
 7538TIP3    H246810  -1.107   2.808  -4.770  0.0765 -0.0226  2.1264
 7539TIP3   OH246811   1.342   2.459  -4.807  0.4535  0.2944 -0.5134
 7539TIP3    H146812   1.250   2.476  -4.787  0.6376 -0.7421  1.5195
 7539TIP3    H246813   1.382   2.546  -4.810 -0.1571  0.6891  1.1550
 7540TIP3   OH246814   1.156  -0.736  -4.798 -1.1738  0.0559 -0.4395
 7540TIP3    H146815   1.100  -0.734  -4.876 -1.7519 -1.7768 -0.1341
 7540TIP3    H246816   1.103  -0.694  -4.730 -1.5376 -0.2216 -0.5445
 7541TIP3   OH246817  -2.389   2.230  -3.160  0.2400  0.3149 -0.6965
 7541TIP3    H146818  -2.323   2.279  -3.209 -0.3948 -0.7580 -2.7364
 7541TIP3    H246819  -2.367   2.138  -3.175 -0.1673 -0.0569  0.8138
 7542TIP3   OH246820  -0.302  -1.581  -4.969 -0.3197 -0.1091  0.0819
 7542TIP3    H146821  -0.339  -1.629  -4.895 -0.3593 -0.5987 -0.2554
 7542TIP3    H246822  -0.335  -1.492  -4.958  3.4295  1.1773  3.3854
 7543TIP3   OH246823  -2.271   1.838  -4.708  0.4287 -0.0466  0.4916
 7543TIP3    H146824  -2.267   1.922  -4.662 -0.7287  0.7111 -0.7225
 7543TIP3    H246825  -2.251   1.773  -4.640  0.5179  1.1427  1.6522
 7544TIP3   OH246826   0.241   2.523  -4.217 -0.3146  0.7229  0.1361
 7544TIP3    H146827   0.166   2.552  -4.165 -1.6878 -2.3243  0.0970
 7544TIP3    H246828   0.227   2.563  -4.303 -1.7092  0.5463  0.2485
 7545TIP3   OH246829  -2.314   0.646  -3.085  0.4519 -0.1495  0.6031
 7545TIP3    H146830  -2.257   0.622  -3.157  0.2422 -1.4627  0.8475
 7545TIP3    H246831  -2.348   0.563  -3.053 -1.5829  0.5703  0.4760
 7546TIP3   OH246832   3.154   0.766  -5.699 -0.3376  0.7110  0.0711
 7546TIP3    H146833   3.092   0.725  -5.760  1.2845  0.4438 -1.4752
 7546TIP3    H246834   3.211   0.694  -5.670  0.9892  1.3901 -0.7472
 7547TIP3   OH246835   1.873  -3.070  -5.721 -0.0411 -0.3385 -0.1537
 7547TIP3    H146836   1.881  -3.117  -5.804  0.6053 -1.8445  0.7217
 7547TIP3    H246837   1.961  -3.073  -5.683  0.0955  1.8641 -0.1655
 7548TIP3   OH246838  -2.710  -0.791  -3.823  0.0158  0.5666  0.0345
 7548TIP3    H146839  -2.652  -0.759  -3.893  1.4385  0.0829  0.9557
 7548TIP3    H246840  -2.782  -0.728  -3.822 -0.1556  0.4674 -1.9955
 7549TIP3   OH246841  -1.726  -1.638  -2.976 -0.6493  0.2921 -0.0742
 7549TIP3    H146842  -1.667  -1.685  -3.035 -0.0877 -0.7505  1.2494
 7549TIP3    H246843  -1.780  -1.707  -2.937 -1.9116  1.1052 -0.3461
 7550TIP3   OH246844   3.108   3.110  -2.027  0.4240  0.4091  0.3755
 7550TIP3    H146845   3.101   3.188  -1.972  0.5959  1.2013 -0.6967
 7550TIP3    H246846   3.192   3.121  -2.073 -0.5783  0.7578 -1.4831
 7551TIP3   OH246847  -1.651   1.239  -3.825 -0.7055 -0.2197 -0.0645
 7551TIP3    H146848  -1.723   1.294  -3.857 -1.9417 -0.1612  2.5556
 7551TIP3    H246849  -1.683   1.150  -3.833 -0.6581 -0.2571  0.1657
 7552TIP3   OH246850   0.475   1.258  -4.418  0.4151 -0.0869 -0.2070
 7552TIP3    H146851   0.433   1.172  -4.413 -0.3503  0.2843 -0.1681
 7552TIP3    H246852   0.415   1.312  -4.470 -0.8021  1.3618  2.4431
 7553TIP3   OH246853   1.480   1.598  -2.778  0.1176 -0.0129  0.7435
 7553TIP3    H146854   1.428   1.554  -2.711  0.7436  0.9061  1.8541
 7553TIP3    H246855   1.551   1.537  -2.797  0.4995  0.1285  1.6570
 7554TIP3   OH246856  -1.630   1.770  -4.345 -0.1082 -0.0016  0.0114
 7554TIP3    H146857  -1.576   1.713  -4.400 -1.0516 -0.1368 -0.8080
 7554TIP3    H246858  -1.660   1.714  -4.274  0.5693 -0.0044  0.3004
 7555TIP3   OH246859   1.919  -3.326  -2.187 -0.5045  0.0626 -0.2474
 7555TIP3    H146860   1.924  -3.231  -2.199 -2.6903  0.1794 -0.7963
 7555TIP3    H246861   1.829  -3.348  -2.213  0.0049 -2.1864 -0.2989
 7556TIP3   OH246862   3.232   1.610  -5.025  0.0813 -0.5139 -0.4802
 7556TIP3    H146863   3.191   1.655  -4.951 -0.9197  0.2892 -1.4834
 7556TIP3    H246864   3.165   1.548  -5.055  0.9667 -1.7871  0.0720
 7557TIP3   OH246865  -1.123  -0.034  -4.727 -0.7627 -0.0407  0.3112
 7557TIP3    H146866  -1.078  -0.058  -4.808 -0.7052 -1.2242  0.6827
 7557TIP3    H246867  -1.102  -0.103  -4.666 -2.1092 -0.0041  0.8624
 7558TIP3   OH246868   1.072  -2.815  -2.515 -0.2061  0.1147 -0.0609
 7558TIP3    H146869   1.064  -2.869  -2.437 -0.0134  0.4349  0.1858
 7558TIP3    H246870   1.153  -2.767  -2.503  0.2456 -0.4306 -0.8456
 7559TIP3   OH246871   2.343   1.620  -5.739  0.1011  0.3795  0.1424
 7559TIP3    H146872   2.259   1.614  -5.695  0.2994 -0.7836  0.3965
 7559TIP3    H246873   2.368   1.529  -5.756  0.8541  0.7377 -0.7982
 7560TIP3   OH246874   3.285   1.006  -5.604 -0.6256 -0.5468 -0.1249
 7560TIP3    H146875   3.229   0.938  -5.642  1.0836 -0.9492 -2.0628
 7560TIP3    H246876   3.374   0.977  -5.623  0.2028  1.1495  0.9825
 7561TIP3   OH246877  -1.731   1.998  -4.239 -1.2579 -0.0400  0.0005
 7561TIP3    H146878  -1.788   1.970  -4.167 -1.4769 -0.2928 -0.2660
 7561TIP3    H246879  -1.721   1.919  -4.292 -0.9404  0.0968 -0.1399
 7562TIP3   OH246880  -0.782   3.355  -4.175 -0.5771  1.0498  0.1005
 7562TIP3    H146881  -0.820   3.399  -4.251 -0.8887  1.1056  0.2897
 7562TIP3    H246882  -0.840   3.281  -4.159  1.7533 -1.5597 -2.3442
 7563TIP3   OH246883   1.421  -0.803  -4.743  0.0148  0.0138  0.0173
 7563TIP3    H146884   1.483  -0.760  -4.802  1.4105 -1.1937  0.5375
 7563TIP3    H246885   1.335  -0.775  -4.774  0.7941  1.9667 -0.5617
 7564TIP3   OH246886  -1.472  -3.039  -5.225  0.3209 -0.5583 -0.0354
 7564TIP3    H146887  -1.405  -3.104  -5.208  0.6630 -0.6455 -1.5871
 7564TIP3    H246888  -1.494  -3.003  -5.139  1.7362 -1.1319  0.5794
 7565TIP3   OH246889  -0.719  -3.320  -3.252 -0.7342  0.1588  0.1339
 7565TIP3    H146890  -0.747  -3.364  -3.172  0.2348 -1.7252 -0.4918
 7565TIP3    H246891  -0.680  -3.390  -3.304  1.0854  1.8364 -0.8530
 7566TIP3   OH246892  -0.186  -3.206  -5.681 -0.1225 -0.1207 -0.4293
 7566TIP3    H146893  -0.129  -3.151  -5.628  0.2166 -0.4504 -0.4512
 7566TIP3    H246894  -0.126  -3.261  -5.732 -0.3532  1.5628 -2.6754
 7567TIP3   OH246895  -0.588  -3.332  -2.790 -0.0701 -0.4293  0.6481
 7567TIP3    H146896  -0.550  -3.339  -2.877  1.3227 -1.7509  1.3124
 7567TIP3    H246897  -0.662  -3.393  -2.791  0.5219 -1.1557  0.6691
 7568TIP3   OH246898   2.978  -3.003  -2.777  0.2614 -0.2652 -0.1755
 7568TIP3    H146899   3.019  -2.967  -2.699  0.6430 -1.7591  0.3514
 7568TIP3    H246900   3.022  -2.960  -2.850  0.1056  0.9316  0.4230
 7569TIP3   OH246901  -0.372  -1.654  -3.467 -0.0853  0.4573  0.0827
 7569TIP3    H146902  -0.344  -1.597  -3.539 -0.0793  0.6052  0.2040
 7569TIP3    H246903  -0.290  -1.682  -3.427 -0.1226  1.3061  0.7651
 7570TIP3   OH246904   2.640  -0.287  -4.003  0.3990  0.9196  0.2392
 7570TIP3    H146905   2.687  -0.290  -3.919  1.7570  2.0322 -0.4339
 7570TIP3    H246906   2.700  -0.326  -4.066  0.4962  2.4273 -0.6571
 7571TIP3   OH246907  -1.579   2.589  -4.538 -0.0742 -0.1865  0.6601
 7571TIP3    H146908  -1.616   2.501  -4.548 -2.0095  0.3145  2.7727
 7571TIP3    H246909  -1.500   2.576  -4.486  0.3890 -0.7755 -0.1555
 7572TIP3   OH246910  -2.902  -0.189  -5.999  0.0385 -0.2255 -0.1029
 7572TIP3    H146911  -2.816  -0.196  -6.039  0.1633 -1.0888  0.3013
 7572TIP3    H246912  -2.934  -0.279  -5.993 -0.2973 -0.0544  1.0152
 7573TIP3   OH246913  -2.274   2.943  -2.649  0.0830 -0.1995  0.3659
 7573TIP3    H146914  -2.310   3.030  -2.665 -0.5550 -0.3208  1.0620
 7573TIP3    H246915  -2.337   2.884  -2.689  1.0276 -0.3215 -0.9965
 7574TIP3   OH246916   2.128  -2.209  -4.988 -0.3379 -0.2510 -0.2169
 7574TIP3    H146917   2.193  -2.250  -4.932  0.7724  1.4053 -0.2104
 7574TIP3    H246918   2.170  -2.128  -5.017 -2.3751  0.8407 -0.2785
 7575TIP3   OH246919  -2.362   2.614  -2.928  0.3141  0.2335 -0.1948
 7575TIP3    H146920  -2.381   2.521  -2.941 -2.5180  0.6194  0.4734
 7575TIP3    H246921  -2.274   2.616  -2.890 -0.3865 -2.3405  1.8191
 7576TIP3   OH246922  -3.039   0.639  -2.904  0.1873  0.2433 -0.1585
 7576TIP3    H146923  -3.055   0.578  -2.975  1.8643  0.8477 -1.1011
 7576TIP3    H246924  -3.122   0.641  -2.855 -1.6198  1.0595 -3.0361
 7577TIP3   OH246925  -3.211   1.426  -4.226 -0.3872  0.3199 -0.7050
 7577TIP3    H146926  -3.145   1.358  -4.238 -1.2469 -1.4089  2.9114
 7577TIP3    H246927  -3.163   1.499  -4.185 -0.2817 -0.0585 -0.1381
 7578TIP3   OH246928   1.082  -2.809  -5.088  0.1358  0.5083 -0.6305
 7578TIP3    H146929   1.115  -2.893  -5.054 -0.1950  0.4590 -0.4296
 7578TIP3    H246930   1.133  -2.795  -5.167  0.0043 -0.0194 -0.8149
 7579TIP3   OH246931  -3.270   2.207  -5.351 -0.0317  0.2281  0.3710
 7579TIP3    H146932  -3.247   2.294  -5.319 -0.2080  0.7098 -0.7559
 7579TIP3    H246933  -3.355   2.219  -5.394  0.7594 -0.0919 -1.3966
 7580TIP3   OH246934  -1.744   3.047  -4.738  0.1683  0.0450  0.1639
 7580TIP3    H146935  -1.700   2.965  -4.716  1.9596  1.1023  0.7882
 7580TIP3    H246936  -1.808   3.060  -4.668  0.7233 -0.2391  0.7316
 7581TIP3   OH246937  -1.878  -0.406  -3.881 -0.1623  0.6801  0.7018
 7581TIP3    H146938  -1.938  -0.422  -3.809 -0.8145  0.9180  0.2161
 7581TIP3    H246939  -1.899  -0.318  -3.912  0.5843  0.8598  0.6671
 7582TIP3   OH246940   1.957  -2.711  -4.465  0.0150  0.4272 -0.2113
 7582TIP3    H146941   1.927  -2.776  -4.529 -0.1809  0.6323 -0.3272
 7582TIP3    H246942   1.924  -2.628  -4.498 -2.7299  0.2313  1.6658
 7583TIP3   OH246943   2.862  -1.432  -4.190  0.2751  0.2427  0.0521
 7583TIP3    H146944   2.773  -1.410  -4.216  0.5123  0.4242 -0.6465
 7583TIP3    H246945   2.879  -1.516  -4.231  0.0278 -0.3554  1.1557
 7584TIP3   OH246946   1.557  -2.669  -5.503 -0.2552 -0.2600 -0.4157
 7584TIP3    H146947   1.600  -2.610  -5.564 -0.7047 -1.0353 -1.5289
 7584TIP3    H246948   1.626  -2.698  -5.444  0.0243  1.1349 -0.0227
 7585TIP3   OH246949   0.505   0.920  -4.674  0.1611 -0.3239 -0.3014
 7585TIP3    H146950   0.503   0.838  -4.724  0.5643 -0.7670  0.3882
 7585TIP3    H246951   0.596   0.949  -4.679 -0.3307  1.0371 -2.0240
 7586TIP3   OH246952  -1.461   2.537  -2.910 -0.0729  0.6055 -0.2045
 7586TIP3    H146953  -1.390   2.501  -2.857 -1.1442  0.1207  0.9477
 7586TIP3    H246954  -1.515   2.586  -2.848 -0.2907  1.6967 -1.2145
 7587TIP3   OH246955  -1.961  -0.357  -4.903  0.0180  0.1202 -0.4957
 7587TIP3    H146956  -1.878  -0.343  -4.857  0.4935 -0.1008 -1.2752
 7587TIP3    H246957  -1.968  -0.285  -4.965 -0.2923  0.0367 -0.5640
 7588TIP3   OH246958   2.374   3.189  -5.881 -0.5850  0.9092  0.1214
 7588TIP3    H146959   2.282   3.216  -5.888 -0.4930  1.2057  0.0593
 7588TIP3    H246960   2.415   3.258  -5.829 -0.8127 -0.1835  1.8582
 7589TIP3   OH246961  -1.615  -2.081  -3.870  0.0213  0.5388 -0.7610
 7589TIP3    H146962  -1.548  -2.130  -3.918 -2.4753 -1.5471 -2.4293
 7589TIP3    H246963  -1.651  -2.019  -3.934  0.7459  2.1336  0.3115
 7590TIP3   OH246964   1.026   3.029  -3.794 -0.4425  0.4705  0.0980
 7590TIP3    H146965   1.090   3.081  -3.744 -1.4631  0.4970  1.4217
 7590TIP3    H246966   1.043   3.053  -3.885 -0.0799  2.2277  0.5842
 7591TIP3   OH246967  -0.040  -1.329  -5.034  0.5159  0.4543  0.2765
 7591TIP3    H146968   0.053  -1.346  -5.016  0.0808 -0.1534  2.1627
 7591TIP3    H246969  -0.069  -1.274  -4.962 -0.8516 -0.2952  0.3410
 7592TIP3   OH246970   2.583  -2.723  -3.580  0.3894  0.4011 -1.2115
 7592TIP3    H146971   2.544  -2.638  -3.602 -1.2292  0.2387  0.7413
 7592TIP3    H246972   2.535  -2.786  -3.633 -0.8644  0.3858 -0.1040
 7593TIP3   OH246973   1.431  -1.684  -5.201  0.1060 -0.3817 -0.1281
 7593TIP3    H146974   1.490  -1.710  -5.271  0.8665  0.2161  0.2748
 7593TIP3    H246975   1.425  -1.588  -5.208 -1.7350 -0.4955 -0.8670
 7594TIP3   OH246976   0.161  -0.127  -4.704 -0.0918  0.1061 -0.5084
 7594TIP3    H146977   0.165  -0.183  -4.782 -2.9744 -1.1604  0.0930
 7594TIP3    H246978   0.233  -0.158  -4.648  1.4494  0.4285 -2.2267
 7595TIP3   OH246979   2.063  -1.624  -4.731  0.3328  0.1336  0.0446
 7595TIP3    H146980   2.040  -1.628  -4.638  1.5131 -1.4065  0.3161
 7595TIP3    H246981   2.006  -1.690  -4.772  1.6605 -1.1419  0.1561
 7596TIP3   OH246982  -3.068  -0.330  -5.135  0.1775  0.2266 -0.1475
 7596TIP3    H146983  -3.097  -0.255  -5.082  0.3016  1.4182 -1.7101
 7596TIP3    H246984  -3.115  -0.404  -5.097 -0.3781  1.1645  1.1023
 7597TIP3   OH246985  -0.673  -2.125  -5.158 -0.3988  0.1299 -0.0137
 7597TIP3    H146986  -0.668  -2.204  -5.212 -1.4080  0.2879 -0.3450
 7597TIP3    H246987  -0.587  -2.083  -5.170 -0.5035  0.0324 -1.3114
 7598TIP3   OH246988   2.901   2.433  -4.975  0.1921  0.5157  0.4790
 7598TIP3    H146989   2.963   2.359  -4.979 -0.0076  0.3965 -1.1753
 7598TIP3    H246990   2.871   2.443  -5.066 -2.4086  0.4272  1.2657
 7599TIP3   OH246991  -2.051  -1.965  -5.703 -0.0980 -0.2468 -0.3403
 7599TIP3    H146992  -2.088  -2.016  -5.774 -1.7156 -1.3143  1.1735
 7599TIP3    H246993  -1.980  -2.019  -5.668  1.5719  0.8466 -1.8795
 7600TIP3   OH246994   2.786  -1.051  -2.696 -0.4728  0.8118  0.0859
 7600TIP3    H146995   2.738  -1.006  -2.766  0.7294  1.7589 -0.1620
 7600TIP3    H246996   2.790  -0.988  -2.625  1.7669  1.4180 -0.4896
 7601TIP3   OH246997  -1.556   1.492  -4.455 -0.0438  0.2353  0.2517
 7601TIP3    H146998  -1.497   1.455  -4.521  0.1089  0.8820  0.0104
 7601TIP3    H246999  -1.509   1.482  -4.372  0.0223 -0.0447  0.1802
 7602TIP3   OH247000   3.072   2.200  -5.141  0.2926 -0.3053  0.2442
 7602TIP3    H147001   3.093   2.130  -5.203  0.3400 -1.5400  1.5989
 7602TIP3    H247002   3.035   2.270  -5.195 -1.8040 -2.2070 -0.9530
 7603TIP3   OH247003  -1.424  -0.165  -3.795  0.2972 -0.4375 -0.7645
 7603TIP3    H147004  -1.490  -0.129  -3.735  0.4323  1.2902 -1.6122
 7603TIP3    H247005  -1.461  -0.249  -3.823 -0.4949 -0.5448  0.4877
 7604TIP3   OH247006  -3.148  -3.273  -2.923 -0.0672  0.1519  0.6957
 7604TIP3    H147007  -3.140  -3.319  -3.006  3.3926 -0.0922  1.0137
 7604TIP3    H247008  -3.234  -3.298  -2.889 -1.0323 -0.7569 -2.1648
 7605TIP3   OH247009   1.394   1.167  -3.205  0.0607  0.1201 -0.1456
 7605TIP3    H147010   1.341   1.245  -3.187  1.1573  0.8936 -0.1113
 7605TIP3    H247011   1.448   1.193  -3.280  0.3765 -0.6444 -0.1830
 7606TIP3   OH247012   2.647   1.021  -4.867  1.0329 -0.3468  0.1515
 7606TIP3    H147013   2.669   1.016  -4.774 -0.6348  0.9508  0.6658
 7606TIP3    H247014   2.700   1.093  -4.901  2.2730 -1.3660 -0.1258
 7607TIP3   OH247015   0.847  -1.123  -3.671  0.8341 -0.4184 -0.5576
 7607TIP3    H147016   0.762  -1.144  -3.632 -0.8912  1.1648 -3.1539
 7607TIP3    H247017   0.852  -1.180  -3.748  1.8716 -0.0986 -0.7365
 7608TIP3   OH247018   3.166   2.666  -2.817 -0.0878 -0.0343  0.5850
 7608TIP3    H147019   3.220   2.599  -2.858  0.8577  2.6806 -3.2685
 7608TIP3    H247020   3.229   2.724  -2.774 -0.5811 -0.0201  1.3009
 7609TIP3   OH247021   2.941  -1.433  -3.732 -0.3217 -0.6850  1.0988
 7609TIP3    H147022   2.922  -1.339  -3.735 -2.4089 -1.0850 -0.8707
 7609TIP3    H247023   2.992  -1.450  -3.811  0.6164 -1.1264  1.7821
 7610TIP3   OH247024   0.313  -2.267  -2.888 -0.7377 -1.0015 -0.2019
 7610TIP3    H147025   0.296  -2.360  -2.906 -3.3627 -0.9046  1.2916
 7610TIP3    H247026   0.341  -2.265  -2.797 -0.5019 -0.3473 -0.2896
 7611TIP3   OH247027  -0.623  -2.624  -3.180  0.2688  0.1933 -0.4838
 7611TIP3    H147028  -0.695  -2.617  -3.242  0.6806 -0.7733 -1.0869
 7611TIP3    H247029  -0.655  -2.682  -3.112  0.5654 -0.4794 -0.9049
 7612TIP3   OH247030   0.921   0.155  -5.470 -0.4356  0.1633 -0.3142
 7612TIP3    H147031   0.845   0.212  -5.468 -0.7806 -0.3039  0.3331
 7612TIP3    H247032   0.903   0.092  -5.540 -1.0316 -0.4529  0.3790
 7613TIP3   OH247033   0.492  -2.352  -5.041  0.0032 -0.2476 -0.3386
 7613TIP3    H147034   0.570  -2.334  -5.094  0.0976 -0.3945 -0.2512
 7613TIP3    H247035   0.453  -2.266  -5.027 -1.0078 -0.3753 -2.1362
 7614TIP3   OH247036   2.351  -1.288  -4.957 -0.1727  0.3904 -0.5754
 7614TIP3    H147037   2.314  -1.341  -4.887  1.8821  0.4196  0.6261
 7614TIP3    H247038   2.340  -1.198  -4.928  3.9424  0.4131  1.7683
 7615TIP3   OH247039  -2.009  -2.704  -3.802 -0.4909  0.3154  0.0693
 7615TIP3    H147040  -2.074  -2.661  -3.857  0.9849  2.0402 -0.4026
 7615TIP3    H247041  -2.019  -2.664  -3.716 -0.6623 -0.0909  0.2421
 7616TIP3   OH247042   2.199  -2.957  -4.751 -0.3128  0.6549 -0.1173
 7616TIP3    H147043   2.288  -2.991  -4.759 -0.8081 -0.8823  0.6893
 7616TIP3    H247044   2.211  -2.867  -4.721  0.9471 -0.2966  2.5458
 7617TIP3   OH247045   1.232   3.220  -2.715  0.0309 -0.2924 -0.0860
 7617TIP3    H147046   1.249   3.298  -2.768 -2.1565  2.1500  2.5153
 7617TIP3    H247047   1.303   3.219  -2.650 -0.5590  0.1942  0.5688
 7618TIP3   OH247048   1.687   3.228  -4.103  0.3503 -0.0195 -0.1382
 7618TIP3    H147049   1.644   3.255  -4.184 -0.3549  0.7216  0.4613
 7618TIP3    H247050   1.667   3.299  -4.041  1.4778 -0.2244  0.4827
 7619TIP3   OH247051  -2.688  -3.021  -3.982 -0.2835  0.1863 -0.1960
 7619TIP3    H147052  -2.648  -2.948  -4.029  1.2333  0.1338  0.9433
 7619TIP3    H247053  -2.753  -2.980  -3.926 -0.6785  0.4618 -0.8402
 7620TIP3   OH247054   2.807   0.426  -2.949 -0.2792 -0.1057 -0.2119
 7620TIP3    H147055   2.730   0.476  -2.921 -0.3183  0.6233 -1.5543
 7620TIP3    H247056   2.814   0.355  -2.885 -1.3424  0.5207  0.6350
 7621TIP3   OH247057   2.042  -3.302  -3.630  0.1437 -0.1552  0.0879
 7621TIP3    H147058   2.115  -3.241  -3.629 -0.5838  0.7467 -0.2611
 7621TIP3    H247059   1.996  -3.283  -3.711 -1.3127  0.3213  0.9790
 7622TIP3   OH247060  -3.015   3.098  -5.549  0.2040  0.1224 -0.0122
 7622TIP3    H147061  -2.953   3.062  -5.485 -0.8332 -0.9383  0.4149
 7622TIP3    H247062  -3.045   3.180  -5.510 -0.9730 -0.8686  1.2304
 7623TIP3   OH247063   0.115   1.935  -3.798  0.2853  0.5976  0.4353
 7623TIP3    H147064   0.199   1.978  -3.813  0.3067  0.9453  1.4338
 7623TIP3    H247065   0.052   1.986  -3.850  0.6175  0.6265  0.0607
 7624TIP3   OH247066  -1.191   3.195  -2.502  0.2521 -0.0804  0.2937
 7624TIP3    H147067  -1.110   3.212  -2.550  0.9685  0.4319  1.6333
 7624TIP3    H247068  -1.166   3.133  -2.433 -0.5480 -0.1299  0.5486
 7625TIP3   OH247069   1.084  -2.634  -3.594 -0.0930  0.5349  0.4271
 7625TIP3    H147070   1.023  -2.652  -3.523 -1.6824  3.3854 -0.0405
 7625TIP3    H247071   1.028  -2.620  -3.670  1.4374 -0.2771 -0.9143
 7626TIP3   OH247072   1.318   0.912  -3.148 -0.2479  0.4890 -0.0637
 7626TIP3    H147073   1.367   0.991  -3.171  0.8701 -0.1992 -0.0843
 7626TIP3    H247074   1.316   0.860  -3.228 -1.1023  0.5494 -0.0896
 7627TIP3   OH247075   1.551   0.460  -3.118  0.1224 -0.7927  0.3470
 7627TIP3    H147076   1.460   0.477  -3.142  0.7575 -0.5025 -2.1113
 7627TIP3    H247077   1.586   0.545  -3.095  0.3097 -0.5223 -0.8556
 7628TIP3   OH247078  -1.763   3.198  -5.091 -0.1346  0.3830 -0.3618
 7628TIP3    H147079  -1.828   3.263  -5.118 -1.3653 -1.7171 -2.9479
 7628TIP3    H247080  -1.688   3.213  -5.148 -0.1294  0.0266 -0.4528
 7629TIP3   OH247081   0.594  -1.264  -4.359 -0.0672  0.0610 -0.6316
 7629TIP3    H147082   0.619  -1.356  -4.355  2.3819  0.5681 -2.2941
 7629TIP3    H247083   0.664  -1.221  -4.408 -1.7278  2.6246 -1.0040
 7630TIP3   OH247084   0.349  -0.942  -5.337 -0.7293  0.1491  0.2383
 7630TIP3    H147085   0.277  -1.004  -5.348  1.0965 -2.4206  1.8501
 7630TIP3    H247086   0.411  -0.965  -5.406 -0.4858  0.9381  0.1869
 7631TIP3   OH247087   1.885  -3.114  -4.455  0.4452  0.0701  0.7218
 7631TIP3    H147088   1.951  -3.151  -4.397  0.3427  0.5913  1.1844
 7631TIP3    H247089   1.814  -3.178  -4.456  0.3650  0.1476  1.3273
 7632TIP3   OH247090  -0.018  -2.455  -4.272  0.4118 -1.0166 -0.4778
 7632TIP3    H147091  -0.061  -2.442  -4.356 -0.0685  1.8719  0.1173
 7632TIP3    H247092  -0.021  -2.369  -4.229  0.7420 -2.3317  2.4514
 7633TIP3   OH247093  -0.102  -0.699  -5.802 -0.3344 -0.1571  0.4665
 7633TIP3    H147094  -0.009  -0.683  -5.790 -0.4023  0.5014  0.1500
 7633TIP3    H247095  -0.108  -0.791  -5.825  0.1387 -0.4765  1.5527
 7634TIP3   OH247096  -1.491  -1.468  -4.415 -0.1244 -0.0375 -0.1506
 7634TIP3    H147097  -1.538  -1.449  -4.334 -0.1136 -0.1188 -0.1261
 7634TIP3    H247098  -1.559  -1.471  -4.482 -0.0837  0.5135 -0.2273
 7635TIP3   OH247099  -2.436  -2.601  -5.273 -0.3671  0.4251  0.1843
 7635TIP3    H147100  -2.507  -2.542  -5.250 -0.6357  0.0240  0.4007
 7635TIP3    H247101  -2.433  -2.600  -5.369 -1.0940 -0.0525  0.1519
 7636TIP3   OH247102  -2.274   2.255  -2.269 -0.5966  0.0752  0.7144
 7636TIP3    H147103  -2.307   2.312  -2.199 -2.3076  0.5106 -0.3866
 7636TIP3    H247104  -2.285   2.166  -2.235  1.1236  0.3256  2.0350
 7637TIP3   OH247105   2.334  -2.722  -5.432 -0.1182  0.6195 -0.2202
 7637TIP3    H147106   2.251  -2.686  -5.400 -0.6732  0.5517 -1.5348
 7637TIP3    H247107   2.375  -2.650  -5.480  1.3968  1.1804  1.7432
 7638TIP3   OH247108  -2.613  -0.666  -5.119 -0.3081 -0.0078 -0.1227
 7638TIP3    H147109  -2.547  -0.605  -5.085 -0.9085  0.5828  0.0082
 7638TIP3    H247110  -2.688  -0.610  -5.139 -1.2223 -0.8222  0.8987
 7639TIP3   OH247111   2.857   0.602  -4.600  0.0622 -0.5232  0.4234
 7639TIP3    H147112   2.915   0.592  -4.525 -0.7131 -0.4683  1.0466
 7639TIP3    H247113   2.801   0.524  -4.598  0.2460 -0.6878 -0.2952
 7640TIP3   OH247114  -2.990  -2.866  -3.624 -0.0190 -0.2858  0.2499
 7640TIP3    H147115  -2.963  -2.775  -3.633  1.4012 -0.8128 -1.1609
 7640TIP3    H247116  -3.083  -2.865  -3.650  0.8392  0.2655 -3.2630
 7641TIP3   OH247117   1.829  -0.771  -5.464  0.2691  0.4836  0.4020
 7641TIP3    H147118   1.896  -0.838  -5.482 -0.6818 -0.4503  0.2473
 7641TIP3    H247119   1.746  -0.819  -5.466 -0.4572  1.7199  0.0712
 7642TIP3   OH247120   0.503   0.523  -3.432  0.2041 -0.1566  0.1556
 7642TIP3    H147121   0.539   0.520  -3.521 -0.1662  0.2283 -0.0134
 7642TIP3    H247122   0.514   0.435  -3.399 -1.4494 -0.8444 -0.9989
 7643TIP3   OH247123   3.155  -1.602  -2.416  0.1697 -0.3094 -0.1538
 7643TIP3    H147124   3.211  -1.675  -2.390 -0.6733 -0.7526  0.4676
 7643TIP3    H247125   3.071  -1.643  -2.439  0.0747  0.3430 -1.0260
 7644TIP3   OH247126   1.473   1.118  -4.533 -0.9750 -0.1269  0.1530
 7644TIP3    H147127   1.414   1.138  -4.606  0.2186  1.4014 -0.4492
 7644TIP3    H247128   1.542   1.064  -4.571 -0.5857  0.3002  0.2479
 7645TIP3   OH247129  -3.100   2.197  -5.973 -0.8626  0.6725 -0.0205
 7645TIP3    H147130  -3.106   2.122  -6.031  0.3464  0.5537 -0.0344
 7645TIP3    H247131  -3.032   2.173  -5.910 -0.3255  1.8049 -0.1340
 7646TIP3   OH247132  -1.479  -3.313  -3.890 -0.1745  0.1818 -0.3040
 7646TIP3    H147133  -1.459  -3.221  -3.902 -0.3879  0.1425 -1.0061
 7646TIP3    H247134  -1.473  -3.351  -3.978  2.4551 -0.9899  0.2860
 7647TIP3   OH247135  -1.332   1.388  -5.519 -0.2693 -0.1125 -0.4993
 7647TIP3    H147136  -1.398   1.319  -5.512 -1.2239  0.8784  0.7782
 7647TIP3    H247137  -1.336   1.433  -5.435  0.3005  1.5111 -1.3107
 7648TIP3   OH247138  -1.570  -3.275  -5.355 -0.2091 -0.2293  0.1857
 7648TIP3    H147139  -1.480  -3.250  -5.335  0.1440 -0.8228 -0.6191
 7648TIP3    H247140  -1.618  -3.192  -5.356  0.4414  0.1517  0.0246
 7649TIP3   OH247141   1.436  -2.041  -3.485 -0.2007  0.1968 -0.0154
 7649TIP3    H147142   1.429  -2.109  -3.552  1.0478  2.4669 -2.6866
 7649TIP3    H247143   1.369  -1.977  -3.509  2.2525  2.5555 -1.1637
 7650TIP3   OH247144   1.881  -0.155  -3.503  0.3529  0.2533 -0.2820
 7650TIP3    H147145   1.933  -0.120  -3.575 -0.0367  0.1486 -0.6184
 7650TIP3    H247146   1.897  -0.095  -3.430 -0.1228  0.9965 -0.7841
 7651TIP3   OH247147  -2.391  -1.289  -5.495 -0.2360  0.1164  0.2375
 7651TIP3    H147148  -2.370  -1.242  -5.575  2.1900  0.1664  0.8308
 7651TIP3    H247149  -2.370  -1.228  -5.425 -0.1284 -0.7204  0.9551
 7652TIP3   OH247150   0.133  -1.708  -2.391 -0.3781 -0.1454 -0.0554
 7652TIP3    H147151   0.158  -1.617  -2.374  0.3849 -0.2850 -0.3607
 7652TIP3    H247152   0.205  -1.742  -2.445 -1.5314 -0.4019 -1.4863
 7653TIP3   OH247153  -3.112   1.169  -5.799 -0.4262 -0.1295  0.7181
 7653TIP3    H147154  -3.021   1.188  -5.820 -0.0970  0.4445  2.4985
 7653TIP3    H247155  -3.121   1.075  -5.811 -0.0735  0.0197 -1.0292
 7654TIP3   OH247156   0.706   1.752  -4.685  0.0489 -0.1563 -0.2216
 7654TIP3    H147157   0.767   1.798  -4.627 -0.1716 -0.1621  0.0165
 7654TIP3    H247158   0.619   1.773  -4.649 -0.1829  1.0391 -1.3947
 7655TIP3   OH247159   2.734   1.217  -4.287  0.3147  0.5641  0.0136
 7655TIP3    H147160   2.786   1.143  -4.258  1.1259  0.5838 -1.2731
 7655TIP3    H247161   2.643   1.186  -4.285  0.5202 -0.0082  0.7481
 7656TIP3   OH247162   2.196   2.916  -5.310  0.2281 -0.1363 -0.2923
 7656TIP3    H147163   2.167   2.894  -5.222 -1.5192  1.2837 -0.4568
 7656TIP3    H247164   2.185   2.835  -5.360  0.8258 -0.8318  0.6806
 7657TIP3   OH247165  -1.110   2.857  -4.191 -0.6121 -0.2457 -0.6666
 7657TIP3    H147166  -1.019   2.827  -4.189 -0.6459 -0.2947  0.3865
 7657TIP3    H247167  -1.153   2.797  -4.252 -0.2287 -1.0794 -0.1438
 7658TIP3   OH247168  -3.130  -2.182  -5.619 -0.3667  0.3215 -0.0144
 7658TIP3    H147169  -3.209  -2.205  -5.570  1.3811 -1.2070  2.2793
 7658TIP3    H247170  -3.122  -2.251  -5.685 -0.2164 -0.3424  0.6853
 7659TIP3   OH247171  -2.324  -1.038  -5.088  0.1760 -0.2632 -0.0951
 7659TIP3    H147172  -2.329  -1.036  -5.183 -1.0621 -0.2410 -0.0491
 7659TIP3    H247173  -2.414  -1.023  -5.059  0.5401 -0.2370  1.0795
 7660TIP3   OH247174   2.405   3.322  -3.456 -0.2390  0.2154  0.2553
 7660TIP3    H147175   2.351   3.392  -3.494 -0.4549 -0.7546 -1.3246
 7660TIP3    H247176   2.475   3.368  -3.410  1.2657  1.5621 -3.0705
 7661TIP3   OH247177   2.881  -0.782  -2.980  0.0321  0.2616 -0.4326
 7661TIP3    H147178   2.903  -0.765  -2.888 -1.2197 -0.7335  0.0816
 7661TIP3    H247179   2.874  -0.877  -2.986 -0.3232  0.3403 -1.4680
 7662TIP3   OH247180  -1.748   3.090  -3.885  0.4884 -0.4786  0.5647
 7662TIP3    H147181  -1.773   3.003  -3.917 -2.0930  0.1950  0.5316
 7662TIP3    H247182  -1.729   3.140  -3.964 -1.4504 -0.0975  0.2753
 7663TIP3   OH247183  -0.356   2.307  -4.792  0.0222  0.1734  0.3726
 7663TIP3    H147184  -0.370   2.238  -4.727 -0.9369  0.8357  0.9091
 7663TIP3    H247185  -0.293   2.271  -4.853 -1.3496 -1.6387 -0.0510
 7664TIP3   OH247186   0.108  -1.261  -2.616  0.3240  0.0852  0.4157
 7664TIP3    H147187   0.185  -1.313  -2.640 -0.1830 -0.7174  0.4975
 7664TIP3    H247188   0.038  -1.296  -2.671 -0.0715  0.5374  0.6306
 7665TIP3   OH247189   1.873  -2.059  -4.939  0.0421  0.0093  0.1818
 7665TIP3    H147190   1.848  -2.111  -5.015 -0.3460  1.4418 -0.7125
 7665TIP3    H247191   1.967  -2.045  -4.949 -0.1186  0.7436 -0.4159
 7666TIP3   OH247192   0.679   1.144  -2.979  0.4083 -0.2515 -0.1794
 7666TIP3    H147193   0.760   1.110  -2.942  1.1685  0.0773 -1.4697
 7666TIP3    H247194   0.612   1.081  -2.954  0.8873 -0.0975  1.6109
 7667TIP3   OH247195   2.889   1.513  -2.921 -0.2672 -0.7143  0.2338
 7667TIP3    H147196   2.940   1.577  -2.970 -1.5913  0.1012 -0.1068
 7667TIP3    H247197   2.798   1.531  -2.944 -0.9188 -0.5323  2.6961
 7668TIP3   OH247198  -2.637   2.202  -4.197  0.3741  0.0509  0.1087
 7668TIP3    H147199  -2.725   2.171  -4.222 -0.1692  0.7537  1.0899
 7668TIP3    H247200  -2.630   2.289  -4.238 -0.4792  1.1653  2.1729
 7669TIP3   OH247201   0.793   0.745  -3.377  0.3235 -0.2255 -0.6557
 7669TIP3    H147202   0.763   0.658  -3.351 -1.4372  0.6510  0.4240
 7669TIP3    H247203   0.857   0.768  -3.310  0.7532 -0.6521 -0.9121
 7670TIP3   OH247204   1.529   2.682  -4.954 -0.6484 -0.1148 -0.7801
 7670TIP3    H147205   1.537   2.744  -5.026 -0.3858  1.1508  0.2900
 7670TIP3    H247206   1.604   2.625  -4.963 -0.0489  0.6799 -0.9306
 7671TIP3   OH247207   1.182   2.446  -4.043  0.1319  0.0962 -0.2993
 7671TIP3    H147208   1.174   2.366  -4.096  0.6189  0.4298 -0.8915
 7671TIP3    H247209   1.158   2.517  -4.103 -1.3542  0.3313  0.5157
 7672TIP3   OH247210   0.134  -2.868  -4.929 -0.1534  0.0958 -0.0101
 7672TIP3    H147211   0.110  -2.922  -5.004  0.1993  1.7575 -1.3736
 7672TIP3    H247212   0.225  -2.842  -4.946  0.5583 -0.8939  1.8895
 7673TIP3   OH247213   2.046  -0.546  -5.519  0.1736 -0.1283  0.9718
 7673TIP3    H147214   2.108  -0.506  -5.458  0.6912 -0.6200  0.7753
 7673TIP3    H247215   2.031  -0.634  -5.484 -1.0727  0.2620  1.4856
 7674TIP3   OH247216   3.022   1.420  -3.767 -0.2606  0.2641  0.6413
 7674TIP3    H147217   2.947   1.473  -3.797 -0.5360  0.3482  1.4453
 7674TIP3    H247218   3.095   1.482  -3.763  0.0983 -0.0113 -1.0270
 7675TIP3   OH247219   0.024  -1.078  -4.588 -0.4179  0.3290  0.4472
 7675TIP3    H147220   0.015  -1.105  -4.496  0.0646 -0.4182  0.2852
 7675TIP3    H247221   0.098  -1.129  -4.620 -2.3542 -1.6473 -1.1777
 7676TIP3   OH247222  -0.320   2.589  -5.413  0.0812  0.2842 -0.2989
 7676TIP3    H147223  -0.355   2.677  -5.400  0.0443  0.1729  0.4022
 7676TIP3    H247224  -0.281   2.591  -5.500  0.1436  1.0151 -0.2583
 7677TIP3   OH247225  -1.447  -1.030  -3.278  0.0921  0.0195 -0.0619
 7677TIP3    H147226  -1.440  -1.120  -3.311 -0.6373 -0.2452  0.4931
 7677TIP3    H247227  -1.539  -1.019  -3.255 -0.2654  1.5717 -1.9646
 7678TIP3   OH247228   2.891  -2.748  -5.900  0.3889  0.1295 -0.5702
 7678TIP3    H147229   2.917  -2.840  -5.907  0.1453  0.1384 -1.7459
 7678TIP3    H247230   2.802  -2.751  -5.865 -0.2661 -0.1806 -2.1846
 7679TIP3   OH247231  -1.241   1.894  -3.146  0.1970  0.1796 -0.4681
 7679TIP3    H147232  -1.277   1.812  -3.111  0.0409  1.2322  2.0337
 7679TIP3    H247233  -1.261   1.959  -3.079  0.5717  2.2440 -2.2514
 7680TIP3   OH247234   0.736   1.488  -2.409  0.0471  0.2447  0.9515
 7680TIP3    H147235   0.701   1.530  -2.488  2.4683  0.1443 -0.2484
 7680TIP3    H247236   0.692   1.403  -2.406  0.3621 -0.0074 -0.6446
 7681TIP3   OH247237  -2.777   1.499  -5.079 -0.0222  0.0802  0.0330
 7681TIP3    H147238  -2.805   1.496  -5.170 -1.2702 -0.0033  0.4130
 7681TIP3    H247239  -2.688   1.535  -5.083 -0.3366  0.7715 -1.1496
 7682TIP3   OH247240  -1.557  -2.799  -4.012  0.2157 -0.4016  0.4014
 7682TIP3    H147241  -1.596  -2.731  -3.958  0.2106 -0.0714 -0.0190
 7682TIP3    H247242  -1.626  -2.825  -4.073  0.3582 -0.4680  0.2659
 7683TIP3   OH247243   2.460  -2.046  -3.727  0.0833 -0.1741 -0.1561
 7683TIP3    H147244   2.400  -2.077  -3.659 -0.3570  0.1288 -0.3999
 7683TIP3    H247245   2.403  -2.002  -3.791  0.2794 -1.8529 -1.5439
 7684TIP3   OH247246  -1.526   3.187  -2.754 -0.1433 -0.6104  0.5150
 7684TIP3    H147247  -1.486   3.246  -2.690  0.4452 -0.5504  0.1013
 7684TIP3    H247248  -1.603   3.153  -2.710 -0.3856  0.3174  0.8314
 7685TIP3   OH247249   3.000   3.019  -3.961  0.0254 -0.6533  0.0205
 7685TIP3    H147250   3.066   3.051  -3.900  0.1032  0.1805 -0.4939
 7685TIP3    H247251   3.050   2.990  -4.038  0.0639 -3.0249  0.8530
 7686TIP3   OH247252  -0.813   0.799  -2.464  0.5017  0.7034  0.0692
 7686TIP3    H147253  -0.905   0.805  -2.491  0.2900 -1.0711  0.2849
 7686TIP3    H247254  -0.765   0.845  -2.532 -0.6535  3.3629  0.9000
 7687TIP3   OH247255   1.568   2.595  -2.207  0.0638  0.0333  0.0912
 7687TIP3    H147256   1.623   2.650  -2.263 -0.3412  2.0898  1.6402
 7687TIP3    H247257   1.609   2.598  -2.121 -3.1123  2.9202  1.7368
 7688TIP3   OH247258   2.357  -3.043  -5.869 -0.0174  1.0465 -0.0741
 7688TIP3    H147259   2.386  -2.974  -5.929  3.6142  0.3616  0.6468
 7688TIP3    H247260   2.365  -3.005  -5.782  2.7378 -0.3418  0.3855
 7689TIP3   OH247261   0.851  -2.656  -2.340 -0.0014  0.8649  0.3859
 7689TIP3    H147262   0.915  -2.692  -2.402  1.0940  2.5645  0.4445
 7689TIP3    H247263   0.771  -2.706  -2.356  0.7636  0.0381 -1.1261
 7690TIP3   OH247264   2.192  -0.216  -4.176 -0.2952 -0.1525  0.2907
 7690TIP3    H147265   2.134  -0.219  -4.100  1.1766  0.0869  1.4696
 7690TIP3    H247266   2.201  -0.123  -4.197  0.7669 -0.0617  1.0382
 7691TIP3   OH247267   2.886  -1.243  -5.047  0.3911  0.0032  0.1500
 7691TIP3    H147268   2.912  -1.236  -5.138 -0.9516  0.0502 -0.2585
 7691TIP3    H247269   2.844  -1.329  -5.040 -1.0325  0.6630  0.2765
 7692TIP3   OH247270   2.501  -0.273  -5.315 -0.7530 -0.0772 -0.2386
 7692TIP3    H147271   2.435  -0.264  -5.246  1.4699  1.0899  1.8862
 7692TIP3    H247272   2.558  -0.343  -5.284 -0.1365 -0.0537 -1.2817
 7693TIP3   OH247273  -2.414   0.298   2.137 -0.0590 -0.2433  0.2612
 7693TIP3    H147274  -2.467   0.368   2.098 -1.0060 -0.9268  0.2763
 7693TIP3    H247275  -2.416   0.228   2.073  1.8286  0.1373 -0.2500
 7694TIP3   OH247276   2.918   1.673  -3.872  0.1139  0.5596 -0.5335
 7694TIP3    H147277   2.993   1.672  -3.813  0.0107  2.7370 -0.2813
 7694TIP3    H247278   2.956   1.685  -3.959  0.0892  0.8947 -0.4969
 7695TIP3   OH247279   2.960  -1.723  -3.625 -0.2475  0.3968 -0.1729
 7695TIP3    H147280   2.954  -1.641  -3.674  1.8032 -0.1308 -1.4423
 7695TIP3    H247281   3.015  -1.780  -3.679 -0.9590 -1.5644  1.0338
 7696TIP3   OH247282   3.298   1.344  -3.671  0.1066  0.0777  0.5457
 7696TIP3    H147283   3.275   1.330  -3.763 -2.7553 -0.1855  1.2100
 7696TIP3    H247284   3.266   1.432  -3.651 -0.5462 -0.3790  1.6105
 7697TIP3   OH247285  -0.637   2.278  -3.615 -0.2123  0.0842  0.8500
 7697TIP3    H147286  -0.660   2.187  -3.633  0.2930  0.1078  0.0466
 7697TIP3    H247287  -0.700   2.306  -3.549 -1.1615 -0.4725  0.2009
 7698TIP3   OH247288  -1.565  -2.527  -4.829 -0.3761 -0.4961 -0.0519
 7698TIP3    H147289  -1.569  -2.434  -4.849  1.4806 -0.2931  0.3612
 7698TIP3    H247290  -1.493  -2.560  -4.882  1.4072 -0.9257  2.4646
 7699TIP3   OH247291  -0.740  -0.889  -5.136 -0.7169 -0.0745 -0.4381
 7699TIP3    H147292  -0.723  -0.822  -5.202  0.5100  0.2163  0.1415
 7699TIP3    H247293  -0.834  -0.883  -5.119 -0.6661  1.3755 -0.5473
 7700TIP3   OH247294  -2.197  -2.176  -2.825  0.3190 -0.5761  0.2514
 7700TIP3    H147295  -2.181  -2.093  -2.868  1.3771  0.4881  2.5080
 7700TIP3    H247296  -2.147  -2.240  -2.876  1.7828  0.6726  0.0645
 7701TIP3   OH247297   0.534  -2.226  -4.368  0.3633  0.2937 -0.0918
 7701TIP3    H147298   0.461  -2.279  -4.335 -1.3312  1.4436 -1.8216
 7701TIP3    H247299   0.597  -2.290  -4.400 -0.7773 -0.7325 -0.3743
 7702TIP3   OH247300   3.013  -2.988  -3.830  0.1424  0.1927 -0.2243
 7702TIP3    H147301   2.983  -3.063  -3.779  1.1649  0.8159  1.3833
 7702TIP3    H247302   3.091  -3.020  -3.876 -0.2923 -0.1299 -0.7546
 7703TIP3   OH247303   1.521  -3.268  -2.584 -0.0294 -0.0498  0.4336
 7703TIP3    H147304   1.513  -3.358  -2.616  1.2924 -0.1712  0.3575
 7703TIP3    H247305   1.523  -3.214  -2.662  2.7442 -0.3075  0.2011
 7704TIP3   OH247306   2.811  -1.072  -4.316  0.4075 -0.6716  0.9306
 7704TIP3    H147307   2.817  -1.044  -4.225  0.2836  1.7081  0.2925
 7704TIP3    H247308   2.889  -1.125  -4.330  0.2926 -1.2938  2.4660
 7705TIP3   OH247309  -0.199  -2.806  -5.364  0.4729 -0.0346  0.2199
 7705TIP3    H147310  -0.164  -2.888  -5.399  0.2343 -0.8333  1.7821
 7705TIP3    H247311  -0.293  -2.823  -5.356  0.3112  0.6653 -0.1427
 7706TIP3   OH247312  -0.234  -0.946  -4.817 -0.6867 -0.1574  0.1305
 7706TIP3    H147313  -0.255  -0.857  -4.790  0.9428 -0.1422  1.5763
 7706TIP3    H247314  -0.262  -1.001  -4.743 -0.1052 -0.6328  0.0088
 7707TIP3   OH247315   2.647   2.974  -4.467 -0.1491  0.2168 -0.0856
 7707TIP3    H147316   2.642   3.069  -4.476 -0.1201  0.2022 -0.2451
 7707TIP3    H247317   2.738   2.952  -4.484  0.1315  0.2932  1.1820
 7708TIP3   OH247318  -2.766  -0.015  -5.267  0.1264 -0.3901 -0.5136
 7708TIP3    H147319  -2.844  -0.004  -5.213  1.0656 -0.4779  0.9099
 7708TIP3    H247320  -2.747   0.074  -5.299  0.3805 -0.0653  0.4990
 7709TIP3   OH247321   1.687  -1.481  -4.431 -0.1731  0.3328  0.2789
 7709TIP3    H147322   1.746  -1.406  -4.440  0.8695 -0.2800  1.7631
 7709TIP3    H247323   1.695  -1.528  -4.515  2.0490 -0.1426  0.7103
 7710TIP3   OH247324  -2.376   2.038  -3.906  0.3104 -0.4650 -0.1093
 7710TIP3    H147325  -2.412   2.007  -3.989 -1.7010 -1.4535  1.0380
 7710TIP3    H247326  -2.384   2.134  -3.911 -0.3963 -0.5504 -0.8057
 7711TIP3   OH247327   0.317   1.838  -4.786  0.2455 -0.0325  0.3565
 7711TIP3    H147328   0.383   1.823  -4.718  1.2664  0.1748 -0.5748
 7711TIP3    H247329   0.256   1.900  -4.746 -0.3951 -1.5382  1.8626
 7712TIP3   OH247330  -1.221  -1.286  -4.469 -0.0311 -0.2587  0.2442
 7712TIP3    H147331  -1.209  -1.289  -4.374 -1.0292  1.9205  0.4895
 7712TIP3    H247332  -1.307  -1.326  -4.484 -0.3669  0.4155  0.3752
 7713TIP3   OH247333   0.787  -2.481  -4.128  0.0030 -0.4240 -0.0156
 7713TIP3    H147334   0.869  -2.463  -4.175 -0.5351  2.3043 -0.0617
 7713TIP3    H247335   0.723  -2.498  -4.197 -0.0518  0.1628 -0.1112
 7714TIP3   OH247336   0.927  -2.723  -4.485 -0.3480  0.3574  0.3176
 7714TIP3    H147337   0.875  -2.659  -4.533  0.8081  2.4448  1.6759
 7714TIP3    H247338   1.002  -2.741  -4.542 -1.1606 -0.5843 -0.4864
 7715TIP3   OH247339   2.255  -0.603  -3.925  0.0959  0.2227 -0.1154
 7715TIP3    H147340   2.168  -0.567  -3.908  0.7376  1.4693  0.6278
 7715TIP3    H247341   2.299  -0.536  -3.978  1.1672  0.3776  0.9272
 7716TIP3   OH247342   1.967  -1.190  -5.958 -0.8954 -0.3802 -0.8881
 7716TIP3    H147343   1.918  -1.168  -5.879 -0.7805 -1.2982 -0.5412
 7716TIP3    H247344   2.033  -1.122  -5.966 -0.1408 -0.9046  0.4965
 7717TIP3   OH247345   3.043   1.669  -3.090 -0.3094 -0.2503 -0.5380
 7717TIP3    H147346   3.108   1.736  -3.110 -1.5143  1.2020  0.1874
 7717TIP3    H247347   2.988   1.665  -3.168 -0.0454 -0.6668 -0.7097
 7718TIP3   OH247348  -0.475  -0.412  -5.042  0.1584 -0.2599  0.5413
 7718TIP3    H147349  -0.451  -0.482  -4.981  0.8517 -1.1656 -0.7267
 7718TIP3    H247350  -0.518  -0.457  -5.114  1.7764  0.4131 -0.9284
 7719TIP3   OH247351  -3.267  -2.237  -3.752 -0.0253  0.2500  0.0486
 7719TIP3    H147352  -3.190  -2.180  -3.749 -0.0602  0.5054 -1.9270
 7719TIP3    H247353  -3.310  -2.224  -3.668  1.5008  0.9367  0.7726
 7720TIP3   OH247354  -2.742   3.217  -3.308  0.1960  0.3837  0.1331
 7720TIP3    H147355  -2.816   3.261  -3.349  0.3587  0.8564  0.3418
 7720TIP3    H247356  -2.665   3.263  -3.342  0.5046 -1.0936 -1.3097
 7721TIP3   OH247357   2.989   1.570  -2.159 -0.5135  0.4030  0.1505
 7721TIP3    H147358   3.041   1.543  -2.235 -0.4679  1.0267 -0.0392
 7721TIP3    H247359   3.012   1.506  -2.091  0.3717  0.5585  0.0152
 7722TIP3   OH247360   1.545  -2.747  -4.516  0.5924  0.2571  0.3440
 7722TIP3    H147361   1.604  -2.706  -4.580 -0.7311  0.4382 -0.8055
 7722TIP3    H247362   1.478  -2.681  -4.499  0.6925  0.0530  1.6244
 7723TIP3   OH247363   2.985   0.531  -4.356  0.2847 -0.1941  0.6659
 7723TIP3    H147364   3.075   0.509  -4.331  1.3113  0.2114 -2.2806
 7723TIP3    H247365   2.933   0.457  -4.325  1.6826 -0.6785  2.0004
 7724TIP3   OH247366  -1.580  -1.458  -5.104 -0.6386  0.4247  0.4106
 7724TIP3    H147367  -1.569  -1.434  -5.012 -1.3368 -0.3343  0.7093
 7724TIP3    H247368  -1.596  -1.375  -5.149 -0.3552  0.7938  0.9769
 7725TIP3   OH247369   1.587   1.920  -4.192 -0.1116  0.0509 -0.1864
 7725TIP3    H147370   1.545   1.935  -4.276  0.3104 -0.1740 -0.4406
 7725TIP3    H247371   1.553   1.836  -4.162 -0.3545  0.1884 -0.0728
 7726TIP3   OH247372   3.233   2.887  -4.375  0.4468  0.5053 -0.4098
 7726TIP3    H147373   3.197   2.923  -4.456  1.5927  2.4083 -0.1492
 7726TIP3    H247374   3.328   2.893  -4.386  0.6281  0.1065  0.7695
 7727TIP3   OH247375   2.382   1.754  -4.318 -0.7957  0.0374  0.4125
 7727TIP3    H147376   2.301   1.703  -4.309 -0.6644 -0.3743 -0.6879
 7727TIP3    H247377   2.451   1.694  -4.290 -0.6426 -0.4079 -0.8677
 7728TIP3   OH247378   2.689  -0.852  -2.496  0.2054 -0.2984 -0.4305
 7728TIP3    H147379   2.719  -0.761  -2.502  0.3475 -0.4290 -2.3297
 7728TIP3    H247380   2.596  -0.846  -2.477  0.4455  0.1903  0.7236
 7729TIP3   OH247381   0.077  -2.917  -4.240  0.5540 -0.1709 -0.0283
 7729TIP3    H147382   0.001  -2.972  -4.220  0.4834 -0.3414 -0.7501
 7729TIP3    H247383   0.153  -2.973  -4.222  0.4784 -0.8046 -1.5339
 7730TIP3   OH247384  -2.197  -2.324  -4.302  0.3786 -0.1455  0.2276
 7730TIP3    H147385  -2.268  -2.387  -4.315 -0.6233  0.9126  0.5268
 7730TIP3    H247386  -2.240  -2.242  -4.281  1.7011  0.4801  0.6021
 7731TIP3   OH247387  -1.669  -2.845  -5.569 -0.4627  0.5332  0.1159
 7731TIP3    H147388  -1.719  -2.884  -5.641  1.1038  0.0610 -0.7747
 7731TIP3    H247389  -1.728  -2.780  -5.531 -1.2474  1.0233 -1.8061
 7732TIP3   OH247390   2.984   0.060  -4.760  0.3712  0.4071 -0.5277
 7732TIP3    H147391   3.005   0.146  -4.721 -0.5227  0.6202 -0.4912
 7732TIP3    H247392   3.056   0.043  -4.820  1.2154  0.5914  0.3956
 7733TIP3   OH247393   0.658  -1.727  -4.878  0.2522 -0.6923  0.0880
 7733TIP3    H147394   0.623  -1.640  -4.900 -0.3992 -0.5344  1.6286
 7733TIP3    H247395   0.752  -1.714  -4.872  0.0487  0.3296  1.8999
 7734TIP3   OH247396  -0.754  -1.573  -5.232 -0.7978  0.8488  0.0441
 7734TIP3    H147397  -0.785  -1.489  -5.198 -1.6177  0.5980 -0.0483
 7734TIP3    H247398  -0.834  -1.623  -5.248 -0.3320  0.1619 -0.1941
 7735TIP3   OH247399  -2.026  -0.129  -5.044 -0.3020 -0.2949  0.7257
 7735TIP3    H147400  -2.102  -0.094  -5.091  0.2480  0.5835  0.4652
 7735TIP3    H247401  -2.017  -0.071  -4.968  1.0358  0.5990 -0.0757
 7736TIP3   OH247402  -1.516  -1.294  -3.331 -0.0795  0.3631 -0.0952
 7736TIP3    H147403  -1.522  -1.361  -3.400  0.2710  2.9239 -2.8043
 7736TIP3    H247404  -1.552  -1.337  -3.253  0.8091 -3.1858 -1.4340
 7737TIP3   OH247405   1.185  -2.007  -4.121  0.7389 -0.2582 -0.1989
 7737TIP3    H147406   1.196  -2.099  -4.100  0.2018 -0.1018  0.8893
 7737TIP3    H247407   1.261  -1.984  -4.174  0.5610 -1.4658 -1.0080
 7738TIP3   OH247408   2.185  -2.019  -3.900  0.6853  0.3153 -0.2177
 7738TIP3    H147409   2.123  -1.960  -3.942  0.4626  0.2230 -0.0211
 7738TIP3    H247410   2.177  -2.102  -3.948 -1.0042 -0.4183  1.2112
 7739TIP3   OH247411   1.738   1.543  -4.367 -0.2115 -0.4660  0.1819
 7739TIP3    H147412   1.709   1.580  -4.284 -1.7811  2.0664 -1.3468
 7739TIP3    H247413   1.661   1.500  -4.402 -0.2338  0.4149 -0.9077
 7740TIP3   OH247414   2.317   1.492  -4.113 -0.1956  0.2776  0.1657
 7740TIP3    H147415   2.272   1.408  -4.113  1.6233 -0.7477  0.3085
 7740TIP3    H247416   2.250   1.555  -4.088 -2.0188 -0.8634 -1.5565
 7741TIP3   OH247417   1.186   0.869  -5.775 -0.0857 -0.4347  0.0924
 7741TIP3    H147418   1.255   0.914  -5.726 -0.4609 -1.4614  1.6418
 7741TIP3    H247419   1.233   0.808  -5.831  0.3216  0.0998 -0.1569
 7742TIP3   OH247420   3.247  -2.275  -3.061 -0.3036 -0.0068 -0.3725
 7742TIP3    H147421   3.278  -2.189  -3.033 -0.7709  0.4512 -1.2119
 7742TIP3    H247422   3.319  -2.311  -3.112  0.1104 -0.3595  0.4524
 7743TIP3   OH247423  -1.906   2.999  -4.971  0.8985  0.0411  0.1300
 7743TIP3    H147424  -1.869   3.079  -5.008  0.5507  0.6904  1.1394
 7743TIP3    H247425  -1.844   2.972  -4.904  0.0030  0.6784  1.2638
 7744TIP3   OH247426  -0.036   1.044  -3.872  0.0476 -0.1888  0.0190
 7744TIP3    H147427  -0.069   1.115  -3.927  1.1884 -0.1872 -0.7149
 7744TIP3    H247428  -0.028   0.970  -3.932  0.2299 -0.5178  0.4480
 7745TIP3   OH247429  -2.115   0.857  -4.294 -0.5815  0.4475  0.1270
 7745TIP3    H147430  -2.180   0.903  -4.241  0.6048  0.2989  1.7969
 7745TIP3    H247431  -2.030   0.884  -4.257  0.2582 -0.4375 -1.0765
 7746TIP3   OH247432  -2.280   1.706  -3.176  0.0958  0.4633 -0.3366
 7746TIP3    H147433  -2.315   1.634  -3.124  0.0290  0.2712 -0.6520
 7746TIP3    H247434  -2.198   1.672  -3.211  0.1644  0.6112 -0.3197
 7747TIP3   OH247435  -1.424  -0.625  -5.280 -0.0036 -0.2060 -0.6278
 7747TIP3    H147436  -1.368  -0.625  -5.358  0.1939  1.1590 -0.5021
 7747TIP3    H247437  -1.426  -0.534  -5.252 -2.5929 -0.1063 -0.8552
 7748TIP3   OH247438  -2.271   2.423  -5.599  0.1085 -0.3227  0.2051
 7748TIP3    H147439  -2.204   2.475  -5.643 -0.8186  0.6098 -0.1488
 7748TIP3    H247440  -2.274   2.458  -5.510  0.5192 -0.7874  0.4048
 7749TIP3   OH247441  -2.337  -0.126  -2.805  0.2944  0.3213 -0.0348
 7749TIP3    H147442  -2.248  -0.119  -2.772  0.8928  1.9741 -1.8625
 7749TIP3    H247443  -2.365  -0.036  -2.818 -1.8519 -0.1381  0.9274
 7750TIP3   OH247444  -2.025   2.922  -2.767  0.2567 -0.4203  0.1363
 7750TIP3    H147445  -2.112   2.905  -2.733 -0.1924  0.4790 -0.5180
 7750TIP3    H247446  -1.984   2.978  -2.701  0.9381 -2.1046  1.2106
 7751TIP3   OH247447   3.223  -1.174  -3.317  0.1075 -0.1749  0.4163
 7751TIP3    H147448   3.210  -1.136  -3.231 -0.4677 -0.1512  0.3267
 7751TIP3    H247449   3.205  -1.267  -3.305 -0.3767 -0.1064  0.2404
 7752TIP3   OH247450  -1.780  -2.563  -2.872 -0.0338  0.0107  0.5835
 7752TIP3    H147451  -1.863  -2.591  -2.910  0.2626 -1.0250  0.6548
 7752TIP3    H247452  -1.794  -2.570  -2.777 -0.3188  1.2268  0.6430
 7753TIP3   OH247453   3.045  -0.949  -5.644 -0.0136  0.7200  0.2312
 7753TIP3    H147454   3.046  -0.859  -5.613 -1.5040  1.1257 -0.7762
 7753TIP3    H247455   3.086  -0.945  -5.731  0.9818  0.1987  0.6548
 7754TIP3   OH247456   2.874  -1.548  -2.960  0.2584  0.7856 -0.0502
 7754TIP3    H147457   2.794  -1.597  -2.942 -0.2142  0.8411 -1.8292
 7754TIP3    H247458   2.893  -1.566  -3.052  2.2719  0.8238  0.3199
 7755TIP3   OH247459  -2.215   2.811  -4.685 -0.4864 -0.0182 -0.4539
 7755TIP3    H147460  -2.244   2.901  -4.693 -0.7764  0.0763  1.2393
 7755TIP3    H247461  -2.125   2.812  -4.718 -0.7116  0.7388 -1.0683
 7756TIP3   OH247462   2.912   2.779  -3.483  0.5011  0.5481  0.2845
 7756TIP3    H147463   2.990   2.727  -3.502 -0.5596 -0.6625 -0.9518
 7756TIP3    H247464   2.901   2.834  -3.560 -1.0962 -0.9045 -0.5836
 7757TIP3   OH247465  -2.112   1.682  -5.209  0.2031 -0.0084  0.0927
 7757TIP3    H147466  -2.130   1.729  -5.127  1.7396  1.0246 -0.1117
 7757TIP3    H247467  -2.190   1.697  -5.263  0.9053  3.0531 -0.2522
 7758TIP3   OH247468  -0.902  -3.075  -4.075  0.0517  0.3156 -0.0798
 7758TIP3    H147469  -0.873  -3.101  -4.162  0.1864  0.4653 -0.0797
 7758TIP3    H247470  -0.964  -3.143  -4.049  0.9221 -0.3925  0.2072
 7759TIP3   OH247471  -1.318   2.699  -5.678  0.1986 -0.4164 -0.3513
 7759TIP3    H147472  -1.231   2.669  -5.702 -0.4800 -1.5073 -1.5852
 7759TIP3    H247473  -1.359   2.624  -5.637 -0.6025 -0.3538 -1.0042
 7760TIP3   OH247474   3.236   2.920  -4.111  0.0312 -0.4202 -0.2338
 7760TIP3    H147475   3.270   3.001  -4.072 -0.5290 -0.0921 -0.4219
 7760TIP3    H247476   3.239   2.936  -4.205 -0.0003 -0.6524 -0.2736
 7761TIP3   OH247477   0.071   3.234  -3.139  0.1879  0.3510  0.4061
 7761TIP3    H147478   0.003   3.272  -3.195  0.8162  1.3865  0.3090
 7761TIP3    H247479   0.136   3.199  -3.200 -0.0996 -0.3443  0.4968
 7762TIP3   OH247480  -2.734   0.453  -3.745  0.4217 -0.0498 -0.1913
 7762TIP3    H147481  -2.798   0.449  -3.674  0.9197  1.1885  0.3683
 7762TIP3    H247482  -2.772   0.513  -3.809 -0.5059 -1.9762 -1.5215
 7763TIP3   OH247483  -1.856  -1.236  -4.267  0.0851 -0.3274  0.1989
 7763TIP3    H147484  -1.810  -1.317  -4.245 -0.3314 -0.1452  1.9477
 7763TIP3    H247485  -1.819  -1.171  -4.208 -1.1260  0.2361  0.3713
 7764TIP3   OH247486   1.053   0.506  -5.417  0.1518 -0.1175 -0.4648
 7764TIP3    H147487   1.109   0.532  -5.491 -0.8213 -1.0157 -1.5552
 7764TIP3    H247488   0.966   0.499  -5.455 -0.5592  0.3656  1.0164
 7765TIP3   OH247489   0.747   1.084  -4.698 -0.1018 -0.2364 -0.4403
 7765TIP3    H147490   0.830   1.037  -4.700  0.5157  0.6978  1.2955
 7765TIP3    H247491   0.728   1.096  -4.605 -0.2809  2.7800 -0.7664
 7766TIP3   OH247492  -2.756   1.919  -3.727 -0.0516 -0.0270 -0.1611
 7766TIP3    H147493  -2.772   1.997  -3.780 -0.8520 -0.3539 -0.4080
 7766TIP3    H247494  -2.691   1.869  -3.777 -0.3944 -0.0683 -0.5707
 7767TIP3   OH247495  -1.214  -0.745  -3.807 -0.2312 -0.1560 -0.0007
 7767TIP3    H147496  -1.180  -0.700  -3.730 -0.3805  0.0394 -0.0501
 7767TIP3    H247497  -1.194  -0.838  -3.791 -0.2625 -0.1169  0.2737
 7768TIP3   OH247498   0.064   2.056  -4.306 -0.3143 -0.1103 -0.7595
 7768TIP3    H147499  -0.006   2.108  -4.267  0.2539  0.4682 -0.4951
 7768TIP3    H247500   0.020   2.004  -4.374 -0.7330  1.4493 -1.7204
 7769TIP3   OH247501   0.885   1.522  -4.365 -0.0026  0.4145 -0.1593
 7769TIP3    H147502   0.939   1.583  -4.415 -0.2120  0.8722  0.1591
 7769TIP3    H247503   0.932   1.510  -4.283  0.9302 -1.2332 -0.8738
 7770TIP3   OH247504  -2.007   2.489  -3.612  0.0971 -0.0091  0.2705
 7770TIP3    H147505  -2.035   2.550  -3.544  1.2877 -0.4684  1.2183
 7770TIP3    H247506  -2.076   2.423  -3.615 -0.5439  0.6481  0.1834
 7771TIP3   OH247507  -2.413  -1.414  -2.726 -0.0752 -0.2661  0.4305
 7771TIP3    H147508  -2.491  -1.366  -2.697  0.5176  0.5987  0.6283
 7771TIP3    H247509  -2.342  -1.377  -2.674  0.8896  0.7596 -1.5308
 7772TIP3   OH247510  -0.615  -1.664  -5.454 -0.0380  0.7405  0.1178
 7772TIP3    H147511  -0.672  -1.635  -5.525 -0.5954 -0.1874  0.1625
 7772TIP3    H247512  -0.664  -1.642  -5.374 -0.2572  0.1377  0.1605
 7773TIP3   OH247513  -0.099  -2.869  -2.573 -0.3112 -0.1735  0.2012
 7773TIP3    H147514  -0.122  -2.778  -2.594  0.6592  0.1223  0.3992
 7773TIP3    H247515  -0.107  -2.915  -2.657  1.2969  0.5459 -0.3899
 7774TIP3   OH247516  -3.324  -1.063  -3.889  0.0020  0.5690 -1.0397
 7774TIP3    H147517  -3.336  -1.049  -3.795 -2.4858 -1.9163 -0.8513
 7774TIP3    H247518  -3.413  -1.061  -3.925  0.1757 -3.7935 -2.3606
 7775TIP3   OH247519   2.278   1.921  -2.415  0.6733 -0.0812 -0.2929
 7775TIP3    H147520   2.364   1.962  -2.410  1.1809 -1.2126  1.7702
 7775TIP3    H247521   2.229   1.973  -2.479  2.4216  1.4405 -0.4686
 7776TIP3   OH247522   0.109   2.824  -4.593  0.2361  0.3199  0.1642
 7776TIP3    H147523   0.037   2.832  -4.530  0.1005  0.2712  0.0172
 7776TIP3    H247524   0.117   2.729  -4.607  0.0731  0.3439 -0.1097
 7777TIP3   OH247525   1.617  -0.633  -4.155 -0.3106  0.2302 -0.4726
 7777TIP3    H147526   1.679  -0.687  -4.205 -0.9781 -0.6508 -0.3772
 7777TIP3    H247527   1.534  -0.681  -4.160 -0.4341  0.1795  1.3931
 7778TIP3   OH247528   2.396  -2.905  -5.239 -0.0721  0.2585  0.8537
 7778TIP3    H147529   2.360  -2.857  -5.314 -0.9879  0.4791  1.4241
 7778TIP3    H247530   2.319  -2.942  -5.195  0.5339 -0.7599  1.0876
 7779TIP3   OH247531   2.922   0.838  -5.163 -0.4049 -0.2711 -0.0486
 7779TIP3    H147532   2.897   0.857  -5.073 -1.5463 -1.2420 -0.1382
 7779TIP3    H247533   3.010   0.800  -5.156  0.3788  1.5106  0.4399
 7780TIP3   OH247534  -2.920   2.595  -4.294 -0.7499 -0.5395 -0.0278
 7780TIP3    H147535  -2.954   2.664  -4.237  0.8599 -1.9712  2.9107
 7780TIP3    H247536  -2.960   2.612  -4.379 -0.6796  3.8288  0.5624
 7781TIP3   OH247537  -3.014  -0.176  -4.195  0.4446 -0.4739 -0.7932
 7781TIP3    H147538  -2.942  -0.113  -4.190  0.4503 -0.5502  0.5872
 7781TIP3    H247539  -3.050  -0.178  -4.106 -0.6030 -1.2093 -1.2106
 7782TIP3   OH247540   2.948   1.096  -2.496  0.2020  0.8479  0.3322
 7782TIP3    H147541   2.897   1.063  -2.569 -0.7343  1.7284  0.5604
 7782TIP3    H247542   2.955   1.023  -2.436 -1.5038  0.9150  0.6626
 7783TIP3   OH247543   1.524  -2.127  -4.406 -0.1979 -0.4929  0.3723
 7783TIP3    H147544   1.532  -2.036  -4.377 -1.6998 -0.5883  1.1743
 7783TIP3    H247545   1.431  -2.138  -4.425  0.2345 -1.3620 -1.4942
 7784TIP3   OH247546  -3.030  -2.750  -2.001 -0.3444  0.9825  0.1490
 7784TIP3    H147547  -3.043  -2.809  -2.075  3.0056 -0.9088  0.8632
 7784TIP3    H247548  -2.960  -2.691  -2.029  0.6514  0.5339  1.5840
 7785TIP3   OH247549  -0.647   2.685  -3.184  0.3884  0.3646 -0.4856
 7785TIP3    H147550  -0.598   2.683  -3.102  0.3556  1.3533 -0.4379
 7785TIP3    H247551  -0.732   2.647  -3.161  1.0323 -1.2183 -0.5343
 7786TIP3   OH247552   2.490   2.581  -3.721  0.4457 -0.0971  0.2817
 7786TIP3    H147553   2.514   2.519  -3.790 -1.4579  1.3030 -1.7745
 7786TIP3    H247554   2.528   2.664  -3.748  1.3323  0.1052  1.9975
 7787TIP3   OH247555   0.108  -3.135  -5.882  0.4480  0.1011  0.3830
 7787TIP3    H147556   0.090  -3.228  -5.865 -0.5700  0.7665  3.7250
 7787TIP3    H247557   0.025  -3.101  -5.916  0.2765  0.1201  0.8177
 7788TIP3   OH247558   1.587  -1.829  -3.356 -0.4723  0.4608 -0.0555
 7788TIP3    H147559   1.524  -1.886  -3.400 -1.0613 -0.4435  1.8692
 7788TIP3    H247560   1.547  -1.742  -3.359 -0.3147  0.5127 -1.5936
 7789TIP3   OH247561  -2.851  -0.355  -2.827  0.6251  0.2612 -0.0511
 7789TIP3    H147562  -2.832  -0.320  -2.740 -2.4434 -1.5416  1.4963
 7789TIP3    H247563  -2.838  -0.450  -2.818  1.0088  0.0997 -1.8360
 7790TIP3   OH247564   2.191  -1.028  -5.785  0.7147  0.0442 -0.0991
 7790TIP3    H147565   2.097  -1.043  -5.773  0.5834  0.2279 -0.8286
 7790TIP3    H247566   2.207  -0.944  -5.744  0.6934 -0.2950  0.6143
 7791TIP3   OH247567   2.477  -0.847  -4.335 -0.2138  0.1164 -0.0837
 7791TIP3    H147568   2.433  -0.886  -4.259 -0.2364  1.0701  0.4055
 7791TIP3    H247569   2.488  -0.920  -4.396  0.5056 -0.8438  1.1521
 7792TIP3   OH247570  -1.188   1.057  -4.096 -0.1801  0.0125 -0.4816
 7792TIP3    H147571  -1.209   1.134  -4.150  0.6328 -0.2599 -1.2181
 7792TIP3    H247572  -1.097   1.069  -4.072 -0.1997 -0.4617 -0.1619
 7793TIP3   OH247573  -0.380  -1.509  -5.442 -0.3120 -0.1605  0.2027
 7793TIP3    H147574  -0.408  -1.469  -5.360  1.3327  0.0488  0.6980
 7793TIP3    H247575  -0.451  -1.570  -5.465 -1.8102  1.3728  0.6039
 7794TIP3   OH247576   1.696   3.299  -5.179  0.1497  0.1736 -0.5089
 7794TIP3    H147577   1.654   3.384  -5.166  0.4202 -0.0289  2.0455
 7794TIP3    H247578   1.790   3.318  -5.179  0.1915 -0.0239 -0.8593
 7795TIP3   OH247579   1.544  -0.320  -5.001 -0.6622 -0.0575  0.2524
 7795TIP3    H147580   1.538  -0.225  -5.004  0.6142  0.0128 -1.4588
 7795TIP3    H247581   1.455  -0.349  -4.979 -0.8557  1.5199  1.8049
 7796TIP3   OH247582   1.612  -2.390  -4.414  0.5921  0.2942  0.0302
 7796TIP3    H147583   1.707  -2.376  -4.410  0.5202  0.6396  0.5753
 7796TIP3    H247584   1.575  -2.301  -4.413  0.2771  0.1691 -0.5434
 7797TIP3   OH247585   1.343  -2.892  -2.655 -0.5044 -0.0719 -0.7897
 7797TIP3    H147586   1.265  -2.946  -2.641 -0.3573  0.2584  2.0838
 7797TIP3    H247587   1.312  -2.817  -2.705 -2.7904  1.3697  2.4271
 7798TIP3   OH247588  -2.023  -1.460  -5.676 -0.5837  0.4564 -0.0574
 7798TIP3    H147589  -2.113  -1.431  -5.695 -0.1827 -0.0328 -3.2975
 7798TIP3    H247590  -2.033  -1.547  -5.639 -1.4891 -0.6249 -2.6297
 7799TIP3   OH247591  -1.736   0.296  -5.359 -0.0018  0.3603 -0.0857
 7799TIP3    H147592  -1.642   0.278  -5.350  0.0824  0.8467  0.0426
 7799TIP3    H247593  -1.743   0.391  -5.355 -0.6745  0.2723  1.5792
 7800TIP3   OH247594   2.842   1.277  -5.536 -0.3016  0.0828  0.3107
 7800TIP3    H147595   2.799   1.358  -5.563 -0.4670 -0.2302 -0.3766
 7800TIP3    H247596   2.915   1.267  -5.598 -0.7185 -0.6675 -0.0677
 7801TIP3   OH247597   0.635   2.348  -5.125 -0.1804 -1.0549  0.3377
 7801TIP3    H147598   0.669   2.434  -5.099 -1.1129 -0.5877  0.0768
 7801TIP3    H247599   0.662   2.338  -5.216 -0.5701 -0.7614  0.1848
 7802TIP3   OH247600  -1.679   1.511  -5.783  0.5099 -0.6913  0.0553
 7802TIP3    H147601  -1.673   1.461  -5.865 -1.4220 -0.2395 -0.4207
 7802TIP3    H247602  -1.592   1.550  -5.772  0.8859 -0.9479 -1.6682
 7803TIP3   OH247603   3.146  -2.750  -2.878  0.8504  0.3118 -0.4335
 7803TIP3    H147604   3.209  -2.680  -2.891  0.2069  1.5488  2.3577
 7803TIP3    H247605   3.148  -2.767  -2.784  0.3586 -2.8777 -0.8882
 7804TIP3   OH247606   1.431  -2.291  -3.652  0.5251 -0.0686  0.0825
 7804TIP3    H147607   1.437  -2.309  -3.746  0.6674 -0.8488  0.2406
 7804TIP3    H247608   1.482  -2.360  -3.611  0.8381  0.5324  0.7166
 7805TIP3   OH247609  -3.240  -2.620  -3.648  0.2349 -0.3193  0.5207
 7805TIP3    H147610  -3.150  -2.588  -3.639 -0.0817  0.3008  1.8089
 7805TIP3    H247611  -3.273  -2.623  -3.558 -1.4498  0.7313 -0.0089
 7806TIP3   OH247612   0.121   1.552  -4.693 -0.5962 -0.3352  0.1489
 7806TIP3    H147613   0.156   1.619  -4.752 -1.1626  0.8308  1.0696
 7806TIP3    H247614   0.031   1.580  -4.677 -0.0122  0.3520  2.8027
 7807TIP3   OH247615   0.558  -1.713  -4.633 -0.1229  0.5184 -0.1511
 7807TIP3    H147616   0.565  -1.732  -4.727  0.3551  1.6163 -0.3493
 7807TIP3    H247617   0.535  -1.620  -4.629  3.6876  1.5760  0.8337
 7808TIP3   OH247618   2.543   1.563  -4.962 -0.0947 -0.1816 -0.4457
 7808TIP3    H147619   2.522   1.620  -4.888 -1.2771  0.5865 -1.3146
 7808TIP3    H247620   2.459   1.550  -5.006  0.6343 -0.2502 -1.8883
 7809TIP3   OH247621   2.503   2.877  -3.370 -0.5245 -0.1644 -0.3214
 7809TIP3    H147622   2.540   2.932  -3.438 -0.0979 -1.0764 -0.8491
 7809TIP3    H247623   2.452   2.811  -3.417 -1.9576  0.4423  0.3530
 7810TIP3   OH247624  -1.222   3.205  -2.840  0.1778 -0.1991 -0.3446
 7810TIP3    H147625  -1.170   3.129  -2.865 -0.1251 -0.1880 -1.0302
 7810TIP3    H247626  -1.311   3.170  -2.829  0.1350 -0.0367 -0.1755
 7811TIP3   OH247627   0.830  -0.361  -4.249  0.1187 -0.2328 -0.2108
 7811TIP3    H147628   0.903  -0.424  -4.245 -0.5926 -1.3835 -2.8827
 7811TIP3    H247629   0.790  -0.377  -4.335 -1.5395  2.3373 -0.0126
 7812TIP3   OH247630   1.967   0.700  -3.412  0.4414 -0.5349 -0.1212
 7812TIP3    H147631   1.927   0.651  -3.340  0.4221 -1.6916 -0.9010
 7812TIP3    H247632   2.061   0.697  -3.394  0.3789 -0.0793  0.3030
 7813TIP3   OH247633  -0.771   1.033  -5.126 -0.2594  0.1181  0.2185
 7813TIP3    H147634  -0.693   1.082  -5.100  1.4539 -0.8789 -2.5440
 7813TIP3    H247635  -0.823   1.095  -5.177  1.4484 -0.4860 -2.4715
 7814TIP3   OH247636  -1.688   1.123  -2.782  0.4298 -0.1314  0.3452
 7814TIP3    H147637  -1.651   1.135  -2.870  1.9940 -2.4111  0.6149
 7814TIP3    H247638  -1.761   1.063  -2.795  0.3995 -0.1407  0.5515
 7815TIP3   OH247639  -1.939  -2.217  -3.968  0.0206 -0.0910 -0.1150
 7815TIP3    H147640  -1.984  -2.274  -4.030 -0.3047 -1.1184  1.0217
 7815TIP3    H247641  -1.877  -2.168  -4.021  0.0420 -1.2379 -1.1962
 7816TIP3   OH247642   0.579  -0.701  -3.536 -0.5929  0.0203  0.9365
 7816TIP3    H147643   0.562  -0.729  -3.626 -1.0754  0.7988  0.7803
 7816TIP3    H247644   0.641  -0.628  -3.545 -0.2779 -0.2003  1.2691
 7817TIP3   OH247645   0.373   0.715  -4.328  0.0845 -0.0104  0.2043
 7817TIP3    H147646   0.336   0.627  -4.322 -0.0269 -0.1098 -1.5091
 7817TIP3    H247647   0.418   0.717  -4.412  2.0939  0.8478  1.2265
 7818TIP3   OH247648  -2.580  -0.717  -5.399 -0.1686 -0.2125  0.4168
 7818TIP3    H147649  -2.611  -0.792  -5.349 -2.3302  0.3106 -0.0330
 7818TIP3    H247650  -2.588  -0.642  -5.339 -4.1288  0.6756 -0.8707
 7819TIP3   OH247651  -1.671  -2.184  -5.223  0.3342 -0.3625 -0.5431
 7819TIP3    H147652  -1.630  -2.211  -5.306  0.1176  2.5913 -1.7301
 7819TIP3    H247653  -1.607  -2.209  -5.156  1.8077 -0.3247 -1.8789
 7820TIP3   OH247654  -3.045   0.678  -4.908 -0.5904  0.0198  0.2334
 7820TIP3    H147655  -2.975   0.742  -4.895 -0.8308  0.1406  0.9866
 7820TIP3    H247656  -3.058   0.638  -4.822 -1.9699  0.5535  0.3026
 7821TIP3   OH247657   0.255  -3.037  -4.544  0.1947  0.0487 -0.6937
 7821TIP3    H147658   0.257  -3.077  -4.457 -0.0554 -1.4965 -1.3624
 7821TIP3    H247659   0.341  -3.054  -4.581  0.3737  0.8896 -0.6808
 7822TIP3   OH247660   2.785   3.180  -4.033  0.4808  0.0644  0.1501
 7822TIP3    H147661   2.863   3.129  -4.015  1.0219  0.7359 -0.1973
 7822TIP3    H247662   2.772   3.171  -4.128  0.2022  0.0356  0.1908
 7823TIP3   OH247663  -2.294  -0.469  -3.267 -0.7837 -0.2796 -0.3149
 7823TIP3    H147664  -2.239  -0.407  -3.314 -0.3491 -0.7207 -0.3946
 7823TIP3    H247665  -2.236  -0.507  -3.201 -0.7742 -1.3166 -0.9003
 7824TIP3   OH247666  -3.014   0.883  -4.123  0.1207  0.4162 -0.6535
 7824TIP3    H147667  -2.980   0.807  -4.170  0.7150 -0.1443  0.6544
 7824TIP3    H247668  -2.942   0.911  -4.067 -0.4627  1.2728 -0.3139
 7825TIP3   OH247669  -2.923   0.920  -5.678  0.0089  0.3208 -0.4083
 7825TIP3    H147670  -3.011   0.909  -5.644 -0.3290  0.7393 -1.1205
 7825TIP3    H247671  -2.882   0.834  -5.670  0.0289  0.4358  1.2314
 7826TIP3   OH247672   1.558  -1.991  -4.847 -0.0780 -0.2494 -0.7131
 7826TIP3    H147673   1.588  -1.984  -4.757  1.0320 -1.6351 -0.9362
 7826TIP3    H247674   1.558  -2.085  -4.865 -2.6708 -0.2165 -1.3919
 7827TIP3   OH247675   2.994  -1.786  -4.730 -0.2126  0.1267 -0.2334
 7827TIP3    H147676   2.960  -1.703  -4.698 -0.2055  0.0638 -0.0616
 7827TIP3    H247677   2.998  -1.842  -4.652  0.3543  0.1608 -0.2347
 7828TIP3   OH247678   1.181  -1.881  -5.657  0.1326  0.2800  0.6439
 7828TIP3    H147679   1.213  -1.839  -5.577 -0.0580  1.9964 -0.1478
 7828TIP3    H247680   1.252  -1.870  -5.721 -0.0239 -0.3953  0.3414
 7829TIP3   OH247681  -3.225   0.797  -5.311  0.2340 -0.5707  0.1367
 7829TIP3    H147682  -3.317   0.816  -5.331  0.4104  0.2991  0.1285
 7829TIP3    H247683  -3.222   0.702  -5.304 -0.1752 -0.8122 -2.2506
 7830TIP3   OH247684  -3.238  -1.566  -3.589 -0.4793  0.3963  0.2393
 7830TIP3    H147685  -3.244  -1.657  -3.560  0.3583 -0.2123 -1.3797
 7830TIP3    H247686  -3.303  -1.559  -3.659 -0.1362  0.8786 -0.0341
 7831TIP3   OH247687   0.574   2.455  -4.041  0.4836  0.3467 -0.2478
 7831TIP3    H147688   0.637   2.490  -3.977  2.0822  0.0511 -1.5865
 7831TIP3    H247689   0.512   2.405  -3.988  1.7781  0.0781  1.0945
 7832TIP3   OH247690  -2.074  -1.228  -3.746 -0.3226  0.4556 -0.9489
 7832TIP3    H147691  -2.086  -1.141  -3.783 -1.8142  0.3806 -0.6847
 7832TIP3    H247692  -2.078  -1.215  -3.651 -0.2832  0.1304 -0.9013
 7833TIP3   OH247693   2.540   0.182  -3.201  0.5229  0.1772 -0.2356
 7833TIP3    H147694   2.486   0.131  -3.262 -0.3980  0.2040  0.5378
 7833TIP3    H247695   2.603   0.120  -3.167 -0.1421 -0.2939  0.1687
 7834TIP3   OH247696   1.577  -3.300  -4.720 -0.4554  0.1983 -0.8632
 7834TIP3    H147697   1.532  -3.219  -4.743  0.1665  1.0523  0.8190
 7834TIP3    H247698   1.581  -3.300  -4.625  1.4666 -0.7580 -0.8947
 7835TIP3   OH247699   2.119   3.283  -4.108  0.4882 -0.2781  0.3603
 7835TIP3    H147700   2.147   3.236  -4.030  0.9437  0.8753  0.9234
 7835TIP3    H247701   2.136   3.223  -4.181  1.6369 -0.7300  0.9850
 7836TIP3   OH247702   2.181   2.954  -4.882 -0.3247  0.0069  0.3636
 7836TIP3    H147703   2.139   3.032  -4.919  2.6178  2.0652  1.0280
 7836TIP3    H247704   2.184   2.892  -4.955 -0.7929  1.3412 -0.8422
 7837TIP3   OH247705  -0.551  -1.793  -3.302  0.7483  0.0984 -0.1448
 7837TIP3    H147706  -0.514  -1.729  -3.363 -1.6300 -0.5763 -2.4783
 7837TIP3    H247707  -0.559  -1.873  -3.353 -0.3518 -0.8300  1.4051
 7838TIP3   OH247708   2.598  -0.993  -5.144  0.2213 -0.2013  0.2722
 7838TIP3    H147709   2.634  -1.022  -5.060  1.2121  0.2579  0.0205
 7838TIP3    H247710   2.668  -0.941  -5.183 -0.6667  0.5773 -0.3200
 7839TIP3   OH247711   0.666   0.281  -5.463 -0.1260  0.2574 -0.4678
 7839TIP3    H147712   0.575   0.292  -5.490 -0.2230  0.8904  0.0979
 7839TIP3    H247713   0.662   0.250  -5.373  0.2179 -0.0713 -0.5624
 7840TIP3   OH247714  -0.248   0.750  -3.184 -0.1880  0.6119 -0.0128
 7840TIP3    H147715  -0.158   0.716  -3.183  0.0340  1.2105  0.6922
 7840TIP3    H247716  -0.287   0.711  -3.263  0.1301 -1.0884  0.6200
 7841TIP3   OH247717   2.893   2.377  -5.302 -0.5715  0.0060  0.0233
 7841TIP3    H147718   2.915   2.457  -5.349  0.8447  0.5041  1.4436
 7841TIP3    H247719   2.804   2.355  -5.331 -1.2376  2.4235  0.0618
 7842TIP3   OH247720   1.494   2.664  -4.218 -0.4852 -0.0387 -0.5844
 7842TIP3    H147721   1.438   2.735  -4.251 -1.6671 -0.7119 -0.0904
 7842TIP3    H247722   1.565   2.709  -4.173 -0.6538  0.8414 -1.1562
 7843TIP3   OH247723   2.948  -2.984  -5.110  0.0644 -0.2866  0.8397
 7843TIP3    H147724   2.867  -2.933  -5.112  0.1695 -0.1364  0.0562
 7843TIP3    H247725   2.964  -3.001  -5.017 -0.5158  0.2412  1.0390
 7844TIP3   OH247726  -0.402  -1.299  -3.923 -0.2360  0.2570 -0.8101
 7844TIP3    H147727  -0.421  -1.371  -3.863 -0.4227  1.4716  0.6497
 7844TIP3    H247728  -0.334  -1.333  -3.981 -0.2508 -1.0479 -0.1032
 7845TIP3   OH247729   1.510   3.087  -3.797 -0.0523  0.0178 -0.2199
 7845TIP3    H147730   1.450   3.013  -3.792  1.3671 -1.1108  1.4924
 7845TIP3    H247731   1.487   3.142  -3.722  0.5101 -0.0049 -0.0269
 7846TIP3   OH247732  -0.187   0.887  -3.548  0.5295 -0.0362 -0.2935
 7846TIP3    H147733  -0.183   0.976  -3.583  2.4485 -0.9352 -2.5886
 7846TIP3    H247734  -0.119   0.885  -3.481  0.4290  0.2507 -0.1817
 7847TIP3   OH247735  -0.453   2.821  -5.833 -0.3552 -0.1906 -0.5011
 7847TIP3    H147736  -0.358   2.815  -5.844 -0.3743 -1.3814 -0.2045
 7847TIP3    H247737  -0.467   2.810  -5.739 -0.8864 -2.2088 -0.7658
 7848TIP3   OH247738   0.112  -0.220  -3.253  0.1164 -1.3018 -0.0036
 7848TIP3    H147739   0.075  -0.136  -3.279  2.1551 -1.0146 -2.3659
 7848TIP3    H247740   0.108  -0.220  -3.157  0.4953  1.7060  0.1086
 7849TIP3   OH247741  -1.743   2.339  -3.387 -0.1361  0.1603  0.2027
 7849TIP3    H147742  -1.779   2.417  -3.430 -0.6583 -0.1654  0.0517
 7849TIP3    H247743  -1.814   2.306  -3.333 -0.7447 -1.6045 -1.5772
 7850TIP3   OH247744  -0.868   2.993  -5.153  0.0518  0.2102  0.2166
 7850TIP3    H147745  -0.775   2.971  -5.153  0.1197  0.3878 -1.6673
 7850TIP3    H247746  -0.888   3.016  -5.243 -2.0844 -0.9064  0.3413
 7851TIP3   OH247747  -3.139  -2.693  -3.284 -0.1801  0.4398  0.1297
 7851TIP3    H147748  -3.168  -2.748  -3.212 -1.4877 -1.0134 -1.4250
 7851TIP3    H247749  -3.070  -2.638  -3.246 -0.7530 -0.3211  2.4238
 7852TIP3   OH247750  -2.441   3.355  -5.027 -0.1602 -0.5747 -0.3551
 7852TIP3    H147751  -2.372   3.387  -5.085  0.6153 -2.2717 -0.4437
 7852TIP3    H247752  -2.445   3.261  -5.045 -2.4765 -0.5497 -0.3115
 7853TIP3   OH247753  -0.650   1.535  -4.437 -0.2534 -0.4675 -0.3675
 7853TIP3    H147754  -0.590   1.607  -4.418  2.4675 -2.7985  0.6157
 7853TIP3    H247755  -0.713   1.537  -4.365 -1.4361  1.9276 -1.3317
 7854TIP3   OH247756   0.052  -1.466  -3.610  0.5087 -0.1693  0.0103
 7854TIP3    H147757   0.089  -1.387  -3.648  1.8842 -0.6285  0.3390
 7854TIP3    H247758   0.085  -1.468  -3.520  0.8640 -1.3192 -0.1210
 7855TIP3   OH247759   3.274  -1.847  -2.358 -0.3887 -0.1561  0.4110
 7855TIP3    H147760   3.259  -1.872  -2.267  0.6305 -0.4296  0.5138
 7855TIP3    H247761   3.318  -1.922  -2.398 -1.1663 -0.1953 -0.4288
 7856TIP3   OH247762  -2.148  -3.180  -3.734 -0.4639  0.3016  0.1425
 7856TIP3    H147763  -2.079  -3.124  -3.699 -0.9177  0.1090  1.3925
 7856TIP3    H247764  -2.129  -3.186  -3.828  0.0431  1.8852  0.1190
 7857TIP3   OH247765  -3.083   0.136  -3.436 -0.0787 -0.7558 -0.5001
 7857TIP3    H147766  -3.158   0.082  -3.461  0.7773 -1.5088 -1.5298
 7857TIP3    H247767  -3.010   0.074  -3.428  0.5422  0.0224  0.0159
 7858TIP3   OH247768   3.297  -0.172  -2.969  0.6604 -0.2823  0.0940
 7858TIP3    H147769   3.220  -0.114  -2.972 -0.4780 -1.6869  0.6722
 7858TIP3    H247770   3.320  -0.177  -2.876  1.6016  0.3004 -0.0999
 7859TIP3   OH247771  -2.881   1.649  -5.648  0.2786 -0.7482 -0.3270
 7859TIP3    H147772  -2.862   1.724  -5.591  0.0308 -0.4759 -0.5980
 7859TIP3    H247773  -2.912   1.688  -5.729 -0.1510 -1.1544 -0.3629
 7860TIP3   OH247774  -3.314   0.250  -3.854  0.1638 -0.0957  0.0132
 7860TIP3    H147775  -3.320   0.226  -3.946 -1.8467 -1.7974  0.4959
 7860TIP3    H247776  -3.221   0.259  -3.837  1.0737 -4.9348 -1.0086
 7861TIP3   OH247777  -2.193  -0.031  -2.519 -0.3284 -0.2248  1.0555
 7861TIP3    H147778  -2.259   0.037  -2.505 -1.9493 -1.1159 -1.5352
 7861TIP3    H247779  -2.127   0.011  -2.575 -1.5551 -0.7624 -0.9235
 7862TIP3   OH247780   2.467   1.908  -3.052  0.1794  0.1824 -0.1496
 7862TIP3    H147781   2.529   1.981  -3.063  1.5626 -0.8537  0.4612
 7862TIP3    H247782   2.428   1.897  -3.139  1.3526  0.4496 -0.7399
 7863TIP3   OH247783  -0.240  -2.409  -2.913 -0.3233 -0.0217 -0.1425
 7863TIP3    H147784  -0.276  -2.421  -3.001  1.0806  0.3852 -0.8084
 7863TIP3    H247785  -0.240  -2.497  -2.875 -0.1448 -0.3537 -0.8883
 7864TIP3   OH247786  -0.486   0.934  -3.279 -0.0734 -0.5077  0.6367
 7864TIP3    H147787  -0.489   0.883  -3.198 -0.8688 -1.1514  0.2142
 7864TIP3    H247788  -0.395   0.963  -3.285  0.4565 -2.0173  0.8156
 7865TIP3   OH247789  -0.096   2.644  -3.404 -0.3919 -0.4269  0.8181
 7865TIP3    H147790  -0.175   2.608  -3.363 -0.9454 -1.1439 -0.7730
 7865TIP3    H247791  -0.103   2.738  -3.389 -1.4065 -0.5079  0.9704
 7866TIP3   OH247792  -2.612   0.838  -4.439  0.5777  0.0560  0.0684
 7866TIP3    H147793  -2.625   0.863  -4.531  2.9339 -0.9375 -0.5980
 7866TIP3    H247794  -2.612   0.921  -4.391 -0.0071  0.6389 -0.9109
 7867TIP3   OH247795  -0.309   0.593  -2.669  0.4520  0.2391 -0.5680
 7867TIP3    H147796  -0.265   0.563  -2.589 -1.0687 -1.1972 -0.2188
 7867TIP3    H247797  -0.286   0.686  -2.675  1.3807  0.1516  1.0037
 7868TIP3   OH247798  -2.200  -1.052  -3.280  0.7822  0.1112  0.3937
 7868TIP3    H147799  -2.178  -0.973  -3.329 -0.0680 -2.0429 -3.9358
 7868TIP3    H247800  -2.295  -1.046  -3.266  0.5140 -0.5136 -0.9378
 7869TIP3   OH247801   0.163   1.551  -3.528 -0.4145  0.0333  1.0141
 7869TIP3    H147802   0.236   1.548  -3.466 -1.8211 -0.3128  2.7500
 7869TIP3    H247803   0.095   1.497  -3.487 -0.9828 -1.2734 -1.4710
 7870TIP3   OH247804   2.584   3.294  -2.130  0.1053  0.1157  0.3082
 7870TIP3    H147805   2.598   3.233  -2.203  0.3992  0.5007  0.0354
 7870TIP3    H247806   2.648   3.267  -2.064  0.5256  0.3804  0.0189
 7871TIP3   OH247807  -0.849   1.789  -4.336 -0.0600 -0.1945 -0.5464
 7871TIP3    H147808  -0.860   1.700  -4.371 -0.5391 -1.0997  1.7381
 7871TIP3    H247809  -0.755   1.805  -4.339 -0.1016 -0.1108 -2.4424
 7872TIP3   OH247810   2.661   2.101  -4.317 -0.0997 -0.1995 -0.5557
 7872TIP3    H147811   2.655   2.136  -4.228  0.2053 -0.1811 -0.5385
 7872TIP3    H247812   2.638   2.174  -4.374  0.1302 -0.0887 -0.5060
 7873TIP3   OH247813  -1.961  -3.030  -4.566 -0.2209  0.0319 -0.0963
 7873TIP3    H147814  -1.887  -2.993  -4.518 -0.8713  1.0429  0.1594
 7873TIP3    H247815  -1.984  -2.963  -4.630  0.2089 -1.0328 -1.3963
 7874TIP3   OH247816   1.755  -2.500  -3.086  0.2421  0.6114  0.1288
 7874TIP3    H147817   1.713  -2.578  -3.123  2.5266 -0.1266 -1.1320
 7874TIP3    H247818   1.742  -2.432  -3.153 -3.2129  1.9505  1.9431
 7875TIP3   OH247819  -1.307  -2.249  -4.591  0.7244 -0.0957 -0.6665
 7875TIP3    H147820  -1.309  -2.188  -4.665  1.5868  1.4838  0.5423
 7875TIP3    H247821  -1.380  -2.222  -4.535 -1.3324 -2.6694 -1.8818
 7876TIP3   OH247822  -3.014  -0.868  -3.233  0.4936  0.7699 -0.2414
 7876TIP3    H147823  -2.972  -0.886  -3.149  1.5490  2.7324 -0.3050
 7876TIP3    H247824  -3.100  -0.834  -3.210  0.2781  0.0963 -0.0154
 7877TIP3   OH247825  -0.854   2.658  -3.929 -0.5468  0.4136 -0.5417
 7877TIP3    H147826  -0.828   2.566  -3.924 -0.4618  0.5094  2.6851
 7877TIP3    H247827  -0.950   2.656  -3.930 -0.5585  0.3096 -2.2331
 7878TIP3   OH247828   2.112   1.910  -3.051 -0.2564 -0.2612 -0.8562
 7878TIP3    H147829   2.126   1.954  -2.967  0.7163 -0.6633 -0.7968
 7878TIP3    H247830   2.040   1.849  -3.035 -1.2442  0.8881 -0.7873
 7879TIP3   OH247831   2.987  -1.451  -5.680  0.4844  0.4407  0.5499
 7879TIP3    H147832   3.058  -1.458  -5.743 -0.1874  0.1459 -0.1908
 7879TIP3    H247833   2.949  -1.364  -5.696  0.8392  0.7043  1.1206
 7880TIP3   OH247834   2.181   0.303  -3.426 -0.1757 -0.7486 -0.5246
 7880TIP3    H147835   2.144   0.256  -3.500 -0.9895 -0.3164 -0.4061
 7880TIP3    H247836   2.265   0.260  -3.409  0.1039 -0.7469 -1.7936
 7881TIP3   OH247837  -0.235  -0.895  -5.487 -0.5503  0.6618  0.0898
 7881TIP3    H147838  -0.244  -0.886  -5.582  1.0921 -1.3429 -0.3070
 7881TIP3    H247839  -0.162  -0.837  -5.465 -0.1945  0.2636 -0.0429
 7882TIP3   OH247840   0.725   1.488  -5.000 -0.4645 -0.2842  0.1916
 7882TIP3    H147841   0.645   1.527  -4.965 -0.9511 -2.2950  1.4477
 7882TIP3    H247842   0.752   1.548  -5.070 -2.6981  0.7779  0.1684
 7883TIP3   OH247843   2.153   0.786  -4.903 -0.2278  0.0303  0.3128
 7883TIP3    H147844   2.183   0.776  -4.993  0.7340 -0.1231  0.6424
 7883TIP3    H247845   2.098   0.864  -4.905 -0.4086 -0.1051 -0.4471
 7884TIP3   OH247846   1.690  -1.599  -4.674  0.3222  0.3870 -0.0563
 7884TIP3    H147847   1.765  -1.649  -4.708  1.2910  0.4077  1.9504
 7884TIP3    H247848   1.639  -1.579  -4.752  3.4285  2.1614 -1.8405
 7885TIP3   OH247849  -3.062   3.189  -3.407  0.0281  0.4207  0.1899
 7885TIP3    H147850  -3.000   3.141  -3.462 -2.3524 -1.6242 -0.8981
 7885TIP3    H247851  -3.122   3.123  -3.374 -0.6957  2.0990  2.4715
 7886TIP3   OH247852  -3.232  -0.628  -5.669 -0.5558  0.1139 -0.3088
 7886TIP3    H147853  -3.145  -0.654  -5.697  0.4091  1.7654  0.9947
 7886TIP3    H247854  -3.240  -0.537  -5.696 -2.3009 -0.2878 -1.2928
 7887TIP3   OH247855   3.364   2.534  -3.909  0.2515 -0.0244 -0.1499
 7887TIP3    H147856   3.403   2.521  -3.823 -0.5956  1.2755  0.4631
 7887TIP3    H247857   3.361   2.447  -3.948  0.5111 -0.6581  1.2042
 7888TIP3   OH247858   2.727   1.864  -3.197  0.1504  0.1070  0.1168
 7888TIP3    H147859   2.730   1.777  -3.236 -0.0145  0.3263 -0.3845
 7888TIP3    H247860   2.633   1.881  -3.184  0.1819 -1.4378  3.9367
 7889TIP3   OH247861  -2.887   0.887  -4.812  0.2420  0.1110  0.1272
 7889TIP3    H147862  -2.936   0.940  -4.748  0.7102  0.8844 -0.1385
 7889TIP3    H247863  -2.797   0.887  -4.779  0.4448  0.3472 -0.4222
 7890TIP3   OH247864  -2.727  -2.071  -4.530 -0.1568 -0.3735  0.6201
 7890TIP3    H147865  -2.807  -2.022  -4.550 -2.1794 -3.6418 -0.0217
 7890TIP3    H247866  -2.659  -2.028  -4.581 -2.1214  0.7519 -1.2052
 7891TIP3   OH247867  -2.557  -2.500  -4.020 -0.3566  0.1318 -0.0538
 7891TIP3    H147868  -2.635  -2.449  -4.043 -0.5564  0.3508  1.0789
 7891TIP3    H247869  -2.582  -2.551  -3.944  0.5720  0.1121  0.2576
 7892TIP3   OH247870   2.517  -0.068  -4.675 -0.0508 -0.1998 -0.3091
 7892TIP3    H147871   2.441  -0.051  -4.618 -1.0222 -1.0801 -1.3131
 7892TIP3    H247872   2.543  -0.157  -4.653 -2.2517 -1.7074 -3.1698
 7893TIP3   OH247873  -0.077   2.088  -5.371  0.0486  0.0286 -1.0319
 7893TIP3    H147874  -0.083   2.127  -5.284 -2.0548  1.6252 -1.7979
 7893TIP3    H247875   0.017   2.071  -5.384  0.4925  0.5241  1.1756
 7894TIP3   OH247876  -3.203  -1.572  -3.167  0.2264  0.5660  0.3741
 7894TIP3    H147877  -3.251  -1.489  -3.170  2.3695  1.8330 -1.0973
 7894TIP3    H247878  -3.134  -1.558  -3.103  2.8212  1.3227 -2.3628
 7895TIP3   OH247879   1.318  -2.958  -3.988 -0.2599 -0.4543  0.2961
 7895TIP3    H147880   1.395  -2.961  -3.932 -0.5981 -0.6270  0.7493
 7895TIP3    H247881   1.343  -2.898  -4.059  0.2141 -0.3457  0.5504
 7896TIP3   OH247882   2.137   2.930  -4.491  0.9168 -0.2488 -0.0057
 7896TIP3    H147883   2.116   2.961  -4.403 -0.5960 -0.2598 -0.3309
 7896TIP3    H247884   2.216   2.878  -4.481  0.3633 -0.8386  1.4656
 7897TIP3   OH247885   1.997   0.331  -3.054  0.4739  0.5815 -0.1751
 7897TIP3    H147886   2.011   0.272  -3.129  0.8294  0.6987 -0.2011
 7897TIP3    H247887   2.082   0.334  -3.010  0.4611  1.0782 -0.1769
 7898TIP3   OH247888   2.487   0.020  -4.296 -0.5749 -0.3795  0.3860
 7898TIP3    H147889   2.573  -0.016  -4.269 -0.4818 -1.5783 -1.3602
 7898TIP3    H247890   2.431   0.006  -4.219  0.1192 -2.0786  0.6395
 7899TIP3   OH247891   1.917  -0.588  -5.266 -0.0138  0.2720 -0.5563
 7899TIP3    H147892   1.851  -0.520  -5.250 -0.4660 -0.5221  1.1014
 7899TIP3    H247893   1.873  -0.653  -5.319 -0.1332  0.4099 -0.6259
 7900TIP3   OH247894  -1.580  -2.278  -4.935 -0.6620 -0.1019 -0.3929
 7900TIP3    H147895  -1.503  -2.267  -4.990 -0.5256 -1.6096 -0.5374
 7900TIP3    H247896  -1.618  -2.190  -4.929 -0.1942  0.2605 -2.1596
 7901TIP3   OH247897  -3.020   0.125  -3.106 -0.6177  0.1709  0.0769
 7901TIP3    H147898  -2.997   0.044  -3.060 -1.5181 -0.5845 -0.7724
 7901TIP3    H247899  -3.107   0.109  -3.142 -0.4301  1.1887 -0.8860
 7902TIP3   OH247900   2.966  -1.036  -2.891 -0.0119 -0.0343  0.3471
 7902TIP3    H147901   3.015  -0.973  -2.838  1.5691  0.1924 -1.2466
 7902TIP3    H247902   2.928  -1.096  -2.828  0.7935  0.8876  1.7819
 7903TIP3   OH247903   1.017  -0.574  -4.343 -0.5783 -0.4220  0.2724
 7903TIP3    H147904   1.095  -0.537  -4.300  0.3976  0.1702 -1.8953
 7903TIP3    H247905   1.030  -0.669  -4.337  1.3110 -0.3634 -1.6234
 7904TIP3   OH247906   0.272   0.477  -4.379  0.3571  0.0897 -0.3238
 7904TIP3    H147907   0.316   0.493  -4.463  0.2008  1.4237 -0.1626
 7904TIP3    H247908   0.179   0.477  -4.400  0.3544 -1.0152 -0.3735
 7905TIP3   OH247909   0.273  -2.805  -2.584  0.3846 -0.0653 -0.6779
 7905TIP3    H147910   0.256  -2.779  -2.674  1.0757  1.3375 -0.4239
 7905TIP3    H247911   0.368  -2.803  -2.576  0.3032  0.4707  0.2614
 7906TIP3   OH247912   0.441   2.085  -5.332  0.6703  0.5134 -0.5239
 7906TIP3    H147913   0.523   2.133  -5.342  0.7074  0.4329 -0.6093
 7906TIP3    H247914   0.437   2.064  -5.239  0.4782  0.9934 -0.4205
 7907TIP3   OH247915  -0.622  -1.013   4.699  0.3480  0.0277  0.6045
 7907TIP3    H147916  -0.609  -1.012   4.604 -0.5105  0.3721  0.4777
 7907TIP3    H247917  -0.553  -0.956   4.733  0.4168  0.2230  0.1483
 7908TIP3   OH247918  -0.259  -3.091  -5.305 -0.0504  0.7191 -0.1189
 7908TIP3    H147919  -0.315  -3.014  -5.312  0.8986  1.5425  0.9251
 7908TIP3    H247920  -0.296  -3.140  -5.231  0.9913  1.6490  1.0702
 7909TIP3   OH247921  -1.725  -1.512  -4.171 -0.2880  0.3003  0.2113
 7909TIP3    H147922  -1.775  -1.568  -4.230  1.3354  0.8173 -1.7587
 7909TIP3    H247923  -1.667  -1.571  -4.124 -0.9189 -0.0043  0.6229
 7910TIP3   OH247924   1.562   0.501  -4.535  0.2454  0.4699 -0.3843
 7910TIP3    H147925   1.634   0.535  -4.482  0.0973 -0.5394  0.5017
 7910TIP3    H247926   1.561   0.557  -4.613  0.3883  2.0698  0.7233
 7911TIP3   OH247927  -2.192  -1.763  -3.959 -0.3531 -0.0606  0.3947
 7911TIP3    H147928  -2.100  -1.761  -3.931 -0.5612 -0.5306  1.1524
 7911TIP3    H247929  -2.200  -1.692  -4.022  0.3387  0.5200  0.9441
 7912TIP3   OH247930   0.518   1.375  -5.598 -0.0425  0.0674  0.2796
 7912TIP3    H147931   0.534   1.304  -5.536 -0.4848  0.7376  1.1857
 7912TIP3    H247932   0.588   1.367  -5.663  0.6143 -0.4576  1.0437
 7913TIP3   OH247933   0.005   1.175  -4.989 -0.4527 -0.1624  0.5289
 7913TIP3    H147934   0.084   1.134  -4.951  1.7051  1.7992 -1.5182
 7913TIP3    H247935   0.007   1.264  -4.955 -1.6216  0.0278  0.1233
 7914TIP3   OH247936   2.573  -0.491  -4.765  0.1288  0.4963 -0.4002
 7914TIP3    H147937   2.505  -0.482  -4.698 -0.3684  0.7157 -0.9207
 7914TIP3    H247938   2.539  -0.441  -4.840 -0.4183 -1.5620 -1.6186
 7915TIP3   OH247939   1.316  -0.316  -5.425  0.4188  0.0206 -0.2963
 7915TIP3    H147940   1.239  -0.275  -5.385  0.7785  0.0119  0.4220
 7915TIP3    H247941   1.307  -0.297  -5.518 -0.0112  0.7533 -0.1183
 7916TIP3   OH247942   1.727  -0.091  -3.844 -0.9627  0.3719 -0.3895
 7916TIP3    H147943   1.635  -0.065  -3.842 -1.2868 -0.7451  0.0584
 7916TIP3    H247944   1.768  -0.041  -3.774 -2.2156 -2.4488  2.6058
 7917TIP3   OH247945  -0.193  -2.009  -4.946  0.5359 -0.2448 -0.1813
 7917TIP3    H147946  -0.130  -2.081  -4.950  0.6755 -0.2399  1.1715
 7917TIP3    H247947  -0.153  -1.945  -4.887 -1.1215 -0.7047  1.5674
 7918TIP3   OH247948   2.148  -1.188  -3.679  0.3655 -0.2971 -0.5049
 7918TIP3    H147949   2.222  -1.129  -3.671  0.0843  0.0634 -0.5334
 7918TIP3    H247950   2.177  -1.269  -3.637 -0.1084  0.6407  1.7471
 7919TIP3   OH247951   1.471   2.629  -2.555  0.0168  0.0191  0.1184
 7919TIP3    H147952   1.546   2.642  -2.498 -0.0825  0.0370  0.2453
 7919TIP3    H247953   1.457   2.534  -2.555  0.4487 -0.0500 -0.4327
 7920TIP3   OH247954  -2.131  -3.118  -5.344  0.0817  0.3924  0.3214
 7920TIP3    H147955  -2.079  -3.056  -5.293  0.1111  1.1098 -0.5600
 7920TIP3    H247956  -2.067  -3.163  -5.399 -0.1293  0.7562 -0.2315
 7921TIP3   OH247957  -1.193   2.574  -4.956  0.3289 -0.0854 -0.1152
 7921TIP3    H147958  -1.164   2.568  -4.865  0.6862  0.6050 -0.1817
 7921TIP3    H247959  -1.143   2.647  -4.993  0.6127 -0.7146 -1.0249
 7922TIP3   OH247960   1.550   2.142  -5.468  0.4493  0.3327 -0.2925
 7922TIP3    H147961   1.586   2.214  -5.415 -0.3094 -0.7962  1.8726
 7922TIP3    H247962   1.456   2.148  -5.456  0.1480  0.6004 -2.3757
 7923TIP3   OH247963  -0.365  -2.243  -5.267 -0.2673  0.3311  0.2450
 7923TIP3    H147964  -0.445  -2.285  -5.235 -0.4824  0.3708 -0.2319
 7923TIP3    H247965  -0.390  -2.153  -5.285 -0.3082  0.1532 -0.6201
 7924TIP3   OH247966   2.929  -0.389  -4.085 -0.1841  0.3342  0.1421
 7924TIP3    H147967   2.896  -0.401  -4.174 -0.0569  1.0309 -0.0076
 7924TIP3    H247968   2.889  -0.460  -4.035 -1.3907  0.7757 -0.1623
 7925TIP3   OH247969   0.419   1.533  -3.997  0.7222  0.1660 -0.1617
 7925TIP3    H147970   0.407   1.598  -3.928  3.3444 -1.6074  2.1985
 7925TIP3    H247971   0.408   1.582  -4.079  1.9564  3.4353  1.4592
 7926TIP3   OH247972   2.963   2.136  -5.863  0.3376 -0.2231  0.4218
 7926TIP3    H147973   3.019   2.080  -5.810  2.0006  1.1302  0.1713
 7926TIP3    H247974   2.984   2.112  -5.953  2.6117  2.0799  0.2226
 7927TIP3   OH247975  -2.559   1.103  -4.855 -0.0045 -0.7861  0.0830
 7927TIP3    H147976  -2.638   1.154  -4.874  0.6225 -0.2429 -1.1952
 7927TIP3    H247977  -2.488   1.168  -4.854  0.6729 -1.4920 -0.5757
 7928TIP3   OH247978  -3.257   2.874  -4.505 -0.6095  0.3846 -0.1585
 7928TIP3    H147979  -3.299   2.885  -4.590 -0.3100  0.0444 -0.3518
 7928TIP3    H247980  -3.198   2.800  -4.516 -1.4217 -0.4167  0.6734
 7929TIP3   OH247981  -2.407  -1.969  -4.943 -0.2789  0.4846 -0.4699
 7929TIP3    H147982  -2.422  -1.945  -4.851  3.6410  1.8253  0.0046
 7929TIP3    H247983  -2.467  -1.912  -4.992 -0.5926  1.6526  1.1845
 7930TIP3   OH247984  -3.271   0.345  -3.385 -0.0227 -0.0398 -0.6919
 7930TIP3    H147985  -3.291   0.376  -3.474 -0.0026 -3.0615 -1.8986
 7930TIP3    H247986  -3.189   0.298  -3.394  0.7906  0.8890  1.3268
 7931TIP3   OH247987  -1.411   2.067  -5.239 -0.2115  0.3178  0.0653
 7931TIP3    H147988  -1.359   1.993  -5.208 -0.5238 -1.0755 -2.4503
 7931TIP3    H247989  -1.348   2.124  -5.283 -0.5303 -0.8661 -2.0864
 7932TIP3   OH247990  -2.730   0.069  -3.567  0.3945  0.7943  0.2094
 7932TIP3    H147991  -2.670   0.141  -3.586 -0.5163  1.6247  0.3729
 7932TIP3    H247992  -2.735   0.067  -3.471  1.7794 -0.6687  0.2889
 7933TIP3   OH247993  -0.672   1.618  -1.728  0.1936 -1.0458 -0.1443
 7933TIP3    H147994  -0.660   1.686  -1.662  1.3409 -1.0380 -0.3378
 7933TIP3    H247995  -0.735   1.558  -1.690 -1.1991  0.3449 -0.1569
 7934TIP3   OH247996   2.981  -1.726  -3.952  0.0337  0.1317 -0.1404
 7934TIP3    H147997   3.006  -1.634  -3.953  0.8273 -0.0730 -0.0558
 7934TIP3    H247998   3.063  -1.773  -3.965 -0.1659 -0.6084  1.1041
 7935TIP3   OH247999   2.200   3.153  -3.453 -0.0440  0.0031  0.0209
 7935TIP3    H148000   2.212   3.060  -3.471 -0.6675  0.0783 -0.8893
 7935TIP3    H248001   2.286   3.192  -3.471  0.2169 -0.3856  0.3946
 7936TIP3   OH248002   1.181   1.606  -3.697  0.5863  0.5206  0.3762
 7936TIP3    H148003   1.213   1.580  -3.611  1.2942  2.6394  0.8264
 7936TIP3    H248004   1.090   1.575  -3.700  0.9394 -0.6768  1.3546
 7937TIP3   OH248005  -1.312   1.628  -4.997  0.4175 -0.0534  0.6894
 7937TIP3    H148006  -1.402   1.662  -4.997  1.0207  1.7078 -0.1390
 7937TIP3    H248007  -1.320   1.540  -5.034 -0.8521  0.4571 -0.3508
 7938TIP3   OH248008   1.199   1.129  -5.405 -0.2159 -0.1376  0.3498
 7938TIP3    H148009   1.152   1.072  -5.466 -1.5648  0.2719  0.9740
 7938TIP3    H248010   1.271   1.075  -5.372 -1.6248 -1.5984  1.1431
 7939TIP3   OH248011   2.386   0.489  -3.592 -0.1188  0.8964  0.4010
 7939TIP3    H148012   2.356   0.403  -3.624  1.6662  0.0803  0.8120
 7939TIP3    H248013   2.452   0.468  -3.526  1.8700  2.5650 -0.9453
 7940TIP3   OH248014  -3.267   3.182  -3.629  0.0014 -0.3376 -0.4748
 7940TIP3    H148015  -3.259   3.094  -3.592 -0.4409  0.3317  1.3282
 7940TIP3    H248016  -3.265   3.240  -3.553 -0.8350  1.1425 -1.5338
 7941TIP3   OH248017  -3.217   0.503  -4.144  0.5044  0.0119 -0.0543
 7941TIP3    H148018  -3.139   0.465  -4.187  0.6223 -0.3493  0.4721
 7941TIP3    H248019  -3.273   0.428  -4.126  0.1205  0.2498 -0.2355
 7942TIP3   OH248020   1.919   1.637  -3.736  0.4637 -0.4675 -0.0622
 7942TIP3    H148021   1.983   1.708  -3.739 -1.2890  1.3267  1.4407
 7942TIP3    H248022   1.895   1.631  -3.644 -0.8337 -1.7130 -0.4446
 7943TIP3   OH248023   0.473  -0.314  -4.080  0.0990 -0.0122  0.4313
 7943TIP3    H148024   0.559  -0.272  -4.085  1.0333 -1.7865  0.6474
 7943TIP3    H248025   0.441  -0.293  -3.992  0.8713 -0.3601  0.7987
 7944TIP3   OH248026   0.220   2.354  -5.390 -0.0993 -0.3581  0.1653
 7944TIP3    H148027   0.249   2.306  -5.312  0.5802 -1.0811 -0.5050
 7944TIP3    H248028   0.165   2.291  -5.437 -0.0666 -0.1153 -0.1991
 7945TIP3   OH248029   1.186   0.241  -5.387  0.4453 -0.4399 -0.2323
 7945TIP3    H148030   1.139   0.323  -5.397 -0.7966 -0.6729  2.5552
 7945TIP3    H248031   1.122   0.174  -5.412 -0.0449 -0.6637  1.4788
 7946TIP3   OH248032  -2.443  -1.615  -2.902 -0.3551  0.3304 -0.1414
 7946TIP3    H148033  -2.534  -1.635  -2.879 -0.0810 -0.2961  0.4340
 7946TIP3    H248034  -2.422  -1.537  -2.851 -0.5662  0.4715 -0.2681
 7947TIP3   OH248035  -0.019  -0.367  -5.685 -0.4936 -0.0274 -0.1523
 7947TIP3    H148036   0.064  -0.385  -5.730 -0.9636  0.7581 -1.3849
 7947TIP3    H248037  -0.035  -0.445  -5.631  0.6957 -0.4805 -0.4302
 7948TIP3   OH248038   1.505  -2.276  -2.281 -0.2595 -0.7626 -0.0177
 7948TIP3    H148039   1.446  -2.209  -2.247  0.0016 -1.0930  1.1166
 7948TIP3    H248040   1.447  -2.347  -2.308 -0.4042 -0.9985  0.8925
 7949TIP3   OH248041  -2.142  -2.624  -2.760  0.1115  0.0605 -0.6013
 7949TIP3    H148042  -2.141  -2.563  -2.686  2.1507  0.0538 -0.5670
 7949TIP3    H248043  -2.121  -2.709  -2.721  0.2407 -0.1191 -1.0620
 7950TIP3   OH248044  -0.937   2.706  -4.474  0.3392 -0.1012  0.4085
 7950TIP3    H148045  -0.959   2.624  -4.429  2.3802  0.8613  3.5148
 7950TIP3    H248046  -0.894   2.759  -4.407 -0.4152  3.3685 -1.6112
 7951TIP3   OH248047   2.042  -0.625  -3.335 -0.6077  0.2786  0.7872
 7951TIP3    H148048   2.012  -0.589  -3.251 -0.4966 -1.1623  1.4826
 7951TIP3    H248049   1.999  -0.710  -3.341  0.2873 -0.1310 -0.0665
 7952TIP3   OH248050   1.461  -2.599  -5.798 -0.0147  0.1725 -0.6315
 7952TIP3    H148051   1.415  -2.657  -5.738  0.8265 -0.3272 -0.4454
 7952TIP3    H248052   1.553  -2.604  -5.770  0.1009  1.4436 -0.7369
 7953TIP3   OH248053   1.403   3.335  -3.034 -0.2120  0.1945 -0.8063
 7953TIP3    H148054   1.365   3.397  -2.972  3.7575  0.4007  1.7805
 7953TIP3    H248055   1.422   3.388  -3.111 -0.5733  1.1886 -0.2345
 7954TIP3   OH248056   0.008  -2.872  -5.672 -0.1581 -0.8231  0.5456
 7954TIP3    H148057  -0.001  -2.928  -5.595 -1.5624  0.0542  1.0659
 7954TIP3    H248058   0.096  -2.835  -5.665 -0.7062  0.2768  2.4945
 7955TIP3   OH248059  -1.761   1.319  -5.152  0.4072 -0.2222  0.2508
 7955TIP3    H148060  -1.738   1.404  -5.190 -0.0633 -0.1287  0.1646
 7955TIP3    H248061  -1.852   1.305  -5.179  1.2571 -1.9874 -1.9711
 7956TIP3   OH248062  -0.012  -2.261  -2.844  0.4412  0.4662 -0.1705
 7956TIP3    H148063   0.039  -2.336  -2.874 -1.6355 -1.0819  0.0046
 7956TIP3    H248064  -0.102  -2.292  -2.842 -0.1600  2.0159  2.8911
 7957TIP3   OH248065  -0.071  -1.829  -3.944  0.4386 -0.7052 -0.0641
 7957TIP3    H148066   0.004  -1.889  -3.936  0.8705 -0.2885 -0.9473
 7957TIP3    H248067  -0.035  -1.750  -3.983  0.1986  0.7796  2.5024
 7958TIP3   OH248068   2.248  -0.765  -5.755 -0.3210 -0.1967  0.6806
 7958TIP3    H148069   2.287  -0.678  -5.757  0.5382 -0.5806 -0.0226
 7958TIP3    H248070   2.165  -0.756  -5.802 -0.4253  0.3275  0.9623
 7959TIP3   OH248071   1.715   1.780  -4.549 -0.3795  0.0485 -0.2937
 7959TIP3    H148072   1.735   1.712  -4.484 -1.3972  0.1458  0.1410
 7959TIP3    H248073   1.790   1.840  -4.543 -0.3374 -0.0686  0.6381
 7960TIP3   OH248074  -1.244  -1.274  -4.142  0.5602 -0.3266  0.0625
 7960TIP3    H148075  -1.313  -1.341  -4.137  0.6758 -0.4695 -0.2173
 7960TIP3    H248076  -1.206  -1.273  -4.054 -2.1181  2.2734  1.3627
 7961TIP3   OH248077   1.347  -0.508  -4.962 -0.5663  0.4510  0.6561
 7961TIP3    H148078   1.263  -0.552  -4.976 -1.6975  2.5900  0.3816
 7961TIP3    H248079   1.412  -0.577  -4.977 -2.2411 -1.4418  1.5640
 7962TIP3   OH248080  -1.097  -2.579  -3.454 -0.2158  0.0853 -0.5158
 7962TIP3    H148081  -1.081  -2.673  -3.455  0.4238  0.1729  0.2983
 7962TIP3    H248082  -1.192  -2.571  -3.462 -0.2733 -0.6261 -0.6197
 7963TIP3   OH248083  -0.437   0.248  -5.146 -0.3824  0.1121 -0.0066
 7963TIP3    H148084  -0.477   0.217  -5.228  0.1190  0.2436 -0.3079
 7963TIP3    H248085  -0.503   0.305  -5.107 -0.5060  0.3081 -0.4879
 7964TIP3   OH248086  -3.345   2.479  -2.279  0.3726 -0.1826 -0.4797
 7964TIP3    H148087  -3.397   2.552  -2.245  1.9351  0.6669  0.2124
 7964TIP3    H248088  -3.279   2.463  -2.211  1.0723 -1.1528 -1.3479
 7965TIP3   OH248089   0.388  -0.729  -4.139  0.1598  0.2471 -0.3483
 7965TIP3    H148090   0.363  -0.707  -4.049 -0.6615  1.4193 -0.8362
 7965TIP3    H248091   0.425  -0.817  -4.132 -1.0003 -0.1890  0.9595
 7966TIP3   OH248092   0.093  -3.296  -4.875 -0.1345 -0.3129  0.2896
 7966TIP3    H148093   0.099  -3.272  -4.782 -0.3311 -0.3460  0.3129
 7966TIP3    H248094   0.064  -3.387  -4.873  0.6744 -0.5808  0.2036
 7967TIP3   OH248095   2.847  -1.384  -2.741 -0.0691  0.3772  0.6420
 7967TIP3    H148096   2.785  -1.329  -2.789  1.5000  2.0681  0.4024
 7967TIP3    H248097   2.882  -1.444  -2.806  0.5658  1.3047  0.1067
 7968TIP3   OH248098   0.406  -1.186  -5.714 -0.4552 -0.1023  0.0418
 7968TIP3    H148099   0.322  -1.233  -5.709 -0.9271  0.7974  0.8167
 7968TIP3    H248100   0.393  -1.120  -5.782 -0.6406  0.5310  0.6797
 7969TIP3   OH248101   2.968   0.514  -3.151 -0.0587  0.3353 -0.5933
 7969TIP3    H148102   2.920   0.487  -3.072  0.6834  1.5544  0.3060
 7969TIP3    H248103   3.027   0.441  -3.169 -1.2248 -0.5730 -0.8861
 7970TIP3   OH248104   1.684  -2.710  -5.232 -0.3521 -0.0698 -0.4707
 7970TIP3    H148105   1.729  -2.632  -5.267 -0.7159 -0.5658 -2.1244
 7970TIP3    H248106   1.755  -2.769  -5.207 -0.0697  0.2220 -0.5746
 7971TIP3   OH248107   2.700  -0.601  -3.593 -0.0803  0.0302 -0.2495
 7971TIP3    H148108   2.628  -0.642  -3.641 -0.9459  2.0674 -0.7966
 7971TIP3    H248109   2.768  -0.669  -3.589 -1.1334 -1.1863 -1.7402
 7972TIP3   OH248110  -3.152  -0.821  -3.992  0.0826  0.0648 -0.4278
 7972TIP3    H148111  -3.082  -0.880  -4.019  0.3982  0.4504 -0.4665
 7972TIP3    H248112  -3.213  -0.876  -3.943 -0.4439 -0.6425 -1.8030
 7973TIP3   OH248113   2.753   1.536  -4.537 -0.0422 -0.6961 -0.4313
 7973TIP3    H148114   2.803   1.612  -4.508  1.0657 -1.4588 -0.2573
 7973TIP3    H248115   2.819   1.466  -4.544 -1.0323 -1.6305 -0.5775
 7974TIP3   OH248116  -1.514   2.194  -2.363  0.6926  0.3886  0.3679
 7974TIP3    H148117  -1.537   2.129  -2.297  0.1224 -1.6528 -1.7059
 7974TIP3    H248118  -1.436   2.158  -2.406  0.2696  0.9661 -0.9321
 7975TIP3   OH248119  -1.080  -1.143  -4.977  0.7319  0.4136 -0.3449
 7975TIP3    H148120  -1.062  -1.068  -5.033 -0.3457  0.2994 -0.8686
 7975TIP3    H248121  -1.174  -1.158  -4.986  0.4075  0.7277  1.9251
 7976TIP3   OH248122   1.646  -2.573  -3.825  0.1530 -0.0447 -0.2466
 7976TIP3    H148123   1.649  -2.509  -3.896  0.0029 -0.0841 -0.2887
 7976TIP3    H248124   1.657  -2.657  -3.869  2.3147  0.0630 -0.0012
 7977TIP3   OH248125   0.024   1.608  -2.646  0.5450  0.0578 -0.4435
 7977TIP3    H148126   0.053   1.650  -2.565 -0.1185  1.6209 -0.9906
 7977TIP3    H248127  -0.069   1.629  -2.653  0.6720  0.2579 -1.8024
 7978TIP3   OH248128   3.163  -1.428  -2.187  0.1402  0.2481 -0.0453
 7978TIP3    H148129   3.171  -1.494  -2.118  0.4487  0.1015 -0.2181
 7978TIP3    H248130   3.106  -1.469  -2.253  1.7895 -0.6061 -1.0189
 7979TIP3   OH248131   0.298  -0.849  -4.475  0.1037 -0.0459  0.4615
 7979TIP3    H148132   0.310  -0.944  -4.484  0.3280  0.1107 -1.2229
 7979TIP3    H248133   0.356  -0.824  -4.404  0.6506 -1.0614  0.3922
 7980TIP3   OH248134   0.205   0.125  -4.598 -0.6277 -0.4881  0.2791
 7980TIP3    H148135   0.196   0.031  -4.612 -1.0324 -0.3802 -0.2241
 7980TIP3    H248136   0.120   0.161  -4.625 -0.4364  0.0328  0.3629
 7981TIP3   OH248137  -0.630   2.118  -4.454  0.2831  0.1950 -0.3700
 7981TIP3    H148138  -0.588   2.149  -4.373  0.7125  0.9257 -0.8626
 7981TIP3    H248139  -0.628   2.023  -4.446  1.2099  0.2295  0.0448
 7982TIP3   OH248140  -2.252   2.324  -4.127  0.4683 -0.5360 -0.0006
 7982TIP3    H148141  -2.256   2.235  -4.161  0.6451  0.0395 -1.6030
 7982TIP3    H248142  -2.165   2.332  -4.089  0.4561 -1.0330  0.1345
 7983TIP3   OH248143   2.640   1.924  -3.856 -0.1155 -0.1870 -0.3670
 7983TIP3    H148144   2.549   1.950  -3.842 -0.0316 -0.5635  1.0705
 7983TIP3    H248145   2.639   1.875  -3.938 -1.3450 -0.8149  0.0069
 7984TIP3   OH248146  -1.219  -2.222  -5.039  0.2277  0.2426 -0.0767
 7984TIP3    H148147  -1.229  -2.191  -4.949  0.7162 -0.2884  0.1684
 7984TIP3    H248148  -1.199  -2.144  -5.090  1.3449  0.3516  0.5058
 7985TIP3   OH248149  -2.571   3.070  -2.186 -0.5372  0.3801 -0.1335
 7985TIP3    H148150  -2.590   3.114  -2.268  0.8724 -2.7273 -2.3125
 7985TIP3    H248151  -2.524   2.990  -2.211  2.2241  0.4353  3.8444
 7986TIP3   OH248152  -3.170  -2.076  -5.124  0.6305 -0.3686  0.0779
 7986TIP3    H148153  -3.183  -2.165  -5.158  1.7363 -1.8496  3.0993
 7986TIP3    H248154  -3.254  -2.055  -5.082  0.8858 -0.7446  0.8046
 7987TIP3   OH248155  -0.514  -0.577  -2.501  0.4014  0.0215 -0.0949
 7987TIP3    H148156  -0.539  -0.618  -2.418 -0.2089  1.2098  0.3268
 7987TIP3    H248157  -0.421  -0.557  -2.491  0.2162  0.6075  0.5015
 7988TIP3   OH248158   1.905   0.519  -3.624 -0.4089  0.4380 -0.6084
 7988TIP3    H148159   1.855   0.445  -3.590  0.6407 -0.4909 -1.0240
 7988TIP3    H248160   1.906   0.583  -3.553  0.0327 -0.6288  0.3692
 7989TIP3   OH248161   0.574  -0.737  -3.804  0.4504  0.2866  1.1715
 7989TIP3    H148162   0.554  -0.649  -3.836  1.6050  0.0752 -0.1805
 7989TIP3    H248163   0.603  -0.786  -3.881  1.1156 -0.8964  2.1284
 7990TIP3   OH248164  -2.380   2.318  -4.841 -0.0861  0.0705 -0.1418
 7990TIP3    H148165  -2.302   2.322  -4.785  0.3029 -1.4937 -0.5243
 7990TIP3    H248166  -2.394   2.225  -4.856 -1.0781  0.3979 -1.4308
 7991TIP3   OH248167  -0.122   0.010  -3.513  0.3595 -0.5420  0.5046
 7991TIP3    H148168  -0.070  -0.047  -3.570  2.9309  1.0644  1.0438
 7991TIP3    H248169  -0.106  -0.023  -3.425  2.5461  1.2725  0.9166
 7992TIP3   OH248170   2.834   0.310  -2.671 -0.5524 -0.0815 -0.3404
 7992TIP3    H148171   2.923   0.276  -2.677 -0.4541  0.2058 -0.5119
 7992TIP3    H248172   2.819   0.324  -2.578 -0.5591 -0.4953 -0.2756
 7993TIP3   OH248173   1.438   1.859  -2.823 -0.0803 -0.1576 -0.8840
 7993TIP3    H148174   1.464   1.768  -2.838 -0.6094 -0.1878 -1.6973
 7993TIP3    H248175   1.515   1.899  -2.781  0.2052 -0.9378 -0.6379
 7994TIP3   OH248176  -3.269   1.830  -5.821  0.3820  0.1477  0.1097
 7994TIP3    H148177  -3.188   1.851  -5.775  1.8348 -1.5665 -1.4659
 7994TIP3    H248178  -3.282   1.736  -5.807 -1.9553  0.5555  1.1721
 7995TIP3   OH248179   0.856  -2.518  -5.451  0.5962 -0.5687  0.0833
 7995TIP3    H148180   0.913  -2.590  -5.477  0.4725 -0.1626 -1.4256
 7995TIP3    H248181   0.774  -2.560  -5.426 -0.0087 -0.9398 -2.2477
 7996TIP3   OH248182  -0.430  -2.615  -2.817  0.2940  0.1502  0.0462
 7996TIP3    H148183  -0.481  -2.539  -2.846 -0.1368  0.5044  1.6676
 7996TIP3    H248184  -0.495  -2.681  -2.793  0.6246  0.0279  0.6223
 7997TIP3   OH248185  -3.036  -2.497  -5.399 -0.0778  0.4155 -1.1915
 7997TIP3    H148186  -2.977  -2.572  -5.395  0.9875  1.2057 -1.4726
 7997TIP3    H248187  -3.120  -2.531  -5.370  1.1062 -0.1370  2.0467
 7998TIP3   OH248188  -1.410  -2.308  -5.858 -0.1364 -0.0283  0.4319
 7998TIP3    H148189  -1.402  -2.404  -5.855  1.5352  0.0823  3.1218
 7998TIP3    H248190  -1.337  -2.280  -5.913 -0.5732 -0.2648 -0.2867
 7999TIP3   OH248191   2.796   1.747  -5.322 -0.1955  0.2616  0.2892
 7999TIP3    H148192   2.859   1.685  -5.360 -0.2183 -0.3322  1.1945
 7999TIP3    H248193   2.761   1.702  -5.245  0.7774  1.8924  1.7695
 8000TIP3   OH248194   2.892  -3.251  -5.704  0.1862 -0.2381 -0.3889
 8000TIP3    H148195   2.868  -3.342  -5.688  0.0994 -0.4215 -1.4885
 8000TIP3    H248196   2.817  -3.214  -5.752  0.6522  0.1152 -0.8608
 8001TIP3   OH248197  -2.330   2.013  -2.560  0.4912 -0.2560 -0.0322
 8001TIP3    H148198  -2.265   1.946  -2.537 -0.2226 -1.4780 -1.3496
 8001TIP3    H248199  -2.404   1.996  -2.502  1.0257  0.6164  0.9173
 8002TIP3   OH248200  -0.860   2.967  -5.445 -0.0535  0.1865  0.2972
 8002TIP3    H148201  -0.773   2.940  -5.417 -0.1829 -0.6111 -0.0452
 8002TIP3    H248202  -0.861   2.952  -5.539 -0.1880  1.2677  0.1139
 8003TIP3   OH248203  -2.358   0.413  -5.026  0.2239  0.6528 -0.4156
 8003TIP3    H148204  -2.434   0.393  -4.970  0.2285 -1.5695 -1.1205
 8003TIP3    H248205  -2.292   0.445  -4.965 -0.3613 -0.0386  0.6152
 8004TIP3   OH248206  -2.940  -1.862  -2.933 -0.6663 -0.1310  0.0491
 8004TIP3    H148207  -2.944  -1.919  -3.010  0.3828  0.8866 -0.7905
 8004TIP3    H248208  -2.972  -1.777  -2.965  0.7567  0.5753  0.4525
 8005TIP3   OH248209  -2.284   3.332  -4.205 -0.2245  0.3787  0.2381
 8005TIP3    H148210  -2.216   3.303  -4.144  0.4478 -0.0657 -0.7043
 8005TIP3    H248211  -2.242   3.329  -4.291 -1.9419 -1.7046 -0.6343
 8006TIP3   OH248212   0.554  -0.477  -3.847 -0.0422 -0.5827 -0.1424
 8006TIP3    H148213   0.485  -0.451  -3.786 -0.2583 -0.8394 -0.2791
 8006TIP3    H248214   0.634  -0.442  -3.808 -0.2459 -0.2979  0.0244
 8007TIP3   OH248215  -2.380  -0.374  -4.160 -0.1003  0.0961  0.1650
 8007TIP3    H148216  -2.346  -0.381  -4.249  1.6620 -1.4035  0.8899
 8007TIP3    H248217  -2.358  -0.285  -4.133 -0.6490  0.5633 -0.8915
 8008TIP3   OH248218   3.125   2.043  -2.814 -0.0986 -0.3124  0.3466
 8008TIP3    H148219   3.078   2.020  -2.733  0.4628 -1.7146  0.3106
 8008TIP3    H248220   3.067   2.012  -2.884 -1.4554  2.5478  0.0767
 8009TIP3   OH248221   3.033  -2.494  -4.604 -0.6122  0.7381 -0.2607
 8009TIP3    H148222   3.029  -2.583  -4.641 -1.3488  0.7017 -0.1046
 8009TIP3    H248223   3.126  -2.479  -4.589 -0.5364 -0.2972  0.3987
 8010TIP3   OH248224  -0.570  -2.064  -4.074  0.2871 -0.2409 -0.4315
 8010TIP3    H148225  -0.621  -1.987  -4.097  0.5648  0.4651  1.1868
 8010TIP3    H248226  -0.483  -2.030  -4.051  0.5200 -1.0741 -0.0331
 8011TIP3   OH248227   2.287  -0.977  -2.710  0.0670  0.1925  0.5760
 8011TIP3    H148228   2.301  -0.909  -2.644 -0.7442  0.6698  0.2749
 8011TIP3    H248229   2.203  -1.017  -2.686  0.8128 -1.1209  1.0971
 8012TIP3   OH248230   2.114   1.612  -5.615 -0.3638 -0.1981  0.1257
 8012TIP3    H148231   2.025   1.648  -5.620  0.1078  1.1776  1.0290
 8012TIP3    H248232   2.148   1.643  -5.532  1.0637 -0.4959 -0.3159
 8013TIP3   OH248233  -2.856  -2.614  -4.214 -0.2505 -0.1824  0.2183
 8013TIP3    H148234  -2.821  -2.547  -4.155  0.8696 -1.2531  0.8393
 8013TIP3    H248235  -2.917  -2.664  -4.160 -0.6478 -0.0250 -0.0781
 8014TIP3   OH248236   0.369  -1.711  -5.823  0.6063 -0.2697 -0.6086
 8014TIP3    H148237   0.355  -1.775  -5.893  1.0285 -0.8992 -0.1289
 8014TIP3    H248238   0.332  -1.753  -5.746  2.1918 -0.5971  0.0212
 8015TIP3   OH248239  -2.108  -1.455  -5.307  0.6399 -0.5427  0.0302
 8015TIP3    H148240  -2.087  -1.462  -5.400 -0.0546 -0.6413 -0.1265
 8015TIP3    H248241  -2.123  -1.546  -5.279 -1.5712 -0.3589 -0.3621
 8016TIP3   OH248242  -2.668   1.321  -3.822 -0.2930  0.1917  0.0380
 8016TIP3    H148243  -2.726   1.293  -3.892 -0.9465 -0.3112  0.7632
 8016TIP3    H248244  -2.700   1.408  -3.798  0.7468  0.9482 -1.1363
 8017TIP3   OH248245  -0.912   1.309  -3.159  0.3186 -0.2756  0.4473
 8017TIP3    H148246  -0.865   1.229  -3.181 -1.4327 -1.3825  0.6464
 8017TIP3    H248247  -0.951   1.338  -3.241  1.5240  0.8159  0.2166
 8018TIP3   OH248248  -1.158  -3.207  -3.594  0.3991  0.8059 -0.1000
 8018TIP3    H148249  -1.095  -3.182  -3.526 -0.3499  1.7823  0.2641
 8018TIP3    H248250  -1.159  -3.133  -3.655 -0.8442  1.1121  0.2491
 8019TIP3   OH248251  -1.797   0.940  -3.525 -1.3302 -0.2903  0.1130
 8019TIP3    H148252  -1.722   0.911  -3.577  0.1565  1.8003  0.9792
 8019TIP3    H248253  -1.800   0.879  -3.451  1.0349  0.9024  1.3044
 8020TIP3   OH248254  -3.217  -1.278  -4.400  0.3164  0.0414  0.0293
 8020TIP3    H148255  -3.158  -1.208  -4.374  0.2593  0.2457 -0.3729
 8020TIP3    H248256  -3.205  -1.285  -4.495 -0.9706  0.7024 -0.1964
 8021TIP3   OH248257   1.805   0.875  -5.268 -0.5445  0.1268 -0.5097
 8021TIP3    H148258   1.775   0.785  -5.270 -0.9468  0.2158  0.7219
 8021TIP3    H248259   1.773   0.910  -5.185  1.0172  0.9089 -0.1896
 8022TIP3   OH248260  -3.149  -1.931  -4.120 -0.5519 -0.6729 -0.2592
 8022TIP3    H148261  -3.141  -1.978  -4.203  0.2238 -0.4635 -0.3177
 8022TIP3    H248262  -3.124  -1.841  -4.142 -1.6169 -0.3217 -0.0636
 8023TIP3   OH248263   3.100   2.602  -2.491  0.3466  0.3318  0.4053
 8023TIP3    H148264   3.192   2.620  -2.473  0.3049  0.7509  0.2035
 8023TIP3    H248265   3.056   2.618  -2.407  0.2535  1.6009  0.1363
 8024TIP3   OH248266   3.179   3.143  -3.791  0.4872  0.0049 -0.2875
 8024TIP3    H148267   3.203   3.072  -3.731  0.9972  0.5909  0.2298
 8024TIP3    H248268   3.258   3.197  -3.796  0.1725  0.4231 -0.8269
 8025TIP3   OH248269  -0.382  -3.003  -5.659 -0.1724  0.3444  0.1218
 8025TIP3    H148270  -0.329  -3.080  -5.677  0.3003  0.5388  0.6537
 8025TIP3    H248271  -0.324  -2.929  -5.675 -0.2147  0.5555  0.8826
 8026TIP3   OH248272  -0.591  -0.837  -3.450  0.3767 -0.7734 -0.0624
 8026TIP3    H148273  -0.576  -0.886  -3.530  1.2680  0.6454 -0.8157
 8026TIP3    H248274  -0.506  -0.834  -3.407  0.5312  0.6832 -0.4055
 8027TIP3   OH248275   2.066  -1.183  -4.363  0.1549  0.5820  0.5585
 8027TIP3    H148276   2.012  -1.199  -4.440 -0.5854  0.1191  1.1667
 8027TIP3    H248277   2.007  -1.192  -4.289  1.1269 -0.2716  1.2628
 8028TIP3   OH248278   0.157  -3.027  -3.696  0.1251 -0.2183 -0.0413
 8028TIP3    H148279   0.108  -3.089  -3.750  0.5506  0.2327 -0.9538
 8028TIP3    H248280   0.100  -2.950  -3.691 -0.2920 -0.5651  0.8852
 8029TIP3   OH248281   0.577  -1.741  -3.925 -0.8253  0.1099 -0.0854
 8029TIP3    H148282   0.537  -1.827  -3.938 -1.7481  0.6456 -0.9409
 8029TIP3    H248283   0.504  -1.685  -3.899 -0.3276  0.7471 -0.0504
 8030TIP3   OH248284  -2.020  -2.284  -3.030  1.0339 -0.9256 -0.0967
 8030TIP3    H148285  -1.932  -2.306  -2.999  1.0149  0.5026  1.0560
 8030TIP3    H248286  -2.019  -2.189  -3.043 -0.4058 -0.8353  0.1962
 8031TIP3   OH248287  -3.252  -1.010  -4.672 -0.2686 -0.5905 -0.1251
 8031TIP3    H148288  -3.206  -0.963  -4.603 -0.5263  1.8615 -1.5074
 8031TIP3    H248289  -3.343  -1.014  -4.641 -0.1845 -0.4193  0.1488
 8032TIP3   OH248290   1.012  -1.073  -4.156  0.1101 -0.0516 -0.1171
 8032TIP3    H148291   1.001  -1.040  -4.067  1.2261 -0.7788  0.3052
 8032TIP3    H248292   0.932  -1.121  -4.174  0.9880 -2.3146  1.5805
 8033TIP3   OH248293  -1.378  -2.144  -1.887 -0.3232 -0.0716  0.6840
 8033TIP3    H148294  -1.288  -2.155  -1.918  0.1224 -2.7943  2.5847
 8033TIP3    H248295  -1.370  -2.090  -1.808 -0.7875  2.0437 -0.6235
 8034TIP3   OH248296  -0.260   1.385  -3.394 -0.1857  0.7360  0.4258
 8034TIP3    H148297  -0.222   1.421  -3.314  0.3978 -0.3877  0.6730
 8034TIP3    H248298  -0.189   1.334  -3.433 -0.1158  2.0972 -1.3629
 8035TIP3   OH248299   2.946  -0.203  -4.703 -0.7652  0.1511 -0.3048
 8035TIP3    H148300   2.904  -0.219  -4.788  0.0586  0.7861 -0.8601
 8035TIP3    H248301   2.944  -0.108  -4.693  0.1082  0.1644 -0.1357
 8036TIP3   OH248302  -1.732   1.516  -2.784  0.1090 -0.1689  0.0494
 8036TIP3    H148303  -1.656   1.571  -2.767  1.3703 -0.9440 -2.4703
 8036TIP3    H248304  -1.726   1.445  -2.721  0.5530  0.6332  0.9188
 8037TIP3   OH248305   1.196   1.935  -4.704  0.0683 -0.1416 -0.3784
 8037TIP3    H148306   1.199   1.899  -4.793 -2.5498 -1.7088  0.0637
 8037TIP3    H248307   1.126   2.000  -4.707 -0.7370 -0.9274  0.7527
 8038TIP3   OH248308  -0.607  -2.367  -4.103 -0.3596  0.1414  0.2805
 8038TIP3    H148309  -0.701  -2.369  -4.118 -0.2719  0.3624 -0.3204
 8038TIP3    H248310  -0.584  -2.273  -4.104 -0.0904  0.0758  0.1246
 8039TIP3   OH248311   1.131  -3.012  -2.337  0.1091  0.4964 -0.1273
 8039TIP3    H148312   1.211  -3.062  -2.354 -0.7748 -0.7836 -0.6673
 8039TIP3    H248313   1.125  -3.007  -2.241  0.8192  0.6004 -0.0830
 8040TIP3   OH248314  -2.416   2.516  -2.369 -0.4524  0.8716  0.3186
 8040TIP3    H148315  -2.357   2.509  -2.295  1.0248  2.0967 -0.6787
 8040TIP3    H248316  -2.376   2.582  -2.426 -1.6026  0.0840 -1.5066
 8041TIP3   OH248317   1.324  -1.395  -2.369  0.3026 -0.0938  0.2362
 8041TIP3    H148318   1.272  -1.455  -2.315  0.1135 -0.0626  0.0914
 8041TIP3    H248319   1.362  -1.451  -2.436  1.2668 -0.2805  0.9247
 8042TIP3   OH248320  -0.021   0.138  -4.971  0.3750 -0.3974 -0.5971
 8042TIP3    H148321   0.038   0.207  -5.000 -1.0990  0.5788 -1.4338
 8042TIP3    H248322  -0.085   0.183  -4.916  0.0379 -1.3051 -0.2337
 8043TIP3   OH248323  -2.974   2.689  -6.042  0.0576  0.0418  0.0624
 8043TIP3    H148324  -2.953   2.712  -6.132  0.6219  1.3420  0.4916
 8043TIP3    H248325  -2.918   2.747  -5.989 -1.3417  0.3643  1.2460
 8044TIP3   OH248326   0.696  -0.339  -3.288  0.5921 -0.5108  0.5269
 8044TIP3    H148327   0.632  -0.308  -3.224  0.8929 -1.7859  1.4948
 8044TIP3    H248328   0.661  -0.313  -3.373 -1.4505 -1.5959  0.9870
 8045TIP3   OH248329  -0.434  -2.284  -4.422  0.1830 -0.3849  0.2744
 8045TIP3    H148330  -0.371  -2.354  -4.442  0.8690 -0.4243  2.4085
 8045TIP3    H248331  -0.435  -2.279  -4.327  0.4672  2.8182  0.2001
 8046TIP3   OH248332  -1.940  -3.310  -3.328  0.1807 -0.5389 -0.1512
 8046TIP3    H148333  -1.941  -3.405  -3.331 -0.0100 -0.5508  0.2115
 8046TIP3    H248334  -1.919  -3.283  -3.417 -2.5094 -0.8526 -0.9493
 8047TIP3   OH248335  -3.305  -2.347  -2.157  0.9121  0.0249 -0.0276
 8047TIP3    H148336  -3.354  -2.402  -2.097  1.0387  0.4845  0.5018
 8047TIP3    H248337  -3.359  -2.342  -2.236  0.7562 -0.5966  0.0392
 8048TIP3   OH248338  -0.916  -2.799  -3.699  0.2604 -0.1103 -0.6368
 8048TIP3    H148339  -0.927  -2.751  -3.781  1.4333 -0.7365 -1.1758
 8048TIP3    H248340  -0.893  -2.888  -3.725 -1.5842 -0.9417  0.3611
 8049TIP3   OH248341  -1.766   0.666  -2.919 -0.8587 -0.1450 -0.4026
 8049TIP3    H148342  -1.800   0.728  -2.855 -0.1926 -2.1142  1.9913
 8049TIP3    H248343  -1.838   0.655  -2.981 -0.7385  3.4897 -1.4297
 8050TIP3   OH248344   1.312   1.821  -3.090  0.4773 -0.3349  0.3731
 8050TIP3    H148345   1.362   1.833  -3.171  0.7759  1.2749  0.7681
 8050TIP3    H248346   1.375   1.837  -3.020  0.0102 -0.8166  0.9149
 8051TIP3   OH248347  -0.379  -0.525  -4.344  0.3750  0.1636  0.1827
 8051TIP3    H148348  -0.285  -0.543  -4.339  0.1165 -1.2314  0.4462
 8051TIP3    H248349  -0.386  -0.450  -4.403  1.4378 -1.7900 -2.6488
 8052TIP3   OH248350  -0.248   2.354  -3.959  0.2522  0.1043  0.3738
 8052TIP3    H148351  -0.156   2.380  -3.955  0.0647  1.1486 -1.0799
 8052TIP3    H248352  -0.264   2.308  -3.877  1.6324  1.3221  1.3672
 8053TIP3   OH248353   3.235  -1.310  -3.784 -0.4196  0.2016  0.0922
 8053TIP3    H148354   3.208  -1.254  -3.858  0.0735 -0.9677 -1.0026
 8053TIP3    H248355   3.213  -1.399  -3.812  1.4606 -0.4547  0.5631
 8054TIP3   OH248356   0.453  -3.266  -4.615 -0.7137  0.1847  0.2895
 8054TIP3    H148357   0.531  -3.230  -4.572 -1.0306  1.5852 -0.2815
 8054TIP3    H248358   0.423  -3.335  -4.555  1.6160 -1.2217 -0.0129
 8055TIP3   OH248359  -0.766  -0.107  -5.738  0.0386 -0.0039 -0.4697
 8055TIP3    H148360  -0.823  -0.162  -5.684  0.9007  0.4526  0.9944
 8055TIP3    H248361  -0.683  -0.104  -5.689  0.7132  0.8168 -1.6062
 8056TIP3   OH248362  -1.915  -2.944  -5.126 -0.1065 -0.3226  0.0019
 8056TIP3    H148363  -1.897  -2.872  -5.066 -1.7874 -0.0817  0.2584
 8056TIP3    H248364  -1.885  -2.911  -5.211 -0.2000  0.3976  0.2399
 8057TIP3   OH248365   0.708  -0.176  -4.097  0.2650 -0.3942 -0.0407
 8057TIP3    H148366   0.741  -0.233  -4.166 -1.0603  0.0475 -1.0878
 8057TIP3    H248367   0.768  -0.101  -4.097 -0.5138  0.2909 -1.7587
 8058TIP3   OH248368   0.002   0.531  -4.132  0.2154  0.3713  0.0365
 8058TIP3    H148369  -0.025   0.548  -4.222 -0.6954 -0.7501  0.0804
 8058TIP3    H248370   0.092   0.564  -4.128  0.0225  1.0958 -1.0701
 8059TIP3   OH248371  -1.613  -1.814  -5.813 -0.4078 -0.0391  0.4695
 8059TIP3    H148372  -1.636  -1.737  -5.762 -0.0932  0.1251  0.3708
 8059TIP3    H248373  -1.688  -1.829  -5.870  0.2348  1.2810 -0.7961
 8060TIP3   OH248374  -2.543  -1.579  -3.909  0.6025 -0.2215 -0.3079
 8060TIP3    H148375  -2.564  -1.542  -3.995 -0.4944  0.1044  0.0840
 8060TIP3    H248376  -2.505  -1.506  -3.860  1.2729 -0.4201 -0.5295
 8061TIP3   OH248377   2.793  -2.356  -5.454  0.0987  0.4488 -0.3806
 8061TIP3    H148378   2.834  -2.270  -5.453 -1.4026  1.2415  1.9752
 8061TIP3    H248379   2.707  -2.341  -5.494 -0.4893  0.2605  0.7695
 8062TIP3   OH248380   3.117   2.689  -3.089  0.1354 -0.0296 -0.1784
 8062TIP3    H148381   3.127   2.655  -3.000  1.4863  0.6845 -0.0275
 8062TIP3    H248382   3.206   2.699  -3.121 -0.2961  0.8779 -1.1624
 8063TIP3   OH248383   2.584   3.047  -3.574  0.2274  0.0917  0.4768
 8063TIP3    H148384   2.599   3.007  -3.659  0.5732 -2.1141  1.4895
 8063TIP3    H248385   2.543   3.131  -3.593 -0.4912 -0.7128 -1.8110
 8064TIP3   OH248386   3.036  -2.135  -4.839 -0.3444 -0.4228 -0.1089
 8064TIP3    H148387   3.112  -2.177  -4.799  0.4861 -0.0145 -1.1981
 8064TIP3    H248388   2.965  -2.198  -4.828  0.6776 -1.8009 -0.9908
 8065TIP3   OH248389  -0.364  -1.876  -2.992  0.1428 -0.1001  0.2137
 8065TIP3    H148390  -0.336  -1.797  -3.038 -1.4942  1.0443  1.0456
 8065TIP3    H248391  -0.429  -1.916  -3.050 -1.4362  0.9917  1.1222
 8066TIP3   OH248392  -2.548  -0.413  -3.206  0.4052 -0.9168  0.2608
 8066TIP3    H148393  -2.456  -0.434  -3.224  0.1224 -0.6854 -1.7477
 8066TIP3    H248394  -2.597  -0.483  -3.248 -0.3566 -0.2113 -0.0637
 8067TIP3   OH248395   2.517   1.302  -4.928  0.9691  0.1750  0.3795
 8067TIP3    H148396   2.551   1.390  -4.944 -0.8444  1.0012  0.8045
 8067TIP3    H248397   2.527   1.257  -5.012 -1.4285  2.0138 -1.0364
 8068TIP3   OH248398   1.967   3.069  -3.683 -0.2122 -0.4436  0.4413
 8068TIP3    H148399   1.936   3.048  -3.771  1.8083 -0.0248 -0.4209
 8068TIP3    H248400   2.017   2.992  -3.656  1.5074  0.5059  0.0624
 8069TIP3   OH248401   1.577   1.714  -5.620  0.1735 -0.0756 -0.0306
 8069TIP3    H148402   1.642   1.658  -5.663  0.5080 -0.8852  1.4621
 8069TIP3    H248403   1.628   1.787  -5.586  0.1556 -0.2375  0.3422
 8070TIP3   OH248404   1.139  -2.223  -3.829  0.0980 -0.7542 -0.2581
 8070TIP3    H148405   1.146  -2.160  -3.757  0.7243  0.8515 -1.6608
 8070TIP3    H248406   1.046  -2.240  -3.838 -0.3337  1.7723 -1.2795
 8071TIP3   OH248407   1.818  -1.990  -2.997 -0.0010 -0.7944 -0.4205
 8071TIP3    H148408   1.838  -1.898  -3.015 -1.3267 -0.3287  0.2786
 8071TIP3    H248409   1.765  -2.019  -3.071 -2.1084 -0.0541  0.6914
 8072TIP3   OH248410   0.842  -0.343  -3.916 -0.1259  0.2320 -0.0776
 8072TIP3    H148411   0.783  -0.275  -3.948 -0.9379  0.1008  1.0798
 8072TIP3    H248412   0.826  -0.418  -3.973 -1.6393 -0.0440  0.6527
 8073TIP3   OH248413   1.564  -1.902  -2.703  0.0475 -0.1884  0.0810
 8073TIP3    H148414   1.638  -1.939  -2.655 -0.3627 -0.0779  0.8127
 8073TIP3    H248415   1.491  -1.962  -2.685 -0.5270  0.7274  0.9617
 8074TIP3   OH248416  -2.742  -3.290  -5.441  0.1707 -0.2383  1.0281
 8074TIP3    H148417  -2.709  -3.200  -5.430  0.1838 -0.2639  1.2086
 8074TIP3    H248418  -2.766  -3.317  -5.352 -0.3089 -0.2291  0.9007
 8075TIP3   OH248419  -0.208  -0.017  -2.963  0.1556  0.2427 -0.2009
 8075TIP3    H148420  -0.186  -0.086  -2.901 -1.4948  0.1869  0.3840
 8075TIP3    H248421  -0.149   0.055  -2.942  1.6120 -0.7987 -0.5300
 8076TIP3   OH248422  -1.995   2.140  -5.188  0.5704 -0.3329 -0.4174
 8076TIP3    H148423  -1.900   2.138  -5.200  0.9486  1.2391  1.7626
 8076TIP3    H248424  -2.030   2.109  -5.271  3.0102 -4.0649 -0.3076
 8077TIP3   OH248425  -1.631  -2.130  -2.776  0.6869  0.5779  0.2693
 8077TIP3    H148426  -1.653  -2.149  -2.684  0.6980 -1.4759 -0.0961
 8077TIP3    H248427  -1.563  -2.194  -2.797  1.0899  1.4066 -1.0176
 8078TIP3   OH248428   1.178   1.786  -4.949 -0.0616 -0.3242 -0.0442
 8078TIP3    H148429   1.107   1.772  -5.012 -0.1602 -1.2535  0.2679
 8078TIP3    H248430   1.176   1.709  -4.892 -0.0522  0.5350  1.1719
 8079TIP3   OH248431   0.782   1.133  -5.371 -0.3594 -0.0998  0.0820
 8079TIP3    H148432   0.769   1.116  -5.277  1.7681 -0.2306  0.3957
 8079TIP3    H248433   0.790   1.047  -5.410 -2.3989 -0.0877 -0.4541
 8080TIP3   OH248434   0.263   0.568  -2.817  0.0204 -0.3086 -0.0498
 8080TIP3    H148435   0.234   0.623  -2.745 -1.0184  0.1083 -0.7725
 8080TIP3    H248436   0.184   0.523  -2.847  0.4514 -0.5300 -0.8917
 8081TIP3   OH248437   0.145   0.320  -5.403  0.4962  0.2630  0.5706
 8081TIP3    H148438   0.098   0.395  -5.365  0.2228  0.7328 -0.6447
 8081TIP3    H248439   0.080   0.277  -5.459  0.8143 -0.5779  0.8333
 8082TIP3   OH248440   0.088  -2.850  -4.658 -0.1241 -0.0029 -0.0112
 8082TIP3    H148441   0.143  -2.911  -4.609  2.0757  1.8787 -0.0004
 8082TIP3    H248442   0.095  -2.879  -4.749 -1.3569 -1.3716  0.2919
 8083TIP3   OH248443  -1.946   1.302  -3.271 -0.3206 -0.5518 -0.2086
 8083TIP3    H148444  -2.031   1.345  -3.262 -0.0223 -0.1452  0.7459
 8083TIP3    H248445  -1.885   1.360  -3.227  0.0635 -2.0342  1.3183
 8084TIP3   OH248446  -3.009  -0.156  -2.975  0.1235  0.0124 -0.4996
 8084TIP3    H148447  -3.080  -0.149  -2.911  0.1456 -1.1816 -0.3067
 8084TIP3    H248448  -2.943  -0.210  -2.931  0.6027  0.0726 -1.1321
 8085TIP3   OH248449   2.628  -1.604  -3.273 -0.5596  0.6664 -0.1060
 8085TIP3    H148450   2.703  -1.575  -3.220  0.3729 -0.1439 -0.9283
 8085TIP3    H248451   2.572  -1.651  -3.211 -0.6154  1.6665  0.6159
 8086TIP3   OH248452  -0.878  -1.836  -4.454 -0.7679  0.0926 -0.3700
 8086TIP3    H148453  -0.914  -1.791  -4.531 -1.4282 -1.2528 -0.8844
 8086TIP3    H248454  -0.944  -1.902  -4.432  0.7532 -1.5658 -0.5140
 8087TIP3   OH248455   2.739  -2.417  -5.189 -0.3602  0.1816 -0.3422
 8087TIP3    H148456   2.769  -2.384  -5.274 -0.4883  2.1113  0.3153
 8087TIP3    H248457   2.667  -2.476  -5.211 -0.8600  1.1891 -1.5642
 8088TIP3   OH248458   1.525  -0.451  -3.667 -0.0609 -0.3193 -0.1886
 8088TIP3    H148459   1.488  -0.392  -3.601 -1.0430 -0.0435 -0.9524
 8088TIP3    H248460   1.610  -0.413  -3.689  0.3015 -0.4448  0.9357
 8089TIP3   OH248461  -0.822  -2.510  -4.224  0.2136 -0.4554 -0.0686
 8089TIP3    H148462  -0.859  -2.595  -4.249 -0.9949  0.0979 -0.1982
 8089TIP3    H248463  -0.842  -2.452  -4.297 -1.7638  0.7273  1.3211
 8090TIP3   OH248464   3.176  -1.702  -4.480  0.2448 -0.0704  0.6256
 8090TIP3    H148465   3.213  -1.686  -4.393  0.3477  1.8503  0.2626
 8090TIP3    H248466   3.245  -1.751  -4.526  0.8640  0.3297  1.1009
 8091TIP3   OH248467   1.415  -0.925  -3.504  0.2012 -0.2590 -0.3846
 8091TIP3    H148468   1.498  -0.965  -3.481 -1.0068 -3.1215 -0.6368
 8091TIP3    H248469   1.363  -0.928  -3.424 -0.1379  0.2711 -0.5729
 8092TIP3   OH248470  -0.660   3.026  -5.942  0.2505  0.0447  0.7041
 8092TIP3    H148471  -0.725   2.979  -5.995 -2.7178  2.7729  1.5810
 8092TIP3    H248472  -0.605   2.958  -5.905 -1.0236 -2.3444 -1.4811
 8093TIP3   OH248473  -0.986  -1.020  -5.358  0.3734 -0.2329  0.3496
 8093TIP3    H148474  -1.040  -1.036  -5.436  0.6371  0.2432  0.0612
 8093TIP3    H248475  -0.903  -1.063  -5.378  0.4761 -0.0252  0.3204
 8094TIP3   OH248476   2.969  -2.707  -5.343 -0.2530 -0.1212  0.8138
 8094TIP3    H148477   2.912  -2.693  -5.268 -0.0380  0.1391  0.9299
 8094TIP3    H248478   3.057  -2.688  -5.311  0.1394 -2.2201  1.1198
 8095TIP3   OH248479  -1.256  -0.328  -2.816  0.1777  0.2529  0.0292
 8095TIP3    H148480  -1.193  -0.345  -2.746  0.9113 -2.7344 -1.1876
 8095TIP3    H248481  -1.202  -0.320  -2.895 -0.8131  0.0902 -0.6840
 8096TIP3   OH248482  -0.221   2.583  -2.407 -0.1958 -0.1215  0.0086
 8096TIP3    H148483  -0.137   2.572  -2.452 -0.2378  1.2702 -0.4562
 8096TIP3    H248484  -0.258   2.663  -2.443 -1.9687 -0.9494 -0.1237
 8097TIP3   OH248485   2.002   2.991  -5.509  0.4384  0.0587  0.5825
 8097TIP3    H148486   1.971   3.081  -5.500 -0.5831 -0.4189  2.1045
 8097TIP3    H248487   2.081   2.988  -5.456  0.5457  0.0939  0.4246
 8098TIP3   OH248488  -1.810  -2.118  -5.488 -0.7885 -0.0046  0.0059
 8098TIP3    H148489  -1.815  -2.129  -5.393 -2.0876  0.3278 -0.0154
 8098TIP3    H248490  -1.738  -2.176  -5.514 -0.3291 -0.0105  1.1965
 8099TIP3   OH248491   0.995   1.211  -4.506 -0.1154 -0.1465 -0.3612
 8099TIP3    H148492   1.067   1.225  -4.445  0.6838  3.4434 -1.8624
 8099TIP3    H248493   0.917   1.208  -4.451  0.7002  1.5146  0.9755
 8100TIP3   OH248494  -2.296   3.214  -3.386 -0.1439  0.2163  0.9121
 8100TIP3    H148495  -2.366   3.203  -3.450 -0.9719  2.5037  1.3174
 8100TIP3    H248496  -2.333   3.184  -3.304  0.5556 -1.7170  0.5679
 8101TIP3   OH248497  -0.170   2.592  -5.671  0.1072  0.1019  0.3741
 8101TIP3    H148498  -0.115   2.537  -5.727 -0.8804  0.5004 -1.0403
 8101TIP3    H248499  -0.109   2.655  -5.633  0.8037 -0.1456 -0.2988
 8102TIP3   OH248500  -0.645   2.556  -4.287  0.2554 -0.2151 -0.0946
 8102TIP3    H148501  -0.704   2.482  -4.273 -1.4205  1.2246  0.6921
 8102TIP3    H248502  -0.567   2.534  -4.236 -0.7594 -0.8206  1.2477
 8103TIP3   OH248503  -0.621  -2.124  -2.924 -0.0730  0.6061 -0.4504
 8103TIP3    H148504  -0.633  -2.104  -3.017 -0.5238  2.3162 -0.0643
 8103TIP3    H248505  -0.619  -2.220  -2.920 -1.3823  0.4595 -2.0553
 8104TIP3   OH248506   0.721   2.400  -3.214 -0.1865 -0.0613 -0.1684
 8104TIP3    H148507   0.792   2.431  -3.270 -1.3459  0.5242 -1.3584
 8104TIP3    H248508   0.756   2.320  -3.174  0.9008 -0.1552 -1.2377
 8105TIP3   OH248509   1.844   1.982  -4.276  0.0257  0.1060 -0.6645
 8105TIP3    H148510   1.827   2.066  -4.320 -1.7826 -0.8427 -1.9151
 8105TIP3    H248511   1.760   1.960  -4.235  0.7275 -0.6988  0.3720
 8106TIP3   OH248512   0.931   0.588  -4.595 -0.0283 -0.4207  0.4767
 8106TIP3    H148513   1.025   0.598  -4.579  0.2693 -0.6755 -1.0044
 8106TIP3    H248514   0.924   0.509  -4.649 -1.0270 -0.0094 -0.0212
 8107TIP3   OH248515   0.510  -0.396  -5.478 -0.3283  0.1115  0.0459
 8107TIP3    H148516   0.474  -0.332  -5.416 -0.7501  0.2335 -0.3231
 8107TIP3    H248517   0.601  -0.368  -5.490 -0.5769  0.7937 -0.3017
 8108TIP3   OH248518  -1.317   1.339  -3.463 -0.2933 -0.0186  0.3429
 8108TIP3    H148519  -1.281   1.403  -3.402 -1.1730 -1.7520  2.8455
 8108TIP3    H248520  -1.256   1.266  -3.459  1.6319  1.0833 -3.7556
 8109TIP3   OH248521   2.167   3.283  -4.524  0.1168 -0.6294  0.8112
 8109TIP3    H148522   2.194   3.331  -4.602 -1.0418 -1.9553 -0.4689
 8109TIP3    H248523   2.120   3.348  -4.471  0.8535  0.2739  0.3862
 8110TIP3   OH248524   0.948  -0.348  -2.751 -1.0166 -0.0868  0.2286
 8110TIP3    H148525   1.016  -0.398  -2.796  0.7099  2.2532  0.0648
 8110TIP3    H248526   0.957  -0.373  -2.659 -1.5926 -1.5636 -0.0805
 8111TIP3   OH248527  -1.046   2.917  -2.587 -0.1836 -0.1786 -1.1645
 8111TIP3    H148528  -1.079   2.916  -2.497  1.1775 -1.2926 -0.6469
 8111TIP3    H248529  -1.023   3.009  -2.602  0.4222 -0.1309 -0.0485
 8112TIP3   OH248530  -0.004  -1.010  -3.952 -0.6187  0.7561 -0.5679
 8112TIP3    H148531  -0.088  -1.001  -3.906 -1.0573 -0.8218 -1.0069
 8112TIP3    H248532   0.061  -0.988  -3.886 -1.3243  0.4685  0.2495
 8113TIP3   OH248533  -1.520   1.990  -2.721 -0.3541 -0.3275  0.0321
 8113TIP3    H148534  -1.608   2.002  -2.685 -0.4097  0.0142 -0.2195
 8113TIP3    H248535  -1.490   2.078  -2.741 -0.6598 -0.5523 -1.5738
 8114TIP3   OH248536  -2.794  -0.825  -4.112  0.4567 -0.4030 -0.1277
 8114TIP3    H148537  -2.711  -0.780  -4.098 -0.0430  0.2000  1.0226
 8114TIP3    H248538  -2.842  -0.768  -4.173  1.2051 -1.1998 -1.5148
 8115TIP3   OH248539   0.430  -1.798  -4.249  0.1284 -0.0335  0.4460
 8115TIP3    H148540   0.392  -1.880  -4.280 -0.3937  0.1846  0.4902
 8115TIP3    H248541   0.523  -1.804  -4.271  0.0326 -0.4973  0.1594
 8116TIP3   OH248542   0.793  -1.932  -3.556 -0.1538  0.0737  0.0417
 8116TIP3    H148543   0.722  -1.987  -3.587  0.7604 -1.0636 -0.0900
 8116TIP3    H248544   0.825  -1.887  -3.634 -0.5641  0.4019  0.0607
 8117TIP3   OH248545   2.895  -2.730  -3.023 -0.1962 -0.5570  0.1245
 8117TIP3    H148546   2.978  -2.744  -2.978  0.9547  1.6785 -1.1278
 8117TIP3    H248547   2.910  -2.655  -3.080 -2.9788 -0.3170 -0.4775
 8118TIP3   OH248548   1.893  -3.158  -5.333  0.4136  0.1185 -0.0022
 8118TIP3    H148549   1.834  -3.155  -5.409  1.2561 -0.9894 -0.7323
 8118TIP3    H248550   1.981  -3.166  -5.372  1.1495  2.2673  1.0371
 8119TIP3   OH248551   2.187  -3.237  -4.713 -0.0317 -0.4373  0.3661
 8119TIP3    H148552   2.258  -3.242  -4.776 -0.8457 -0.1323 -0.5966
 8119TIP3    H248553   2.139  -3.157  -4.736 -1.1294 -1.0308  0.5004
 8120TIP3   OH248554  -0.762  -3.058  -3.374 -0.5231 -0.1250  0.2311
 8120TIP3    H148555  -0.751  -3.114  -3.297 -0.9128 -2.7659 -1.5283
 8120TIP3    H248556  -0.673  -3.037  -3.401 -0.1603 -2.9333 -1.0917
 8121TIP3   OH248557   2.410  -3.248  -4.963  0.2424 -0.2994  0.0661
 8121TIP3    H148558   2.387  -3.281  -5.050  0.5786  2.8082 -1.3150
 8121TIP3    H248559   2.496  -3.287  -4.945 -0.2062 -1.6418 -0.5601
 8122TIP3   OH248560  -0.261  -0.811   2.570 -0.0198 -0.1111 -0.6114
 8122TIP3    H148561  -0.309  -0.812   2.488 -0.2328  0.4494 -0.4927
 8122TIP3    H248562  -0.185  -0.867   2.554 -0.4286 -0.5702 -0.9626
 8123TIP3   OH248563  -0.800   1.573  -5.592  0.2113 -0.3609  0.1005
 8123TIP3    H148564  -0.840   1.514  -5.528 -0.3009  0.7954  0.8920
 8123TIP3    H248565  -0.711   1.541  -5.603 -0.6011 -2.4115 -0.9481
 8124TIP3   OH248566  -3.111   2.111  -3.432 -0.0026  0.0167  0.0675
 8124TIP3    H148567  -3.079   2.187  -3.480  0.6844  0.1459  0.7098
 8124TIP3    H248568  -3.055   2.039  -3.463 -0.1882 -0.0857 -0.0276
 8125TIP3   OH248569   2.980   3.097  -5.020 -0.0542 -0.2911  0.2175
 8125TIP3    H148570   3.050   3.158  -4.997 -0.1123 -0.1936  0.1413
 8125TIP3    H248571   3.025   3.015  -5.043 -0.1074 -1.2338  3.1317
 8126TIP3   OH248572   0.882   1.865  -4.089  0.7130 -0.4948  0.5094
 8126TIP3    H148573   0.962   1.884  -4.139  0.8080  1.1057  1.2022
 8126TIP3    H248574   0.876   1.937  -4.025 -1.9528  0.1770 -0.3534
 8127TIP3   OH248575  -3.334  -2.275  -5.446  0.2422 -0.5348  0.0361
 8127TIP3    H148576  -3.421  -2.280  -5.486  0.4484  1.2998 -0.7382
 8127TIP3    H248577  -3.317  -2.364  -5.416 -1.1205 -1.3647 -1.4598
 8128TIP3   OH248578  -2.470   2.748  -2.701  0.0391  0.0144 -0.2347
 8128TIP3    H148579  -2.502   2.682  -2.639 -0.1837  0.1704 -0.1843
 8128TIP3    H248580  -2.426   2.697  -2.769 -0.3811 -0.2126 -0.3447
 8129TIP3   OH248581  -1.378   2.744  -3.891 -0.1651 -0.0814 -0.6833
 8129TIP3    H148582  -1.434   2.732  -3.814 -2.6353  0.1939 -2.3023
 8129TIP3    H248583  -1.349   2.835  -3.886  1.1201 -0.5405  0.7566
 8130TIP3   OH248584   2.395   0.126  -3.447 -0.6560  0.3523 -0.4577
 8130TIP3    H148585   2.343   0.050  -3.472 -0.1504 -0.4318  0.8130
 8130TIP3    H248586   2.458   0.137  -3.519  0.5995 -1.7024  0.2398
 8131TIP3   OH248587   2.798   0.453  -5.628  0.1690  0.4858 -0.1109
 8131TIP3    H148588   2.716   0.457  -5.579  0.3437 -0.2726  0.2620
 8131TIP3    H248589   2.813   0.359  -5.641  0.8283  0.6316 -0.4265
 8132TIP3   OH248590  -0.445   2.353  -2.239  0.0670 -0.2999 -0.0968
 8132TIP3    H148591  -0.415   2.262  -2.227 -0.0066 -0.3726 -0.4392
 8132TIP3    H248592  -0.364   2.403  -2.250  0.0701 -0.6432 -2.0060
 8133TIP3   OH248593  -2.713  -2.936  -2.864 -0.2877 -0.2671 -0.6432
 8133TIP3    H148594  -2.727  -2.871  -2.933  0.5388 -0.0391 -0.6088
 8133TIP3    H248595  -2.623  -2.922  -2.836 -0.2338 -1.1589 -0.3402
 8134TIP3   OH248596  -2.743  -2.183   4.927 -1.0101  0.0393  0.4123
 8134TIP3    H148597  -2.780  -2.192   5.015 -2.1628  1.2413  0.0821
 8134TIP3    H248598  -2.710  -2.094   4.923 -1.9634  0.3693 -0.7167
 8135TIP3   OH248599  -2.421   0.467  -4.605 -0.2119  0.0621 -0.2379
 8135TIP3    H148600  -2.337   0.427  -4.628  0.3874  0.2209  1.5797
 8135TIP3    H248601  -2.398   0.552  -4.569 -1.1889  0.2984 -0.1486
 8136TIP3   OH248602   0.385  -2.808  -4.409 -0.2439 -0.0658  0.2172
 8136TIP3    H148603   0.453  -2.742  -4.399 -0.9045  0.5348  0.8608
 8136TIP3    H248604   0.431  -2.886  -4.441  0.5466  0.6953 -0.5539
 8137TIP3   OH248605   2.908  -2.953  -5.563  0.4287 -0.4913 -0.0448
 8137TIP3    H148606   2.883  -3.044  -5.577  1.5556 -1.0805  1.4618
 8137TIP3    H248607   2.826  -2.907  -5.547 -0.2562 -1.0025 -1.8851
 8138TIP3   OH248608   2.437   2.621  -6.065 -0.0703  0.5925  0.2861
 8138TIP3    H148609   2.401   2.661  -6.145 -0.1037  0.6910  0.3496
 8138TIP3    H248610   2.367   2.562  -6.035 -0.5797  1.4975  0.9382
 8139TIP3   OH248611   1.595  -0.157  -5.308 -0.3377  0.3364  0.0617
 8139TIP3    H148612   1.530  -0.227  -5.304 -0.8133  0.7580 -0.0289
 8139TIP3    H248613   1.566  -0.103  -5.381  0.2821  0.3755 -0.1563
 8140TIP3   OH248614  -0.893  -0.990  -4.556  0.8399 -0.0497 -0.2751
 8140TIP3    H148615  -0.934  -0.905  -4.567 -0.5303 -0.7589 -0.9231
 8140TIP3    H248616  -0.799  -0.973  -4.565  0.5530  1.2997 -0.9606
 8141TIP3   OH248617  -1.542   3.023  -5.453  0.0643  0.3747 -0.5171
 8141TIP3    H148618  -1.471   3.016  -5.518 -0.6875 -1.9448 -1.1971
 8141TIP3    H248619  -1.497   3.042  -5.371  1.1671  2.0127 -1.4525
 8142TIP3   OH248620   2.543  -1.508  -4.748  0.1909  0.0966 -0.3224
 8142TIP3    H148621   2.572  -1.565  -4.677  0.2216  0.1421 -0.2977
 8142TIP3    H248622   2.479  -1.449  -4.707 -1.0911 -0.9817 -0.7040
 8143TIP3   OH248623  -2.277  -0.010  -5.088  0.6614  0.1119  0.5918
 8143TIP3    H148624  -2.269   0.053  -5.017 -0.7279  0.6807  0.2625
 8143TIP3    H248625  -2.342   0.028  -5.148 -1.2298 -2.1906  1.0306
 8144TIP3   OH248626  -2.673  -0.439  -3.645  0.2490  0.5440  0.3790
 8144TIP3    H148627  -2.656  -0.513  -3.587 -0.2382  0.5691  0.5622
 8144TIP3    H248628  -2.741  -0.389  -3.600  0.3527  0.9332  0.1088
 8145TIP3   OH248629  -0.604  -1.886  -4.451  0.3169 -0.3272  0.3863
 8145TIP3    H148630  -0.700  -1.880  -4.450  0.3747  1.8473 -0.4672
 8145TIP3    H248631  -0.584  -1.929  -4.534  0.0795  1.5233 -0.6900
 8146TIP3   OH248632   3.345  -3.227  -5.031 -0.1363  0.4196  0.1634
 8146TIP3    H148633   3.354  -3.312  -5.074  0.8448  0.8434 -0.5034
 8146TIP3    H248634   3.295  -3.175  -5.093  2.7480  1.5780 -1.3770
 8147TIP3   OH248635  -0.226  -0.618  -3.280 -0.3294 -0.0280 -0.3351
 8147TIP3    H148636  -0.263  -0.706  -3.285  2.5080 -1.3373 -0.0679
 8147TIP3    H248637  -0.150  -0.628  -3.222  0.2432  2.5483 -0.5576
 8148TIP3   OH248638   0.694  -0.549  -4.463  0.2168  0.1366  0.5443
 8148TIP3    H148639   0.636  -0.527  -4.390 -2.9979  1.2236 -2.0458
 8148TIP3    H248640   0.731  -0.465  -4.489  0.8317 -0.1372  0.5365
 8149TIP3   OH248641  -2.355   2.069  -4.919 -0.3928  0.0688  0.2614
 8149TIP3    H148642  -2.440   2.032  -4.941  0.7263 -1.1964 -2.3367
 8149TIP3    H248643  -2.345   2.052  -4.825 -2.0814 -1.6992  0.1860
 8150TIP3   OH248644   2.884  -1.323  -5.338 -0.5687  0.2427 -0.3610
 8150TIP3    H148645   2.803  -1.276  -5.358  0.4981  2.0729 -0.6779
 8150TIP3    H248646   2.856  -1.408  -5.304 -2.5880  0.6608 -0.8906
 8151TIP3   OH248647   3.268   3.138  -4.862 -0.2105  0.5033 -0.2040
 8151TIP3    H148648   3.324   3.061  -4.852 -0.8433  0.0975  0.2466
 8151TIP3    H248649   3.317   3.208  -4.819  0.9849  0.6738 -1.7806
 8152TIP3   OH248650  -2.108  -2.115  -3.426 -0.3350  0.1645  0.3705
 8152TIP3    H148651  -2.153  -2.091  -3.507  0.1538  1.5146  0.4773
 8152TIP3    H248652  -2.153  -2.065  -3.358  0.9479  1.1084  0.5512
 8153TIP3   OH248653  -2.472   1.572  -4.929 -0.2289  0.2877  0.1480
 8153TIP3    H148654  -2.482   1.660  -4.963  2.1395  1.2274  1.6422
 8153TIP3    H248655  -2.532   1.567  -4.854  1.3431  1.5524  1.5618
 8154TIP3   OH248656  -3.220  -1.223  -5.666  0.6772  0.2294  0.1450
 8154TIP3    H148657  -3.293  -1.263  -5.618  0.9237 -0.6923 -0.2395
 8154TIP3    H248658  -3.143  -1.271  -5.636  1.0782  0.9210  0.2355
 8155TIP3   OH248659  -2.943  -1.976  -3.209 -0.4536 -0.3290  0.1895
 8155TIP3    H148660  -3.025  -1.930  -3.188 -0.4631 -0.2125 -0.1010
 8155TIP3    H248661  -2.928  -1.958  -3.302 -0.4871 -0.9683  0.0589
 8156TIP3   OH248662  -0.145   1.051  -5.290 -0.4149 -0.2584 -0.0423
 8156TIP3    H148663  -0.072   1.000  -5.255  0.7688 -0.0184 -2.0340
 8156TIP3    H248664  -0.105   1.130  -5.324 -1.5777 -0.1673 -1.2792
 8157TIP3   OH248665  -2.875   2.581  -3.711  0.0958  0.3685 -0.5419
 8157TIP3    H148666  -2.837   2.493  -3.710  0.2417  0.4318  0.3245
 8157TIP3    H248667  -2.892   2.601  -3.619 -2.1346  0.3167 -0.8905
 8158TIP3   OH248668  -0.607   0.099  -5.318  0.8457 -0.1880 -0.4245
 8158TIP3    H148669  -0.644   0.134  -5.399  1.0809 -0.3543 -0.6031
 8158TIP3    H248670  -0.552   0.026  -5.346  0.0413 -0.9563 -0.0092
 8159TIP3   OH248671  -0.532  -2.292  -1.706 -0.4687  0.3334 -0.3694
 8159TIP3    H148672  -0.451  -2.340  -1.691 -0.7073  0.3565  1.0975
 8159TIP3    H248673  -0.504  -2.209  -1.744  0.1417  0.0609 -0.5274
 8160TIP3   OH248674  -3.102  -2.873  -4.854  0.2248 -0.5187 -0.1876
 8160TIP3    H148675  -3.137  -2.784  -4.858  2.0544  0.3740  1.6948
 8160TIP3    H248676  -3.057  -2.885  -4.938 -1.5362 -0.4246 -1.2109
 8161TIP3   OH248677  -2.677  -1.539  -4.652 -0.1603 -0.2079 -0.1438
 8161TIP3    H148678  -2.682  -1.503  -4.741  1.7870 -0.0167 -0.2099
 8161TIP3    H248679  -2.620  -1.479  -4.605 -2.4637  0.6494  1.7840
 8162TIP3   OH248680  -3.050   1.756  -2.802  0.3436  0.1332  0.2350
 8162TIP3    H148681  -3.016   1.802  -2.725  0.8579 -1.1338  0.7880
 8162TIP3    H248682  -2.980   1.763  -2.867  0.7122 -0.4522  0.5603
 8163TIP3   OH248683  -0.774  -0.261  -4.298 -0.4412  0.1932  0.2279
 8163TIP3    H148684  -0.821  -0.308  -4.228 -1.5220 -0.8142 -1.1245
 8163TIP3    H248685  -0.691  -0.237  -4.258 -0.7717 -0.9128  1.6833
 8164TIP3   OH248686  -2.697  -1.664  -2.799  0.0365 -0.0323 -0.0388
 8164TIP3    H148687  -2.735  -1.577  -2.798 -1.4650 -0.6366  2.1462
 8164TIP3    H248688  -2.763  -1.720  -2.759  1.5578 -1.9117 -0.0024
 8165TIP3   OH248689  -1.322  -1.545  -5.168 -0.0421 -0.8205 -0.1490
 8165TIP3    H148690  -1.390  -1.490  -5.207  0.7991 -0.5860 -1.3411
 8165TIP3    H248691  -1.306  -1.505  -5.082 -1.2867 -0.8021  0.1029
 8166TIP3   OH248692   2.284  -1.416  -3.589  0.2283 -0.2954 -0.3199
 8166TIP3    H148693   2.361  -1.446  -3.541  0.0150  0.9156  0.8350
 8166TIP3    H248694   2.211  -1.462  -3.549 -0.3241  2.7750  2.6464
 8167TIP3   OH248695   2.841   3.185  -4.574 -0.2897 -0.0110  0.1807
 8167TIP3    H148696   2.817   3.115  -4.634  0.1474 -0.0522  0.0486
 8167TIP3    H248697   2.923   3.220  -4.609  1.4211 -1.7593  2.1437
 8168TIP3   OH248698  -0.587  -2.407  -5.186  0.0374  0.7281 -0.5985
 8168TIP3    H148699  -0.563  -2.420  -5.095  2.1027  0.3705 -1.1422
 8168TIP3    H248700  -0.559  -2.487  -5.230 -2.5708  0.1167 -1.3012
 8169TIP3   OH248701  -2.675  -2.163  -3.897 -0.0043 -0.3543 -0.3373
 8169TIP3    H148702  -2.750  -2.205  -3.938 -1.3498  1.3020  0.3304
 8169TIP3    H248703  -2.689  -2.069  -3.911  2.7651 -0.0089 -1.5921
 8170TIP3   OH248704  -2.424   2.191  -5.527 -0.4527  0.4104  0.2498
 8170TIP3    H148705  -2.470   2.208  -5.444  0.6379 -0.0372  0.9610
 8170TIP3    H248706  -2.407   2.278  -5.563 -1.4115  0.5938  0.2161
 8171TIP3   OH248707   2.601  -2.290  -3.418 -0.5671  0.2080  0.6302
 8171TIP3    H148708   2.612  -2.337  -3.500 -2.9450  0.3696  0.1392
 8171TIP3    H248709   2.680  -2.236  -3.410  0.3768 -0.9095 -0.7825
 8172TIP3   OH248710  -0.052   1.182  -4.135 -0.0818  0.0888 -0.0951
 8172TIP3    H148711  -0.076   1.103  -4.182 -1.8878  0.3400  0.3263
 8172TIP3    H248712  -0.088   1.254  -4.188 -2.5238  0.3597  1.7160
 8173TIP3   OH248713   0.477   0.161  -4.072 -0.3743 -0.2495  0.0769
 8173TIP3    H148714   0.416   0.229  -4.102 -0.4696 -0.5455 -0.3956
 8173TIP3    H248715   0.435   0.125  -3.993 -0.1514  0.4790  0.5357
 8174TIP3   OH248716  -2.368   2.985  -3.850  0.1931  0.3949  0.4322
 8174TIP3    H148717  -2.395   3.051  -3.914 -0.1948  0.1256  0.3144
 8174TIP3    H248718  -2.385   3.026  -3.765  2.3498  1.4529  0.4297
 8175TIP3   OH248719  -2.670  -1.012  -4.283 -0.0970  0.0037  0.1088
 8175TIP3    H148720  -2.709  -0.964  -4.210 -0.1036  1.7641 -1.0092
 8175TIP3    H248721  -2.590  -0.964  -4.303  2.4016 -3.0358  1.8068
 8176TIP3   OH248722  -2.586   0.995  -5.365 -0.3226 -0.7977 -0.2937
 8176TIP3    H148723  -2.598   0.906  -5.397  0.4704 -0.9823 -0.0889
 8176TIP3    H248724  -2.507   0.991  -5.312 -0.1585  0.0733 -0.4615
 8177TIP3   OH248725  -2.384  -1.472  -4.318 -0.2935  0.4209 -0.2889
 8177TIP3    H148726  -2.438  -1.393  -4.323  0.1736  0.6713 -2.0796
 8177TIP3    H248727  -2.446  -1.543  -4.304 -0.6434  1.1494  2.4240
 8178TIP3   OH248728  -2.955   0.432  -3.568  0.2508 -0.1133 -0.3809
 8178TIP3    H148729  -2.994   0.344  -3.562 -0.7261  0.3114 -0.2921
 8178TIP3    H248730  -2.942   0.458  -3.477  1.1193 -0.4073 -0.4153
 8179TIP3   OH248731   2.038   0.196  -5.222  0.3091 -0.4000  0.3796
 8179TIP3    H148732   1.996   0.278  -5.197 -3.4218 -2.7218  2.5745
 8179TIP3    H248733   1.969   0.145  -5.265  2.7901 -2.0911 -1.9719
 8180TIP3   OH248734  -1.868  -1.849  -5.428  0.3252 -0.2195 -0.3155
 8180TIP3    H148735  -1.779  -1.853  -5.392  0.4972 -1.8186 -0.8004
 8180TIP3    H248736  -1.873  -1.927  -5.484 -0.5006  1.2391 -2.3689
 8181TIP3   OH248737   2.470  -0.144  -2.918 -0.1748 -0.4664  0.0927
 8181TIP3    H148738   2.482  -0.147  -3.013  0.5143  2.3083  0.0108
 8181TIP3    H248739   2.535  -0.206  -2.884  1.4978  0.5052 -1.1653
 8182TIP3   OH248740   3.075  -2.020  -5.699  0.0723 -0.2551 -0.1302
 8182TIP3    H148741   3.117  -1.937  -5.718  1.0339 -1.2245 -2.7195
 8182TIP3    H248742   2.987  -2.012  -5.737  0.5983 -0.7874 -1.5432
 8183TIP3   OH248743  -1.286  -2.628  -4.225  0.0286 -0.1952  0.0053
 8183TIP3    H148744  -1.202  -2.613  -4.181 -0.2829 -0.5159  0.7332
 8183TIP3    H248745  -1.286  -2.567  -4.299  1.5958 -1.3379 -0.9808
 8184TIP3   OH248746   0.328   3.039  -3.823  0.2442  0.5161  0.0963
 8184TIP3    H148747   0.300   3.019  -3.912 -0.6718 -0.2489  0.5293
 8184TIP3    H248748   0.252   3.082  -3.783  0.5386  0.5825  0.5911
 8185TIP3   OH248749  -3.038   1.924  -5.706  0.2481  0.1198 -0.0078
 8185TIP3    H148750  -3.001   2.000  -5.753  0.7972  0.1324  0.4348
 8185TIP3    H248751  -3.040   1.952  -5.615 -0.1335 -0.1740  0.0712
 8186TIP3   OH248752   1.404   0.746  -5.412  0.5278 -0.1095 -0.4246
 8186TIP3    H148753   1.437   0.657  -5.424  0.9591  0.1209 -0.9880
 8186TIP3    H248754   1.422   0.790  -5.495  0.3763  0.5259 -0.1292
 8187TIP3   OH248755  -0.025   1.206  -3.325 -0.3141 -0.3945  0.4830
 8187TIP3    H148756   0.024   1.282  -3.293  0.5665  0.5360 -2.7107
 8187TIP3    H248757   0.041   1.136  -3.331 -0.4619 -0.5521  0.7056
 8188TIP3   OH248758   2.290  -1.018  -4.192 -0.1156  0.6425 -0.5873
 8188TIP3    H148759   2.287  -1.113  -4.201 -0.8224  0.6690 -0.6983
 8188TIP3    H248760   2.214  -0.987  -4.242  1.0835  1.3914 -2.0042
 8189TIP3   OH248761   2.462  -1.834  -2.414 -0.0735 -0.1022  0.4144
 8189TIP3    H148762   2.497  -1.922  -2.428 -0.0921 -0.1717  0.8020
 8189TIP3    H248763   2.538  -1.777  -2.415 -0.1082 -0.0508 -0.3676
 8190TIP3   OH248764  -1.334   2.778  -3.186  0.1822  0.1929 -0.1077
 8190TIP3    H148765  -1.352   2.868  -3.159 -0.3286 -0.3781  1.5935
 8190TIP3    H248766  -1.419   2.735  -3.185  0.4077 -0.2996 -1.0252
 8191TIP3   OH248767   0.237  -1.513  -6.167  0.4575 -0.0360 -0.6378
 8191TIP3    H148768   0.293  -1.490  -6.093  0.4020 -0.5488 -0.4350
 8191TIP3    H248769   0.218  -1.429  -6.209 -1.3779  0.5568  1.2296
 8192TIP3   OH248770  -2.940  -0.516  -3.491 -0.0040 -0.2299 -0.0632
 8192TIP3    H148771  -2.928  -0.609  -3.509 -1.0379 -0.4166  0.1475
 8192TIP3    H248772  -2.977  -0.513  -3.403 -0.7126  0.3325 -0.3717
 8193TIP3   OH248773   1.223  -2.732  -5.295  0.2475  0.1681  0.2491
 8193TIP3    H148774   1.234  -2.813  -5.345 -0.1850  0.0772  0.2942
 8193TIP3    H248775   1.198  -2.666  -5.360  0.3480  0.2071  0.2493
 8194TIP3   OH248776   2.779  -3.148  -2.413  0.6950  0.2277 -0.1153
 8194TIP3    H148777   2.783  -3.200  -2.332 -0.1407  0.2190 -0.0692
 8194TIP3    H248778   2.726  -3.072  -2.389  0.7818  0.4237 -0.5499
 8195TIP3   OH248779  -2.913   2.645  -3.458 -0.0409  0.3570  0.0238
 8195TIP3    H148780  -2.876   2.718  -3.408  0.3742 -0.2256  0.5907
 8195TIP3    H248781  -2.871   2.567  -3.421 -2.8865 -0.4989  1.7006
 8196TIP3   OH248782  -2.777  -1.774  -4.334 -0.3016  0.2629 -0.1764
 8196TIP3    H148783  -2.731  -1.830  -4.396 -1.0166 -1.0455  0.4255
 8196TIP3    H248784  -2.730  -1.785  -4.252  0.3702  1.6376 -0.3488
 8197TIP3   OH248785  -0.714   0.741  -3.603 -0.0343  0.2505 -0.7324
 8197TIP3    H148786  -0.698   0.832  -3.579 -1.2783  0.4349 -0.5700
 8197TIP3    H248787  -0.656   0.691  -3.546 -0.1456  0.8835 -0.0485
 8198TIP3   OH248788   0.979  -0.629  -4.620 -0.6221  0.5799 -0.0518
 8198TIP3    H148789   0.982  -0.552  -4.677 -3.5697  0.1443 -0.9840
 8198TIP3    H248790   0.959  -0.594  -4.533 -0.3016  0.9738 -0.1359
 8199TIP3   OH248791  -2.711   1.373  -3.484  0.2320  0.6309  0.7117
 8199TIP3    H148792  -2.706   1.368  -3.389 -0.1096 -1.2035  0.6806
 8199TIP3    H248793  -2.633   1.422  -3.510  0.6494  0.6266  1.9025
 8200TIP3   OH248794  -0.108  -0.926  -5.075 -0.1276 -0.2941 -0.0980
 8200TIP3    H148795  -0.133  -0.931  -4.983 -1.2296 -1.5598 -0.4380
 8200TIP3    H248796  -0.024  -0.879  -5.075  0.3916 -1.1415  1.6420
 8201TIP3   OH248797   1.110  -0.931  -4.492  0.1098 -0.1244  0.2187
 8201TIP3    H148798   1.070  -0.886  -4.567  2.2846 -0.5400 -1.2894
 8201TIP3    H248799   1.062  -0.898  -4.416 -2.8982 -0.4409 -1.3732
 8202TIP3   OH248800  -3.225  -2.943  -4.243 -0.2031 -0.2808  0.7873
 8202TIP3    H148801  -3.178  -2.953  -4.326 -0.9352  0.9503  0.1956
 8202TIP3    H248802  -3.223  -3.030  -4.204  0.8254 -0.7043 -0.1561
 8203TIP3   OH248803  -2.925  -2.157  -5.051 -0.0079 -0.2952  0.3236
 8203TIP3    H148804  -2.875  -2.199  -5.120  0.9899  2.0540 -0.5058
 8203TIP3    H248805  -3.009  -2.135  -5.092  0.5740  1.0745 -0.1847
 8204TIP3   OH248806  -3.047  -2.234  -3.263 -0.3578 -0.0619  0.4664
 8204TIP3    H148807  -3.121  -2.187  -3.304  1.1054  2.7388  0.7753
 8204TIP3    H248808  -2.977  -2.169  -3.259  2.4413 -2.7547 -0.4425
 8205TIP3   OH248809   3.145   3.054  -4.619 -0.2530  0.7041  0.4294
 8205TIP3    H148810   3.105   3.129  -4.575 -2.2726  0.1601 -0.3314
 8205TIP3    H248811   3.180   3.090  -4.700  0.0394  1.0521  0.7072
 8206TIP3   OH248812   0.727  -0.077  -4.963  0.0655 -0.1093  0.1616
 8206TIP3    H148813   0.815  -0.078  -4.925 -0.2048  0.0785  0.8132
 8206TIP3    H248814   0.689   0.005  -4.932 -0.4638 -0.3608  0.1850
 8207TIP3   OH248815  -2.898  -2.260  -5.821 -0.0044  0.6931  1.0090
 8207TIP3    H148816  -2.890  -2.200  -5.896 -0.9965 -1.9051 -1.3432
 8207TIP3    H248817  -2.974  -2.314  -5.841  0.0443 -0.5252  3.6581
 8208TIP3   OH248818   2.785  -0.073  -3.368 -0.0624 -0.0877  0.1509
 8208TIP3    H148819   2.793   0.020  -3.349 -1.4126  0.1911 -0.4512
 8208TIP3    H248820   2.778  -0.077  -3.464 -1.5276 -0.6306  0.2433
 8209TIP3   OH248821   1.671   0.162  -5.485 -0.0739  0.3707 -0.3003
 8209TIP3    H148822   1.608   0.189  -5.418 -1.0350  0.6932 -1.3112
 8209TIP3    H248823   1.749   0.214  -5.465  0.0920 -0.4243  1.2908
 8210TIP3   OH248824   2.976   0.021  -4.181 -0.4155  0.2108  0.2603
 8210TIP3    H148825   2.961   0.096  -4.124  0.3158  1.7173 -1.4335
 8210TIP3    H248826   3.063  -0.011  -4.156  0.0474  1.0735 -0.2012
 8211TIP3   OH248827   1.838   2.634  -5.303  0.3443  0.3087 -0.0614
 8211TIP3    H148828   1.783   2.708  -5.327  0.1505  0.5109  0.9863
 8211TIP3    H248829   1.800   2.601  -5.222  2.1286  0.8501  1.0404
 8212TIP3   OH248830  -2.413  -2.864  -5.419 -0.4864  0.3078 -0.2354
 8212TIP3    H148831  -2.405  -2.849  -5.325  0.8710  2.2797 -0.6064
 8212TIP3    H248832  -2.496  -2.909  -5.429 -0.2267 -0.7976  1.9827
 8213TIP3   OH248833   2.269   2.869  -3.211  0.0055  0.0506 -0.1324
 8213TIP3    H148834   2.325   2.928  -3.262  0.6869 -1.2941 -0.9883
 8213TIP3    H248835   2.329   2.827  -3.149 -0.4901  0.2967  0.5261
 8214TIP3   OH248836  -1.768   1.466  -3.115 -0.3056  0.0079 -0.0707
 8214TIP3    H148837  -1.806   1.435  -3.033 -1.6118 -2.5490 -1.4985
 8214TIP3    H248838  -1.675   1.481  -3.095 -0.2720 -1.9857  1.5568
 8215TIP3   OH248839   2.247  -0.819  -3.321  0.2730 -0.4191  0.1417
 8215TIP3    H148840   2.325  -0.837  -3.373  1.7054  1.7107  1.3898
 8215TIP3    H248841   2.200  -0.752  -3.370  0.5096  0.0481  0.5487
 8216TIP3   OH248842  -0.890   1.530  -2.618 -0.1051 -0.0322  0.0307
 8216TIP3    H148843  -0.795   1.537  -2.608 -0.1865  0.2834  0.6020
 8216TIP3    H248844  -0.917   1.468  -2.550 -0.3014 -0.1997 -0.1960
 8217TIP3   OH248845  -1.512   2.453  -2.378  0.6755  0.2282  0.3835
 8217TIP3    H148846  -1.518   2.493  -2.291  1.3985  0.6534  0.2453
 8217TIP3    H248847  -1.547   2.364  -2.366 -2.2298  1.2480  0.4126
 8218TIP3   OH248848   0.857   0.076  -4.666  0.1179  0.1157  0.3677
 8218TIP3    H148849   0.892   0.029  -4.742 -0.5549  0.9412 -0.4830
 8218TIP3    H248850   0.902   0.037  -4.591  1.3488 -0.2251 -0.5061
 8219TIP3   OH248851   3.179  -0.342  -3.915 -0.3427  0.0903 -0.0273
 8219TIP3    H148852   3.195  -0.429  -3.879 -0.5778  0.9289  2.3253
 8219TIP3    H248853   3.109  -0.355  -3.979  0.5101 -1.6088 -0.6798
 8220TIP3   OH248854   0.626  -2.767  -2.625  0.1289 -0.1174 -0.1166
 8220TIP3    H148855   0.599  -2.780  -2.534 -1.5181 -1.2101 -0.7084
 8220TIP3    H248856   0.628  -2.855  -2.662  2.6142  0.1134 -0.7036
 8221TIP3   OH248857  -1.952   2.738  -4.769 -0.0678  0.1938  0.1377
 8221TIP3    H148858  -1.969   2.651  -4.735 -2.4588  0.6928  0.4096
 8221TIP3    H248859  -1.858   2.751  -4.758  0.8705 -3.2478 -2.1494
 8222TIP3   OH248860   0.042  -0.108  -5.589 -0.2905  0.2943  0.0215
 8222TIP3    H148861   0.053  -0.197  -5.623 -1.2782  0.1613  0.0189
 8222TIP3    H248862  -0.048  -0.105  -5.557 -0.6487  1.6101 -0.9772
 8223TIP3   OH248863  -0.010  -1.891  -5.514  1.0796  0.1524 -0.4174
 8223TIP3    H148864  -0.088  -1.937  -5.545 -0.2352  2.6484 -1.0889
 8223TIP3    H248865  -0.041  -1.841  -5.438  2.0934  0.9753 -0.5247
 8224TIP3   OH248866  -2.073  -2.440  -2.557 -0.3410  0.4660  0.0944
 8224TIP3    H148867  -2.068  -2.345  -2.546  0.0883  0.5547 -0.8012
 8224TIP3    H248868  -2.103  -2.472  -2.472  0.6848  1.2909  0.7833
 8225TIP3   OH248869   2.758  -2.950  -4.635 -0.8161 -0.6163 -0.1902
 8225TIP3    H148870   2.733  -3.021  -4.695 -0.3859 -1.0449  0.1378
 8225TIP3    H248871   2.773  -2.993  -4.551 -0.3127 -0.1708 -0.0483
 8226TIP3   OH248872  -2.035  -2.859  -2.659 -0.1544  0.0363  0.0609
 8226TIP3    H148873  -1.953  -2.833  -2.619  0.3318 -1.4966  0.1200
 8226TIP3    H248874  -2.074  -2.921  -2.597 -0.7572 -0.1974 -0.5301
 8227TIP3   OH248875  -0.830   0.528  -5.186  0.0096  0.1761  0.2756
 8227TIP3    H148876  -0.910   0.528  -5.133 -0.4161  1.4071 -0.3292
 8227TIP3    H248877  -0.849   0.589  -5.258  1.4476  0.3959  0.0607
 8228TIP3   OH248878  -1.613   2.992  -3.364  0.6313 -0.6830 -0.0483
 8228TIP3    H148879  -1.614   3.003  -3.459  3.0475 -1.5620 -0.2573
 8228TIP3    H248880  -1.644   2.903  -3.350 -0.0162 -0.4483  0.0142
 8229TIP3   OH248881   1.103   2.606  -4.269 -0.4222 -0.8693  0.4429
 8229TIP3    H148882   1.072   2.688  -4.229  1.6237  0.0382  0.2781
 8229TIP3    H248883   1.143   2.634  -4.351  0.4346 -2.0280  0.4498
 8230TIP3   OH248884  -3.234   2.657  -4.859  0.0599  0.2422  0.1551
 8230TIP3    H148885  -3.290   2.589  -4.820  0.5273 -0.9523 -1.2111
 8230TIP3    H248886  -3.167   2.609  -4.907  1.4970  1.6722  0.6439
 8231TIP3   OH248887  -2.063  -2.592  -4.242  0.0532 -0.4888  0.3929
 8231TIP3    H148888  -1.974  -2.620  -4.219  0.4728  1.3272  1.1422
 8231TIP3    H248889  -2.051  -2.505  -4.279 -1.5787  0.5978  2.2421
 8232TIP3   OH248890   0.328  -1.615  -3.147  0.0579 -0.5068 -0.3132
 8232TIP3    H148891   0.323  -1.534  -3.096  0.4459  0.0393 -1.1232
 8232TIP3    H248892   0.274  -1.677  -3.098  2.1165 -0.6523  1.9199
 8233TIP3   OH248893  -0.840  -1.617  -4.297  0.7935 -0.2183  0.3519
 8233TIP3    H148894  -0.896  -1.558  -4.348  0.6313  0.5334  1.3584
 8233TIP3    H248895  -0.847  -1.701  -4.341  0.7030  0.4064 -0.8896
 8234TIP3   OH248896   2.583   1.489  -4.059 -0.0110  0.0588  0.1192
 8234TIP3    H148897   2.612   1.543  -3.985  1.3007  1.0004 -1.0284
 8234TIP3    H248898   2.489   1.481  -4.046 -0.3512  2.9623  0.1804
 8235TIP3   OH248899  -3.279  -0.386  -4.056  0.7349 -0.4257 -0.3348
 8235TIP3    H148900  -3.340  -0.459  -4.050 -0.3247  0.4778  0.2451
 8235TIP3    H248901  -3.206  -0.410  -3.999  0.5937 -1.1955 -0.4705
 8236TIP3   OH248902  -1.243  -1.963  -3.965 -0.3017 -0.1904 -0.2189
 8236TIP3    H148903  -1.250  -2.044  -3.915  1.1277 -1.5618 -2.0947
 8236TIP3    H248904  -1.208  -1.899  -3.903  1.8138 -1.9411  0.5082
 8237TIP3   OH248905  -2.443  -0.288  -3.665  0.1880 -0.0305 -0.4545
 8237TIP3    H148906  -2.432  -0.271  -3.572 -1.9286  1.0941 -0.3433
 8237TIP3    H248907  -2.527  -0.335  -3.670 -0.1073  0.6055 -1.8276
 8238TIP3   OH248908  -1.432  -1.595  -2.140  0.1578 -0.1632 -0.0374
 8238TIP3    H148909  -1.376  -1.664  -2.105 -0.1422 -0.7228 -0.6491
 8238TIP3    H248910  -1.517  -1.609  -2.098  0.5222  0.8799  1.1371
 8239TIP3   OH248911   1.360  -1.575  -3.806 -0.0434  0.0457 -0.3655
 8239TIP3    H148912   1.281  -1.557  -3.754 -0.5434  0.7375 -1.3244
 8239TIP3    H248913   1.365  -1.670  -3.809  0.5407 -0.0331  1.7280
 8240TIP3   OH248914  -3.294  -2.681  -4.265 -0.3965 -0.2263  0.7358
 8240TIP3    H148915  -3.252  -2.767  -4.259 -0.9985 -0.4882  1.5045
 8240TIP3    H248916  -3.370  -2.695  -4.322 -0.5534 -0.2361  0.9445
 8241TIP3   OH248917   3.141  -0.397  -3.047  0.0705 -0.5694 -0.0983
 8241TIP3    H148918   3.191  -0.316  -3.041 -0.8000  0.0192 -0.5135
 8241TIP3    H248919   3.205  -0.467  -3.035  0.6005  0.1965  1.8365
 8242TIP3   OH248920   3.305   0.277  -5.592  0.2928  0.1986  0.3226
 8242TIP3    H148921   3.395   0.252  -5.611  0.9385  1.6476  1.3169
 8242TIP3    H248922   3.258   0.194  -5.581  1.6272 -0.5630  0.3855
 8243TIP3   OH248923   1.601   0.863  -2.441  0.5082 -0.0651  0.7590
 8243TIP3    H148924   1.650   0.942  -2.416 -0.8687  1.2139 -0.3588
 8243TIP3    H248925   1.512   0.879  -2.410  0.1258 -1.0130  0.1920
 8244TIP3   OH248926   0.247   1.188  -3.078  0.3853 -0.3934 -0.5091
 8244TIP3    H148927   0.323   1.236  -3.111  0.5745  0.3976  0.9693
 8244TIP3    H248928   0.273   1.162  -2.989 -0.1748 -2.2301 -0.8611
 8245TIP3   OH248929   2.593   1.604  -4.290  0.5200  0.3082  0.2355
 8245TIP3    H148930   2.666   1.582  -4.347  0.9003  0.7097  0.5598
 8245TIP3    H248931   2.599   1.539  -4.219  0.0629 -0.1747 -0.1629
 8246TIP3   OH248932   2.674  -2.507  -4.004  0.0456 -0.7381 -0.3776
 8246TIP3    H148933   2.760  -2.523  -3.963  0.4006 -2.4992 -1.7054
 8246TIP3    H248934   2.639  -2.594  -4.021 -1.1620 -0.0379 -1.6186
 8247TIP3   OH248935  -0.449  -1.998  -4.912  0.6953 -0.1138  0.1821
 8247TIP3    H148936  -0.361  -2.010  -4.948  0.1965 -0.1825 -1.0643
 8247TIP3    H248937  -0.480  -2.087  -4.895 -0.0208 -0.2441 -1.6408
 8248TIP3   OH248938   3.365   2.520  -2.962 -0.1021 -0.2285  0.0804
 8248TIP3    H148939   3.458   2.504  -2.979  0.0034 -0.5332  0.9063
 8248TIP3    H248940   3.336   2.444  -2.912 -0.8885 -0.3017 -0.4694
 8249TIP3   OH248941   2.489   3.354  -4.370 -0.1487  0.2185  0.3213
 8249TIP3    H148942   2.571   3.312  -4.344 -0.2526  0.8519  1.7799
 8249TIP3    H248943   2.490   3.351  -4.466  2.3158  1.5429  0.2246
 8250TIP3   OH248944   0.690  -0.853  -4.036 -0.1683  0.0541  0.5174
 8250TIP3    H148945   0.686  -0.860  -4.131  2.2432 -0.5706  0.3982
 8250TIP3    H248946   0.746  -0.925  -4.009  0.3794  1.0822  2.2826
 8251TIP3   OH248947  -2.780   1.640  -3.222  0.1285  0.3831 -0.4537
 8251TIP3    H148948  -2.708   1.657  -3.282 -0.0534  2.5973 -0.1336
 8251TIP3    H248949  -2.778   1.545  -3.208  0.9363 -0.0350 -2.9408
 8252TIP3   OH248950   1.556   1.826  -3.525  0.1766 -0.2022  0.0473
 8252TIP3    H148951   1.473   1.826  -3.574  0.1311  0.4313  0.1225
 8252TIP3    H248952   1.623   1.827  -3.593  0.1518 -1.7740 -0.0385
 8253TIP3   OH248953  -2.999   1.655  -4.604 -0.3642  0.6825 -0.5632
 8253TIP3    H148954  -3.057   1.728  -4.627  0.7548  1.4367 -1.0838
 8253TIP3    H248955  -2.958   1.631  -4.687 -0.8217 -0.6454 -0.4184
 8254TIP3   OH248956   2.148  -0.297  -4.431 -0.0990  0.5032  0.6332
 8254TIP3    H148957   2.111  -0.242  -4.501 -2.7698  0.4931  1.9217
 8254TIP3    H248958   2.137  -0.245  -4.352 -1.6562 -1.3402  1.7212
 8255TIP3   OH248959  -3.232  -0.944  -5.553 -0.4485 -0.1678  0.0588
 8255TIP3    H148960  -3.205  -0.914  -5.640 -1.2130  0.2965 -0.0273
 8255TIP3    H248961  -3.278  -1.027  -5.569  0.2680 -0.5839  0.1287
 8256TIP3   OH248962   2.672   1.884  -4.486  0.5386  0.6704  0.3728
 8256TIP3    H148963   2.668   1.963  -4.431  1.5912  1.7098 -0.9774
 8256TIP3    H248964   2.712   1.818  -4.429 -0.0069  1.2006  1.4064
 8257TIP3   OH248965   0.206   0.070  -5.259  0.1140  0.6267 -0.1365
 8257TIP3    H148966   0.177   0.150  -5.302  0.6774  0.1841 -1.4033
 8257TIP3    H248967   0.205   0.091  -5.166  0.1649  2.0756 -0.4385
 8258TIP3   OH248968  -3.257  -3.129  -5.378  0.8465 -0.9237 -0.1827
 8258TIP3    H148969  -3.189  -3.074  -5.417  2.1497 -0.8757  2.0219
 8258TIP3    H248970  -3.334  -3.072  -5.374  1.6170  0.1228  0.2691
 8259TIP3   OH248971  -2.844  -2.059  -5.999  0.1939 -0.1466  0.5421
 8259TIP3    H148972  -2.762  -2.074  -6.046 -1.5330  0.2313 -2.8455
 8259TIP3    H248973  -2.850  -1.964  -5.989 -0.4625 -0.0567 -0.5507
 8260TIP3   OH248974   3.351   0.184  -2.619 -0.0408  0.1031  0.0360
 8260TIP3    H148975   3.316   0.098  -2.593 -0.8074 -0.0136 -1.2980
 8260TIP3    H248976   3.429   0.195  -2.565 -1.4711 -0.1545  2.2650
 8261TIP3   OH248977   1.646  -1.197  -2.763 -0.1229 -0.0117  0.3443
 8261TIP3    H148978   1.702  -1.196  -2.685  0.2562 -0.4213  0.0839
 8261TIP3    H248979   1.597  -1.279  -2.756 -1.2744  0.7049  0.9656
 8262TIP3   OH248980  -1.154  -2.318  -6.002 -0.3788 -0.3411 -0.1101
 8262TIP3    H148981  -1.153  -2.391  -6.064  0.8519  0.2703 -0.8827
 8262TIP3    H248982  -1.071  -2.326  -5.955 -1.6561 -1.2655  2.1061
 8263TIP3   OH248983   1.840  -2.795  -4.921 -0.1479  0.6760  0.6108
 8263TIP3    H148984   1.758  -2.747  -4.930 -0.9125 -0.3302  1.8795
 8263TIP3    H248985   1.854  -2.836  -5.007 -1.9076 -0.5431  0.8584
 8264TIP3   OH248986   0.898  -3.183  -5.096  0.0671 -0.6620 -0.1268
 8264TIP3    H148987   0.923  -3.094  -5.070  2.6054 -0.7844 -1.8073
 8264TIP3    H248988   0.850  -3.217  -5.020 -2.5067  2.6421 -0.0504
 8265TIP3   OH248989   1.307  -2.644  -3.764 -0.1546  0.4200 -0.5333
 8265TIP3    H148990   1.351  -2.563  -3.735  0.5265 -0.1298  0.0030
 8265TIP3    H248991   1.234  -2.655  -3.703  1.1143 -0.5861  0.8683
 8266TIP3   OH248992  -2.603   2.435  -4.006  0.1850  0.3162 -0.1036
 8266TIP3    H148993  -2.665   2.378  -4.051  0.0030 -0.9759  1.6794
 8266TIP3    H248994  -2.637   2.523  -4.020 -1.2368 -0.2485 -0.3706
 8267TIP3   OH248995  -2.086  -1.233  -4.100  0.0561 -0.5158 -0.4035
 8267TIP3    H148996  -2.167  -1.252  -4.148 -0.1448  1.5647 -0.9604
 8267TIP3    H248997  -2.019  -1.225  -4.168 -0.3079  2.8649 -0.5080
 8268TIP3   OH248998   1.918  -1.954  -3.568 -0.0278  0.4577 -0.0562
 8268TIP3    H148999   2.003  -1.910  -3.569 -0.8384  2.3989 -3.8419
 8268TIP3    H249000   1.926  -2.023  -3.633 -1.2258  0.4699 -0.2429
 8269TIP3   OH249001  -1.317   1.939  -4.990 -0.2746 -0.0209 -0.2559
 8269TIP3    H149002  -1.310   2.034  -4.979  0.1244  0.1030 -1.4275
 8269TIP3    H249003  -1.398   1.915  -4.946 -0.4879  0.8949 -0.1392
 8270TIP3   OH249004  -2.185  -0.122  -3.146  0.6022  0.4554  0.0030
 8270TIP3    H149005  -2.194  -0.075  -3.229 -0.0854  0.5044  0.0974
 8270TIP3    H249006  -2.104  -0.089  -3.108  1.4769 -0.3300 -1.1273
 8271TIP3   OH249007   1.908  -0.636  -4.138  0.6562  0.1840 -0.5748
 8271TIP3    H149008   1.956  -0.589  -4.207  0.1205  1.1233 -0.3237
 8271TIP3    H249009   1.950  -0.723  -4.135  0.3154 -0.0908 -2.4840
 8272TIP3   OH249010  -2.767  -0.103  -5.726  0.3685 -0.0726  0.3506
 8272TIP3    H149011  -2.848  -0.065  -5.761 -1.2738 -1.0076  2.8153
 8272TIP3    H249012  -2.724  -0.142  -5.802 -1.8996 -0.2116 -0.9656
 8273TIP3   OH249013   0.991   3.246  -4.500 -0.3975  0.6159 -0.4258
 8273TIP3    H149014   1.085   3.257  -4.485 -0.4261  2.8665 -1.5631
 8273TIP3    H249015   0.985   3.208  -4.587 -0.5578 -1.6532  0.4934
 8274TIP3   OH249016  -0.345   2.227  -3.194 -0.6088  0.1762 -0.1074
 8274TIP3    H149017  -0.388   2.306  -3.162  1.7688  2.3343 -1.7966
 8274TIP3    H249018  -0.363   2.227  -3.289  0.1734 -0.8443 -0.2762
 8275TIP3   OH249019  -1.302  -3.310  -4.901 -0.3985 -0.6062  0.3503
 8275TIP3    H149020  -1.324  -3.355  -4.820 -2.4590  0.4696  0.4405
 8275TIP3    H249021  -1.386  -3.298  -4.946  0.4083  0.7891 -0.8912
 8276TIP3   OH249022  -2.512  -1.341  -2.226 -0.2968 -0.1125 -0.2007
 8276TIP3    H149023  -2.488  -1.283  -2.299  0.0142  0.3073  0.2281
 8276TIP3    H249024  -2.510  -1.284  -2.149  0.1809 -0.7286  0.2525
 8277TIP3   OH249025  -1.630   2.189  -4.752 -0.8366 -0.1838 -0.4269
 8277TIP3    H149026  -1.571   2.246  -4.801  1.3861 -1.8522  0.1433
 8277TIP3    H249027  -1.661   2.244  -4.680 -0.5140  0.9517 -1.1238
 8278TIP3   OH249028   0.635  -1.522  -4.329 -0.3260 -0.2342 -1.4378
 8278TIP3    H149029   0.688  -1.565  -4.261 -0.5340  0.5561 -0.7536
 8278TIP3    H249030   0.567  -1.586  -4.351 -0.4279 -0.3925 -0.6841
 8279TIP3   OH249031   2.569   2.888  -4.923  0.2426 -0.3067 -0.0745
 8279TIP3    H149032   2.630   2.815  -4.935  0.6662  0.1200 -0.5883
 8279TIP3    H249033   2.519   2.866  -4.845  0.7078 -0.9096  0.0555
 8280TIP3   OH249034  -2.241  -0.585  -5.350  0.5508  0.3911  0.0639
 8280TIP3    H149035  -2.232  -0.618  -5.439  0.9798  0.5666  0.0404
 8280TIP3    H249036  -2.191  -0.646  -5.297  1.6153  1.1683 -0.0196
 8281TIP3   OH249037  -0.263  -1.299  -4.183 -0.1618 -0.2847  0.3287
 8281TIP3    H149038  -0.355  -1.282  -4.205 -0.5614 -0.9711  1.3896
 8281TIP3    H249039  -0.253  -1.394  -4.192  0.6139 -0.1481 -0.3630
 8282TIP3   OH249040   0.074   0.766  -2.926  0.1235 -0.3148 -0.5513
 8282TIP3    H149041   0.007   0.743  -2.861 -1.5498  1.6295 -1.4653
 8282TIP3    H249042   0.117   0.843  -2.889  0.5805 -0.4398 -0.8198
 8283TIP3   OH249043  -2.865   2.859  -3.269  0.6511 -0.2164  0.2872
 8283TIP3    H149044  -2.916   2.818  -3.199  0.1602  0.0729  0.0956
 8283TIP3    H249045  -2.828   2.937  -3.228  1.7167 -0.8963  0.6997
 8284TIP3   OH249046  -0.858   0.064  -4.072 -0.0867  0.4914  0.0732
 8284TIP3    H149047  -0.920   0.018  -4.015  1.0382 -3.0800 -1.3298
 8284TIP3    H249048  -0.791   0.097  -4.012 -0.8175  0.0704  1.1500
 8285TIP3   OH249049  -0.394   3.113  -5.604  0.0991  0.4860  0.1063
 8285TIP3    H149050  -0.454   3.062  -5.549 -1.2143  0.8835 -0.8922
 8285TIP3    H249051  -0.423   3.204  -5.590  0.2833  0.6544 -0.6106
 8286TIP3   OH249052  -1.969  -1.192  -4.516  0.6400  0.1379  0.1183
 8286TIP3    H149053  -1.954  -1.186  -4.422  0.1923 -0.4475  0.2306
 8286TIP3    H249054  -2.041  -1.254  -4.526  1.1082 -0.3072 -0.6451
 8287TIP3   OH249055  -2.384  -1.063  -4.509  0.3281 -0.1438  0.0107
 8287TIP3    H149056  -2.422  -1.084  -4.594  1.9757 -1.5186 -0.4306
 8287TIP3    H249057  -2.323  -1.135  -4.491  2.5215  1.7885  0.7799
 8288TIP3   OH249058  -3.032   1.136  -4.522  0.0520  0.2466  0.4840
 8288TIP3    H149059  -3.064   1.211  -4.573  0.4704 -0.6383 -1.1515
 8288TIP3    H249060  -2.944   1.120  -4.555  0.7407  0.2455  2.2286
 8289TIP3   OH249061  -0.424   0.818  -3.005  0.2399  0.5241  0.0692
 8289TIP3    H149062  -0.346   0.817  -3.060  0.5725  1.0531  0.5186
 8289TIP3    H249063  -0.390   0.821  -2.916 -0.2953 -0.0073  0.2974
 8290TIP3   OH249064   3.135  -1.149  -3.052  0.1184 -0.1599 -0.2390
 8290TIP3    H149065   3.064  -1.117  -2.998  0.6330 -0.3436  0.5604
 8290TIP3    H249066   3.126  -1.245  -3.049  1.1055 -0.2384  0.8655
 8291TIP3   OH249067  -0.404   2.183   4.042 -0.1470  0.1309  0.2227
 8291TIP3    H149068  -0.309   2.192   4.033 -0.0134 -1.3029 -0.0691
 8291TIP3    H249069  -0.431   2.136   3.964 -1.1426  0.7162  0.2010
 8292TIP3   OH249070   1.246  -0.169  -5.010 -0.5128 -0.3734  0.1214
 8292TIP3    H149071   1.256  -0.179  -4.915  2.4410  0.0811 -0.0619
 8292TIP3    H249072   1.199  -0.086  -5.020  0.6666  0.4707  1.2195
 8293TIP3   OH249073   1.124   2.949  -5.559  0.9615 -0.0005 -0.2403
 8293TIP3    H149074   1.133   3.042  -5.540  0.5999 -0.1285  0.6325
 8293TIP3    H249075   1.052   2.920  -5.503  0.6033 -0.6642 -1.0203
 8294TIP3   OH249076  -1.291   0.442  -3.259 -0.3779 -0.4306  0.0535
 8294TIP3    H149077  -1.223   0.510  -3.259  0.7483 -1.5017  0.7130
 8294TIP3    H249078  -1.285   0.403  -3.172 -3.3108  0.7944  0.9224
 8295TIP3   OH249079  -0.823   0.686  -2.799 -0.4858 -0.3446 -0.0592
 8295TIP3    H149080  -0.738   0.702  -2.759 -1.2196 -0.2162  1.5500
 8295TIP3    H249081  -0.857   0.609  -2.753 -2.1420  0.9032  0.8944
 8296TIP3   OH249082   2.467  -2.022  -3.323 -0.2830  0.2009 -0.1067
 8296TIP3    H149083   2.468  -1.965  -3.400  1.2621  0.7930  0.2989
 8296TIP3    H249084   2.560  -2.043  -3.308 -0.3829  1.1895  2.3489
 8297TIP3   OH249085  -1.204  -3.015  -3.778 -0.0166 -0.4120  0.6329
 8297TIP3    H149086  -1.208  -3.057  -3.864 -1.2817 -0.1459  0.5430
 8297TIP3    H249087  -1.174  -2.927  -3.796  2.4094 -1.1378  0.7952
 8298TIP3   OH249088   1.486   2.502  -5.535  0.2035 -0.2363 -0.1957
 8298TIP3    H149089   1.403   2.550  -5.528 -0.7571 -0.7283 -4.6687
 8298TIP3    H249090   1.553   2.571  -5.540 -0.5899  0.4971 -1.5218
 8299TIP3   OH249091   1.329  -0.194  -3.957  0.2450  0.1191 -0.1393
 8299TIP3    H149092   1.382  -0.159  -3.886 -0.4965  2.3065 -0.5676
 8299TIP3    H249093   1.288  -0.273  -3.921  0.2984  0.8870  1.6844
 8300TIP3   OH249094   1.542  -2.087  -3.886  0.5323 -0.2758  0.4734
 8300TIP3    H149095   1.611  -2.134  -3.840  0.2552 -1.6537 -0.4249
 8300TIP3    H249096   1.496  -2.156  -3.935 -1.5241  0.5762  1.1035
 8301TIP3   OH249097   0.362   0.839  -3.877 -0.2965  0.3926  0.0896
 8301TIP3    H149098   0.284   0.872  -3.831 -1.1036 -1.0005 -0.2244
 8301TIP3    H249099   0.429   0.833  -3.809 -0.8163  0.4717  0.6160
 8302TIP3   OH249100  -1.112   2.105  -2.275  0.2382  0.3157  0.1513
 8302TIP3    H149101  -1.084   2.055  -2.198 -1.0660  2.4280  2.1228
 8302TIP3    H249102  -1.114   2.196  -2.245 -0.8098  1.1624 -2.2523
 8303TIP3   OH249103  -1.266  -1.220  -5.262 -0.1636 -0.6997 -0.4540
 8303TIP3    H149104  -1.291  -1.192  -5.174 -1.5931  0.3329 -1.1552
 8303TIP3    H249105  -1.184  -1.268  -5.249  1.0885  1.6548  1.1444
 8304TIP3   OH249106   1.662  -0.242  -4.756  0.6045 -0.1687 -0.0478
 8304TIP3    H149107   1.732  -0.254  -4.820 -0.1124 -0.4507 -0.8043
 8304TIP3    H249108   1.597  -0.309  -4.779  1.0283 -1.3691  1.9777
 8305TIP3   OH249109   3.330   2.249  -2.897  0.0631 -0.1514 -0.3878
 8305TIP3    H149110   3.239   2.220  -2.894  0.2876 -0.8467 -0.0020
 8305TIP3    H249111   3.372   2.202  -2.825  0.6848  0.3180 -0.4362
 8306TIP3   OH249112  -0.070  -2.012  -4.409 -0.2591 -0.3736  0.0136
 8306TIP3    H149113  -0.056  -2.000  -4.503  1.3208  1.3021  0.4116
 8306TIP3    H249114  -0.165  -2.016  -4.400 -0.5109  1.0877 -1.4997
 8307TIP3   OH249115  -0.259  -0.715  -4.695  0.2387 -0.1500  0.0940
 8307TIP3    H149116  -0.294  -0.627  -4.707  0.7539  0.0767  0.2110
 8307TIP3    H249117  -0.164  -0.704  -4.704  0.1801 -1.0981 -2.4273
 8308TIP3   OH249118  -2.831   2.850  -5.880 -0.1859  0.3912  0.2737
 8308TIP3    H149119  -2.856   2.940  -5.860  1.1557  0.6026  1.1056
 8308TIP3    H249120  -2.760   2.831  -5.819  0.9965 -0.5088 -1.3238
 8309TIP3   OH249121   3.021  -0.443  -3.308 -0.0507 -0.2570  0.1950
 8309TIP3    H149122   3.025  -0.538  -3.298  0.5283 -0.3238 -0.5791
 8309TIP3    H249123   3.058  -0.409  -3.227  0.4446 -0.7072  0.1660
 8310TIP3   OH249124   0.970  -1.833  -2.973  0.1994 -0.2573  0.0528
 8310TIP3    H149125   1.046  -1.858  -2.919  1.5087  1.4811 -0.8912
 8310TIP3    H249126   0.903  -1.808  -2.909  0.6613 -1.0826  0.8999
 8311TIP3   OH249127   2.439   0.741  -4.149  0.2818  0.3698  0.1172
 8311TIP3    H149128   2.373   0.799  -4.111 -0.6640 -1.3495  1.1665
 8311TIP3    H249129   2.510   0.740  -4.085 -0.5088 -1.0502  1.0204
 8312TIP3   OH249130  -2.068  -1.218  -5.165  0.0940 -0.3435 -0.3619
 8312TIP3    H149131  -2.051  -1.293  -5.222  1.5856  0.6738 -1.3385
 8312TIP3    H249132  -2.049  -1.142  -5.220 -0.4626  0.7278  0.8813
 8313TIP3   OH249133   2.459   2.764  -3.043 -0.1383  0.0033  0.3558
 8313TIP3    H149134   2.406   2.764  -2.963  0.3850  0.8996  0.7161
 8313TIP3    H249135   2.491   2.674  -3.051 -0.6270 -0.2193  0.8599
 8314TIP3   OH249136  -1.730   2.336  -4.522 -0.1772 -0.3946 -0.6988
 8314TIP3    H149137  -1.771   2.254  -4.495  0.9360  0.0687  2.8832
 8314TIP3    H249138  -1.799   2.402  -4.511  0.3202 -0.1738  1.6128
 8315TIP3   OH249139   0.293   1.019  -4.533  0.5462 -0.3662  0.3250
 8315TIP3    H149140   0.238   0.952  -4.571  1.5198 -1.8924  1.4733
 8315TIP3    H249141   0.379   1.007  -4.574  0.9949 -0.5199  1.2644
 8316TIP3   OH249142   2.305   2.558  -3.219  0.0251  0.1123  0.6862
 8316TIP3    H149143   2.210   2.549  -3.223  0.1002 -0.6470  0.3329
 8316TIP3    H249144   2.328   2.608  -3.297 -0.2037  1.5608  1.5190
 8317TIP3   OH249145   3.332  -0.215  -3.705  0.0408  0.3458 -0.3782
 8317TIP3    H149146   3.266  -0.223  -3.774 -1.5224  0.5365  1.0388
 8317TIP3    H249147   3.328  -0.297  -3.657  1.0501  0.2465 -0.4312
 8318TIP3   OH249148   1.288   3.090  -3.089 -0.0731 -0.4808  0.2149
 8318TIP3    H149149   1.346   3.029  -3.043  1.2725  1.2858  0.9703
 8318TIP3    H249150   1.337   3.172  -3.092 -1.5101  0.3874 -1.4403
 8319TIP3   OH249151  -2.102  -0.658  -3.129 -0.2068 -0.0777  0.1543
 8319TIP3    H149152  -2.039  -0.649  -3.200 -0.1204 -0.1205  0.2271
 8319TIP3    H249153  -2.074  -0.595  -3.063 -0.5330  0.2628 -0.0324
 8320TIP3   OH249154  -2.135   2.309  -3.237 -0.6626 -0.0639  0.4838
 8320TIP3    H149155  -2.057   2.259  -3.212 -0.3411  0.5394  0.7092
 8320TIP3    H249156  -2.102   2.394  -3.263 -1.0666 -0.4040 -1.2985
 8321TIP3   OH249157  -2.834   3.112  -5.805 -0.2083 -0.2960  0.1758
 8321TIP3    H149158  -2.890   3.090  -5.730 -1.4725 -1.3069 -0.9940
 8321TIP3    H249159  -2.766   3.168  -5.769 -1.0265 -0.3929  1.9914
 8322TIP3   OH249160   2.389  -2.258  -2.434 -0.2750  0.5016  0.8401
 8322TIP3    H149161   2.416  -2.347  -2.458  1.3057  0.4842  2.4818
 8322TIP3    H249162   2.383  -2.259  -2.339 -0.5624  2.0819  0.8728
 8323TIP3   OH249163  -1.353   3.349  -2.148  0.3604 -0.2245  0.2963
 8323TIP3    H149164  -1.422   3.325  -2.086  0.4881  0.2243  0.6143
 8323TIP3    H249165  -1.280   3.378  -2.093  0.0704  1.2942 -0.0677
 8324TIP3   OH249166   0.343  -1.747  -5.016 -0.0256 -0.1916  0.2313
 8324TIP3    H149167   0.310  -1.733  -5.104 -0.3476 -1.4246  0.1382
 8324TIP3    H249168   0.435  -1.771  -5.028  0.1477  0.4305  0.2925
 8325TIP3   OH249169  -1.413   2.402  -4.745  0.6509  0.0234  0.1948
 8325TIP3    H149170  -1.444   2.468  -4.806  1.8682  0.2562 -0.1914
 8325TIP3    H249171  -1.396   2.450  -4.664 -1.3311 -0.3482  0.8808
 8326TIP3   OH249172  -0.181   1.156  -3.645 -0.3387  0.4015  0.0122
 8326TIP3    H149173  -0.134   1.133  -3.725 -1.0453 -0.2939 -0.2101
 8326TIP3    H249174  -0.154   1.246  -3.627 -1.8463  1.3951 -2.2514
 8327TIP3   OH249175   3.129   3.142  -5.666  0.4253 -0.5259 -0.1263
 8327TIP3    H149176   3.150   3.049  -5.651  3.0495 -0.4312 -2.2829
 8327TIP3    H249177   3.099   3.145  -5.757 -1.2109  0.5807  0.4151
 8328TIP3   OH249178   0.599   0.320  -4.584  0.1462 -0.4401 -0.1690
 8328TIP3    H149179   0.531   0.381  -4.611 -0.3577 -0.5776  0.7504
 8328TIP3    H249180   0.559   0.233  -4.593 -0.4884 -0.4530  2.0891
 8329TIP3   OH249181   1.225  -3.284  -3.799  0.6350 -0.2642  0.2747
 8329TIP3    H149182   1.243  -3.313  -3.888 -0.2274  2.0150 -0.7398
 8329TIP3    H249183   1.177  -3.356  -3.759 -1.0944 -0.4367 -1.9411
 8330TIP3   OH249184   0.407  -0.062  -5.860 -0.6518 -0.5305 -0.0159
 8330TIP3    H149185   0.373  -0.109  -5.936 -0.7477 -2.1008  0.9496
 8330TIP3    H249186   0.329  -0.023  -5.820 -0.6945 -0.3035 -0.3136
 8331TIP3   OH249187   1.588   3.046  -4.765 -0.2052 -0.1532  0.1718
 8331TIP3    H149188   1.505   3.083  -4.795 -1.6561 -0.9325  2.9049
 8331TIP3    H249189   1.598   3.078  -4.676  1.2408 -1.9892  0.7270
 8332TIP3   OH249190   1.593  -1.429  -5.521  0.3531 -0.6935  0.2741
 8332TIP3    H149191   1.556  -1.341  -5.527 -0.8100 -1.2361 -0.9392
 8332TIP3    H249192   1.688  -1.415  -5.522  0.2036  0.4715 -1.4362
 8333TIP3   OH249193  -2.607  -0.365  -2.936  0.2185  0.1592  0.0710
 8333TIP3    H149194  -2.695  -0.389  -2.908  0.1953  0.2542  0.0790
 8333TIP3    H249195  -2.604  -0.391  -3.028  0.5003 -0.7248  0.3140
 8334TIP3   OH249196  -2.235  -2.512  -5.062 -0.0486 -0.7068 -0.1826
 8334TIP3    H149197  -2.287  -2.525  -5.142  1.5928 -0.6639 -1.3033
 8334TIP3    H249198  -2.276  -2.437  -5.019 -0.3258 -0.0398 -1.5495
 8335TIP3   OH249199   1.314   0.418  -4.439 -0.0508 -0.6180  0.0964
 8335TIP3    H149200   1.272   0.366  -4.508 -0.9289  0.5362 -0.2860
 8335TIP3    H249201   1.395   0.450  -4.479 -1.5015  1.6992 -1.1883
 8336TIP3   OH249202  -1.582   3.120   5.222 -0.4870  0.2494  0.1100
 8336TIP3    H149203  -1.606   3.206   5.258  1.2390  1.7288 -2.0166
 8336TIP3    H249204  -1.504   3.094   5.271 -1.2297 -0.3571  1.0200
 8337TIP3   OH249205   1.317  -3.220  -1.920  0.1398 -0.2091  0.0861
 8337TIP3    H149206   1.385  -3.282  -1.946 -0.3876 -0.6788 -0.1686
 8337TIP3    H249207   1.246  -3.233  -1.982 -1.1868 -1.4200  1.7520
 8338TIP3   OH249208  -1.612  -3.192  -3.384 -0.3028 -0.4277 -0.2333
 8338TIP3    H149209  -1.559  -3.266  -3.414 -0.5858 -0.5314 -0.4876
 8338TIP3    H249210  -1.553  -3.140  -3.331  0.8311  0.8647 -2.6161
 8339TIP3   OH249211  -1.593  -2.652  -3.313 -0.2146 -0.2755 -0.1832
 8339TIP3    H149212  -1.604  -2.663  -3.218 -0.7650  1.1082 -0.0578
 8339TIP3    H249213  -1.608  -2.559  -3.328  0.2385 -0.4039 -1.5947
 8340TIP3   OH249214  -2.196  -0.326  -3.756 -0.2363  0.0393 -0.4036
 8340TIP3    H149215  -2.289  -0.310  -3.743  0.0124  0.5569  0.8798
 8340TIP3    H249216  -2.161  -0.341  -3.668  0.5489 -2.2325 -1.0399
 8341TIP3   OH249217   1.844   0.504  -2.914 -0.1262 -0.6703  0.2591
 8341TIP3    H149218   1.874   0.439  -2.977  0.4541 -1.1883  1.0434
 8341TIP3    H249219   1.924   0.548  -2.884 -0.4690  0.0979  0.0802
 8342TIP3   OH249220   0.736  -0.533  -3.040  0.1885  0.0008  0.3796
 8342TIP3    H149221   0.793  -0.609  -3.031  0.0580  0.0185  1.4375
 8342TIP3    H249222   0.780  -0.478  -3.105  0.5246 -0.7482 -0.0387
 8343TIP3   OH249223  -1.175  -0.617  -4.278  0.3471 -0.1317 -0.8912
 8343TIP3    H149224  -1.081  -0.635  -4.280  1.0498  2.3592  1.6197
 8343TIP3    H249225  -1.210  -0.679  -4.214  0.8949  0.7889  0.3488
 8344TIP3   OH249226   2.245  -1.678  -3.351 -0.4246  0.2209 -0.4885
 8344TIP3    H149227   2.266  -1.747  -3.414 -0.0474 -0.6451  0.5680
 8344TIP3    H249228   2.307  -1.607  -3.371  0.3007 -0.4094 -0.4933
 8345TIP3   OH249229   0.498  -2.768  -3.021 -0.0541 -0.7295 -0.0478
 8345TIP3    H149230   0.475  -2.688  -3.067  2.1486  0.2417  0.3731
 8345TIP3    H249231   0.425  -2.784  -2.961  0.2894  2.1545  1.3218
 8346TIP3   OH249232   1.691  -1.962  -5.150 -0.0085  0.1351 -0.8187
 8346TIP3    H149233   1.686  -2.055  -5.126  1.9364  0.0019 -0.7325
 8346TIP3    H249234   1.686  -1.915  -5.067  0.5025  0.0165 -0.7181
 8347TIP3   OH249235   0.272   1.936  -2.690 -0.3320 -0.0283  0.6071
 8347TIP3    H149236   0.253   1.986  -2.769 -0.0457  0.4440  0.8340
 8347TIP3    H249237   0.188   1.928  -2.644 -1.0216 -2.3447 -0.8831
 8348TIP3   OH249238   2.909   2.242   4.919 -0.2430  0.5171  0.0642
 8348TIP3    H149239   2.976   2.247   4.988 -0.5331  0.0709  0.3853
 8348TIP3    H249240   2.903   2.332   4.886  0.4918  0.5701  0.0469
 8349TIP3   OH249241  -2.596   2.479  -5.143 -0.0567  0.0197 -0.2383
 8349TIP3    H149242  -2.617   2.561  -5.187 -0.7728 -1.4020 -2.7685
 8349TIP3    H249243  -2.595   2.501  -5.049 -1.3271  2.6372 -0.7531
 8350TIP3   OH249244  -0.225  -1.274  -3.576 -0.4802  0.1039 -0.3107
 8350TIP3    H149245  -0.224  -1.358  -3.622 -1.0831  0.3616 -0.8087
 8350TIP3    H249246  -0.185  -1.213  -3.637  2.1945 -0.2398  0.9547
 8351TIP3   OH249247   1.553  -1.148  -4.347 -0.2504 -0.2202 -0.4110
 8351TIP3    H149248   1.581  -1.086  -4.415 -0.2162  1.0892  0.7560
 8351TIP3    H249249   1.461  -1.126  -4.331  0.4256  1.2816  1.7738
 8352TIP3   OH249250   2.498  -1.026  -2.868 -0.4150 -0.6033  0.5146
 8352TIP3    H149251   2.494  -0.961  -2.938 -1.5645 -1.5032 -0.3024
 8352TIP3    H249252   2.420  -1.008  -2.815  0.2469 -0.1693  1.3504
 8353TIP3   OH249253  -2.550   0.822  -2.464  0.0975 -0.4208  0.5114
 8353TIP3    H149254  -2.483   0.856  -2.522  2.3943 -1.1208  2.5769
 8353TIP3    H249255  -2.571   0.895  -2.405  1.2132 -0.9886  1.6638
 8354TIP3   OH249256  -3.078   2.430  -2.986  0.0420  0.0457 -0.2322
 8354TIP3    H149257  -3.088   2.334  -2.988  0.1205  0.0326 -0.0327
 8354TIP3    H249258  -2.984   2.444  -2.999 -0.2869  0.2061 -3.0615
 8355TIP3   OH249259   0.423   1.736  -2.771 -0.1379 -0.2870  0.0927
 8355TIP3    H149260   0.374   1.804  -2.725  0.7023  0.7553 -0.4931
 8355TIP3    H249261   0.356   1.675  -2.802 -0.7693 -0.6399  2.0384
 8356TIP3   OH249262   2.177   2.840  -2.843 -0.0618 -0.1147  0.3115
 8356TIP3    H149263   2.153   2.754  -2.878 -0.2381  0.2329 -0.4499
 8356TIP3    H249264   2.264   2.828  -2.805 -0.3762 -0.7916  0.8351
 8357TIP3   OH249265  -3.301  -2.886  -3.700 -0.2189 -0.1578  0.5930
 8357TIP3    H149266  -3.304  -2.791  -3.712 -0.7996 -0.3202 -0.7021
 8357TIP3    H249267  -3.374  -2.905  -3.640  1.3420  0.4256  2.8288
 8358TIP3   OH249268  -2.549   1.148  -3.643 -0.5981  0.3175 -0.3624
 8358TIP3    H149269  -2.624   1.122  -3.590  0.3620 -0.0813  0.8542
 8358TIP3    H249270  -2.586   1.204  -3.711 -2.3808 -2.1820 -1.5948
 8359TIP3   OH249271   0.118   1.429  -4.293 -0.3775 -0.4825 -0.2315
 8359TIP3    H149272   0.096   1.355  -4.350 -0.2636  0.0219 -0.9330
 8359TIP3    H249273   0.061   1.500  -4.323  0.7952  0.2497 -0.7599
 8360TIP3   OH249274   0.814  -3.320  -4.248  0.2160 -0.0377 -0.4447
 8360TIP3    H149275   0.807  -3.367  -4.165 -1.0462  0.1526 -0.4189
 8360TIP3    H249276   0.884  -3.365  -4.295  0.3734 -0.6869  0.3823
 8361TIP3   OH249277  -2.268   3.122  -4.464  0.8187  0.9441  0.6031
 8361TIP3    H149278  -2.198   3.172  -4.425  0.7688  1.1801  0.3911
 8361TIP3    H249279  -2.277   3.045  -4.408  0.9933  1.0980  0.8417
 8362TIP3   OH249280  -2.274   2.671  -4.351  0.0435 -0.9620  0.1351
 8362TIP3    H149281  -2.344   2.703  -4.407 -1.2327  1.0906  2.6753
 8362TIP3    H249282  -2.309   2.589  -4.314 -0.4171 -0.7277  0.2326
 8363TIP3   OH249283   1.201   3.171  -1.842  0.1554  0.2632 -0.9889
 8363TIP3    H149284   1.120   3.216  -1.820  0.3159 -0.4456  1.2455
 8363TIP3    H249285   1.173   3.090  -1.885 -0.2556  0.6685 -1.4986
 8364TIP3   OH249286   3.211  -2.518  -2.054  0.4116 -0.1371  0.4790
 8364TIP3    H149287   3.199  -2.566  -1.972 -2.5376  1.6711  1.2713
 8364TIP3    H249288   3.140  -2.551  -2.110  2.1819 -1.1121 -1.3367
 8365TIP3   OH249289   0.881   3.126  -5.098 -0.5154  0.3757 -0.1623
 8365TIP3    H149290   0.801   3.144  -5.049  0.2520  1.5289  0.7315
 8365TIP3    H249291   0.875   3.182  -5.175 -1.6071 -1.2557 -1.3374
 8366TIP3   OH249292   1.899   1.318  -3.173  0.5044  0.2411 -0.0288
 8366TIP3    H149293   1.827   1.350  -3.227  0.4548  0.6731  0.2847
 8366TIP3    H249294   1.881   1.354  -3.086 -0.3530 -1.8492  0.7195
 8367TIP3   OH249295   2.380  -2.427  -2.712 -0.1616  0.3418 -0.0148
 8367TIP3    H149296   2.353  -2.419  -2.620 -1.1042 -0.0675 -0.2498
 8367TIP3    H249297   2.327  -2.498  -2.746  2.2132 -1.4937 -0.1391
 8368TIP3   OH249298  -0.446  -1.006  -3.938  0.1896  0.2595 -0.1170
 8368TIP3    H149299  -0.428  -1.100  -3.935  2.2427  0.6084  0.1376
 8368TIP3    H249300  -0.369  -0.968  -3.980 -0.2660  1.9008  0.4469
 8369TIP3   OH249301   0.537  -2.848  -4.753  0.1037 -0.0151  0.0073
 8369TIP3    H149302   0.541  -2.925  -4.809 -2.7846 -0.2803 -0.0038
 8369TIP3    H249303   0.601  -2.864  -4.684  0.4878 -1.8101 -0.7131
 8370TIP3   OH249304   1.482   2.331  -5.750  0.0975  0.4848 -0.2442
 8370TIP3    H149305   1.462   2.407  -5.695 -0.9780  1.0730 -1.3956
 8370TIP3    H249306   1.533   2.273  -5.693  0.8573  2.0172  0.6866
 8371TIP3   OH249307  -1.110   2.672  -3.544  0.3755 -0.1730 -0.0709
 8371TIP3    H149308  -1.016   2.663  -3.556  0.8675  1.1360  2.1439
 8371TIP3    H249309  -1.134   2.601  -3.484  0.4719  0.9531  1.3540
 8372TIP3   OH249310  -1.079   1.401  -5.631 -0.1554 -0.2662  0.5099
 8372TIP3    H149311  -1.073   1.496  -5.627  0.0762 -0.3216  2.2505
 8372TIP3    H249312  -1.163   1.380  -5.589 -0.7698 -0.7908 -0.9159
 8373TIP3   OH249313  -2.016  -2.029  -3.734  0.4740  0.3895  0.1839
 8373TIP3    H149314  -1.988  -2.112  -3.774  0.4036  1.0735 -1.3912
 8373TIP3    H249315  -2.111  -2.036  -3.726  0.4100  0.4903 -0.4159
 8374TIP3   OH249316  -3.257  -3.263  -3.892 -0.4776  0.1755  0.3497
 8374TIP3    H149317  -3.245  -3.357  -3.903  0.9675  0.5373 -2.0938
 8374TIP3    H249318  -3.197  -3.239  -3.822 -2.0353 -0.8967  2.1175
 8375TIP3   OH249319  -2.816   1.399  -5.362  0.2107  0.5315  0.4216
 8375TIP3    H149320  -2.856   1.331  -5.417  2.8236 -1.5626  0.8986
 8375TIP3    H249321  -2.726   1.404  -5.393  1.3105  0.5292  3.2977
 8376TIP3   OH249322   2.942  -1.651  -5.345 -0.2856 -0.1101 -0.2547
 8376TIP3    H149323   2.962  -1.738  -5.380  1.2135 -0.2040  0.8001
 8376TIP3    H249324   3.009  -1.594  -5.382  0.1872  0.1403  0.9521
 8377TIP3   OH249325  -1.045   1.873  -3.851 -0.0497 -0.5373  0.1068
 8377TIP3    H149326  -1.092   1.840  -3.928 -3.2696  0.9754  1.2368
 8377TIP3    H249327  -1.108   1.863  -3.779  1.7991  0.6519  1.9829
 8378TIP3   OH249328  -1.753  -0.756  -2.946  0.2155 -0.4382 -0.1485
 8378TIP3    H149329  -1.835  -0.771  -2.899  0.2747 -0.3863 -0.0302
 8378TIP3    H249330  -1.690  -0.813  -2.903  0.4091  0.0461  0.2114
 8379TIP3   OH249331   2.727   1.521  -5.502  0.0025 -0.1769 -0.3094
 8379TIP3    H149332   2.667   1.592  -5.526  0.6582  0.5160  0.0689
 8379TIP3    H249333   2.710   1.505  -5.409  0.2808 -0.1023 -0.2453
 8380TIP3   OH249334   1.637   0.300  -2.836  0.1728 -0.0085  0.3194
 8380TIP3    H149335   1.675   0.382  -2.868  0.3068  0.3438  1.3371
 8380TIP3    H249336   1.545   0.321  -2.820 -0.2803 -0.6201 -1.3051
 8381TIP3   OH249337   0.429  -2.116  -4.768 -0.0506 -0.1143 -0.2497
 8381TIP3    H149338   0.430  -2.209  -4.747 -1.2045  0.0848  0.8530
 8381TIP3    H249339   0.519  -2.097  -4.797  0.9553 -1.0581  1.9499
 8382TIP3   OH249340   3.191   1.812  -3.452  0.1873  0.0179  0.1920
 8382TIP3    H149341   3.136   1.890  -3.467  0.5630  0.5801  1.5964
 8382TIP3    H249342   3.182   1.761  -3.533 -1.4491  0.6698 -0.0814
 8383TIP3   OH249343   0.043  -2.145  -3.430 -0.2187 -0.1029 -0.4689
 8383TIP3    H149344   0.124  -2.195  -3.439 -0.6782 -0.8851 -0.2693
 8383TIP3    H249345  -0.018  -2.186  -3.491 -0.0023  1.4890 -1.8196
 8384TIP3   OH249346   2.649   1.426  -5.268  0.0312 -0.6346 -0.1508
 8384TIP3    H149347   2.568   1.471  -5.245 -1.4622 -2.7392 -1.0274
 8384TIP3    H249348   2.673   1.378  -5.189 -0.3942 -1.1297 -0.3140
 8385TIP3   OH249349   0.029   2.936  -3.356  0.2539  0.1662  0.5116
 8385TIP3    H149350   0.078   2.917  -3.277  0.3116  0.2968  0.5079
 8385TIP3    H249351   0.052   3.027  -3.378  1.5270 -0.3788 -0.5736
 8386TIP3   OH249352   0.994   2.826  -3.145  0.2934  0.1257  0.3201
 8386TIP3    H149353   0.988   2.814  -3.050  1.3701  1.8606  0.6544
 8386TIP3    H249354   1.071   2.775  -3.171  1.5397  1.6716  0.8298
 8387TIP3   OH249355  -2.250   2.302  -4.535  0.0624  0.5088  0.4189
 8387TIP3    H149356  -2.296   2.378  -4.499 -0.7603 -0.5851  1.7937
 8387TIP3    H249357  -2.198   2.269  -4.461  2.9005  1.5128 -0.9983
 8388TIP3   OH249358  -2.512   1.674  -3.367 -0.1891  0.1771 -0.1169
 8388TIP3    H149359  -2.431   1.724  -3.376  0.7506 -1.1498  0.7483
 8388TIP3    H249360  -2.486   1.583  -3.378 -1.4250 -0.3466  1.0515
 8389TIP3   OH249361   1.070  -0.114  -2.942  0.1503 -0.8590 -0.4949
 8389TIP3    H149362   1.164  -0.118  -2.930  0.4068 -3.4606 -2.5511
 8389TIP3    H249363   1.034  -0.167  -2.870  0.3864 -1.1103 -0.5603
 8390TIP3   OH249364  -0.020  -1.148  -3.066 -0.4497 -0.0398 -0.0888
 8390TIP3    H149365  -0.108  -1.174  -3.095 -0.9767  1.7788 -0.2416
 8390TIP3    H249366  -0.021  -1.052  -3.069  2.1095  0.0293 -1.8166
 8391TIP3   OH249367   1.008  -0.364  -5.048 -0.3453  0.0279 -0.2229
 8391TIP3    H149368   1.082  -0.394  -5.101  0.7475  1.6423  0.3104
 8391TIP3    H249369   1.010  -0.269  -5.056 -3.0896  0.1016 -1.1074
 8392TIP3   OH249370   2.290  -1.971  -2.180 -0.0357 -0.3113  0.6774
 8392TIP3    H149371   2.347  -1.920  -2.238  0.0711  0.3378  1.3307
 8392TIP3    H249372   2.307  -1.935  -2.093  1.3451 -2.6003  1.4628
 8393TIP3   OH249373   3.300  -0.073  -5.265  0.1361  0.3075  0.9637
 8393TIP3    H149374   3.237  -0.122  -5.213  1.9444  0.8270  3.8556
 8393TIP3    H249375   3.334  -0.137  -5.328  1.4378 -1.9431  3.7058
 8394TIP3   OH249376  -0.047   2.340  -3.283 -0.1542 -0.5347  0.1707
 8394TIP3    H149377  -0.086   2.406  -3.225  2.3736 -0.0361  1.4639
 8394TIP3    H249378  -0.093   2.351  -3.366 -0.6442  2.0972  0.6778
 8395TIP3   OH249379   1.830  -2.848  -4.660 -0.2496  0.2727  0.1965
 8395TIP3    H149380   1.817  -2.809  -4.747  1.0347 -0.1859 -0.2231
 8395TIP3    H249381   1.856  -2.938  -4.678 -0.6290 -0.0244  1.0882
 8396TIP3   OH249382   1.949  -2.179  -5.210  0.3165 -0.0962 -0.0211
 8396TIP3    H149383   2.022  -2.121  -5.232 -0.0133  0.6362  0.7530
 8396TIP3    H249384   1.970  -2.211  -5.122 -0.7727  0.9183  0.6286
 8397TIP3   OH249385   0.327   1.706  -3.797 -0.2557 -0.2142 -0.1554
 8397TIP3    H149386   0.237   1.683  -3.819 -1.3575  2.9879  0.3296
 8397TIP3    H249387   0.331   1.700  -3.701 -1.0215  2.4785  0.1410
 8398TIP3   OH249388   1.045  -2.543  -4.990  0.0921  0.3528  0.2231
 8398TIP3    H149389   1.026  -2.634  -5.009  0.7488  0.6858 -2.4220
 8398TIP3    H249390   0.963  -2.497  -5.010  0.5654  0.6173 -1.2565
 8399TIP3   OH249391  -1.398  -0.780  -3.172  0.5553 -0.3646  0.1027
 8399TIP3    H149392  -1.485  -0.747  -3.194  0.7055  0.8671  1.1927
 8399TIP3    H249393  -1.400  -0.872  -3.196 -1.0220 -0.3370  0.0379
 8400TIP3   OH249394   1.646  -2.364  -5.925 -0.4345  0.2708  0.3679
 8400TIP3    H149395   1.582  -2.431  -5.951  0.4807 -0.5403  0.1399
 8400TIP3    H249396   1.709  -2.411  -5.870 -0.5075  1.2469  1.3111
 8401TIP3   OH249397  -1.878  -2.296  -3.495 -0.2875  0.3418 -0.1035
 8401TIP3    H149398  -1.916  -2.209  -3.481 -2.4141 -0.0842 -2.6404
 8401TIP3    H249399  -1.802  -2.280  -3.551 -0.3672  0.5879 -0.1423
 8402TIP3   OH249400  -2.263   1.581  -3.736  0.8900  0.6618 -0.2410
 8402TIP3    H149401  -2.318   1.519  -3.782  0.3302  1.3154 -0.4691
 8402TIP3    H249402  -2.268   1.662  -3.788  1.0529  1.1070  0.4172
 8403TIP3   OH249403   2.873   2.946  -3.714  0.7032  0.3352  0.4136
 8403TIP3    H149404   2.939   2.967  -3.781  1.0146  0.9203  0.8991
 8403TIP3    H249405   2.817   3.023  -3.710  0.9742  0.5032  1.1649
 8404TIP3   OH249406  -2.886  -1.839  -3.481  0.8384 -0.3048 -0.3231
 8404TIP3    H149407  -2.801  -1.796  -3.471  0.1981  1.0852 -0.5568
 8404TIP3    H249408  -2.933  -1.783  -3.544 -1.2257  0.5176  1.8134
 8405TIP3   OH249409  -0.890  -0.579  -5.105 -0.0278  0.1179  0.1035
 8405TIP3    H149410  -0.956  -0.626  -5.157 -0.1941  0.2145  0.2247
 8405TIP3    H249411  -0.861  -0.643  -5.040  0.1431  0.0131 -0.0764
 8406TIP3   OH249412  -1.789  -2.140  -4.812 -0.1993 -0.5099  0.0725
 8406TIP3    H149413  -1.882  -2.160  -4.809 -0.5804  0.7316 -1.7800
 8406TIP3    H249414  -1.785  -2.045  -4.823  1.2273 -0.6924 -1.2854
 8407TIP3   OH249415  -3.017  -0.157  -5.550  0.1828 -0.2189 -0.8209
 8407TIP3    H149416  -2.926  -0.129  -5.567  0.5182 -0.9363 -0.2390
 8407TIP3    H249417  -3.008  -0.237  -5.498 -0.7968  0.1019 -0.1383
 8408TIP3   OH249418   2.790   3.008  -4.802 -0.5402  0.3220  0.3605
 8408TIP3    H149419   2.852   2.982  -4.871 -1.2520  1.5955 -0.8277
 8408TIP3    H249420   2.704   2.985  -4.837 -0.9090  0.8929  0.8713
 8409TIP3   OH249421   0.455   1.811  -4.010 -0.2657 -0.2327 -0.2220
 8409TIP3    H149422   0.422   1.795  -3.921 -0.7448 -0.0372 -0.3586
 8409TIP3    H249423   0.543   1.773  -4.010 -0.8381 -1.6358 -0.1181
 8410TIP3   OH249424   1.237  -0.673  -4.038 -0.3739 -0.2106 -0.0113
 8410TIP3    H149425   1.296  -0.734  -4.083  0.2628  0.2650  0.1739
 8410TIP3    H249426   1.219  -0.605  -4.103  1.0245  0.7961  0.6281
 8411TIP3   OH249427   2.131  -2.194  -2.121  0.1257 -0.2172  0.6416
 8411TIP3    H149428   2.077  -2.223  -2.195 -1.3066 -1.0236  1.9342
 8411TIP3    H249429   2.176  -2.116  -2.153 -2.9141  1.3994 -0.1315
 8412TIP3   OH249430  -2.084  -1.010  -3.946 -0.6248 -0.1358 -0.2159
 8412TIP3    H149431  -2.077  -1.091  -3.997 -0.5041  0.0680 -0.5242
 8412TIP3    H249432  -2.167  -0.971  -3.973  1.1079  1.8911 -3.1135
 8413TIP3   OH249433  -2.541  -1.503  -3.269  0.1484 -0.4792  0.2954
 8413TIP3    H149434  -2.499  -1.418  -3.265 -1.1349  0.2917 -1.6250
 8413TIP3    H249435  -2.605  -1.502  -3.197  0.6424 -0.1413  0.7367
 8414TIP3   OH249436   2.385  -0.031  -2.671  0.3844 -0.0896  0.8768
 8414TIP3    H149437   2.336  -0.102  -2.628  0.6543  0.3322  1.9134
 8414TIP3    H249438   2.420  -0.071  -2.750  0.4577 -1.1064  1.4011
 8415TIP3   OH249439  -1.703   1.797  -2.957  0.7157 -0.6076  0.5424
 8415TIP3    H149440  -1.745   1.735  -2.897 -1.8790 -0.5696 -1.0852
 8415TIP3    H249441  -1.775   1.833  -3.008  2.2508  2.8978  0.5752
 8416TIP3   OH249442   1.661   0.246  -3.235 -0.2067 -0.4190  0.0708
 8416TIP3    H149443   1.621   0.309  -3.176  1.2510  0.7140 -0.0867
 8416TIP3    H249444   1.587   0.204  -3.279 -1.2607 -0.1237  1.4991
 8417TIP3   OH249445  -0.112   2.064  -3.266 -0.5322 -0.2988 -0.2026
 8417TIP3    H149446  -0.043   2.129  -3.279  0.5114 -1.3169  0.1294
 8417TIP3    H249447  -0.190   2.117  -3.248  0.1974  0.8750 -0.3364
 8418TIP3   OH249448  -3.019   2.718  -2.131  0.4347  0.4373 -0.7909
 8418TIP3    H149449  -3.078   2.643  -2.122  0.5696  0.5032  1.0543
 8418TIP3    H249450  -3.070   2.792  -2.098  0.9792  0.7964 -0.7567
 8419TIP3   OH249451  -2.818  -2.177  -2.970  0.4246  0.0227  0.3666
 8419TIP3    H149452  -2.861  -2.093  -2.986 -0.8425 -0.1882  2.3199
 8419TIP3    H249453  -2.743  -2.177  -3.030 -0.0829  2.1092 -0.3742
 8420TIP3   OH249454   1.247  -0.737  -5.226 -0.1888  0.4220 -0.6325
 8420TIP3    H149455   1.207  -0.823  -5.236  1.1758 -0.2961 -0.1273
 8420TIP3    H249456   1.185  -0.687  -5.173 -1.3227 -0.0007 -1.5182
 8421TIP3   OH249457  -2.356  -1.088  -2.827 -0.0634 -0.3969  0.0541
 8421TIP3    H149458  -2.358  -1.117  -2.735  2.8057 -0.1808  0.2580
 8421TIP3    H249459  -2.298  -1.012  -2.828 -0.1419 -0.3049 -1.9321
 8422TIP3   OH249460  -1.018   1.105  -5.217 -0.1781  0.5240  0.6660
 8422TIP3    H149461  -1.065   1.188  -5.224 -0.3435  0.4187  0.5381
 8422TIP3    H249462  -1.017   1.087  -5.123 -2.3704 -0.6044  0.5346
 8423TIP3   OH249463   1.381  -0.061  -4.481 -0.0930 -0.1407 -0.3759
 8423TIP3    H149464   1.416   0.028  -4.474  0.7515 -0.5153  0.5231
 8423TIP3    H249465   1.458  -0.117  -4.472 -0.7567 -0.9764  0.2304
 8424TIP3   OH249466   0.731   1.410  -5.333  0.3336 -0.4479  0.3011
 8424TIP3    H149467   0.721   1.316  -5.341 -0.7648 -0.2083 -1.8566
 8424TIP3    H249468   0.667   1.435  -5.266  0.8134 -1.2210  1.0765
 8425TIP3   OH249469  -0.921   2.165  -3.795 -0.1449 -0.4392 -0.3496
 8425TIP3    H149470  -0.956   2.084  -3.833  2.2801 -2.1804  0.7963
 8425TIP3    H249471  -0.959   2.169  -3.708 -0.3802 -0.2713 -0.4609
 8426TIP3   OH249472  -2.539   2.014  -3.340 -0.4511  0.1015 -0.3227
 8426TIP3    H149473  -2.481   2.048  -3.408  1.6672 -1.2871  0.6742
 8426TIP3    H249474  -2.537   1.919  -3.351 -0.7410 -0.1036  1.1316
 8427TIP3   OH249475   1.162   2.970  -2.818  0.0979 -0.4680  0.0948
 8427TIP3    H149476   1.243   2.974  -2.868  2.0707  0.2574  3.0860
 8427TIP3    H249477   1.155   3.056  -2.777 -1.9060 -0.7108  0.3566
 8428TIP3   OH249478  -2.797   1.566  -3.752 -0.1883 -0.1891 -0.1477
 8428TIP3    H149479  -2.764   1.612  -3.675  0.5389  2.6643 -2.0016
 8428TIP3    H249480  -2.885   1.601  -3.765  0.1253  0.2371 -1.2318
 8429TIP3   OH249481   0.635   3.363  -3.346 -0.0313  0.7753 -0.3603
 8429TIP3    H149482   0.558   3.416  -3.367  0.0426  1.1971  0.4088
 8429TIP3    H249483   0.603   3.273  -3.349 -0.9210  1.0026  1.3221
 8430TIP3   OH249484   0.236   1.084  -3.325 -0.7014  0.5123  0.1858
 8430TIP3    H149485   0.319   1.116  -3.363 -0.3554 -1.1569 -0.5865
 8430TIP3    H249486   0.224   1.136  -3.246  0.8488  1.1320  0.0596
 8431TIP3   OH249487  -1.310   2.039  -2.453 -0.2905  0.0841  0.3292
 8431TIP3    H149488  -1.245   2.057  -2.385 -0.4548 -0.9208  0.7580
 8431TIP3    H249489  -1.258   2.024  -2.532 -0.1114  1.5954  0.1175
 8432TIP3   OH249490  -2.314   0.702  -4.883 -0.0816 -0.3705  0.5768
 8432TIP3    H149491  -2.400   0.688  -4.842 -0.8700 -0.8151 -1.1409
 8432TIP3    H249492  -2.312   0.796  -4.901 -1.7858 -0.7900 -2.5029
 8433TIP3   OH249493   2.034  -0.486  -3.622  0.5313 -0.1379  0.0644
 8433TIP3    H149494   2.038  -0.487  -3.718  1.4094  0.3199  0.0875
 8433TIP3    H249495   2.020  -0.578  -3.598  1.4156 -0.4310 -0.4765
 8434TIP3   OH249496   0.933   2.042  -5.600  0.0685  0.1130 -0.5667
 8434TIP3    H149497   0.994   2.105  -5.639  0.1068 -0.7051 -1.8923
 8434TIP3    H249498   0.987   1.965  -5.580  0.4382  1.1065  2.8736
 8435TIP3   OH249499  -1.580  -1.194  -2.290  0.5505 -0.4275  0.4923
 8435TIP3    H149500  -1.493  -1.229  -2.273  0.3366 -0.6260  1.2055
 8435TIP3    H249501  -1.638  -1.270  -2.282  0.3587 -0.3785 -0.3970
 8436TIP3   OH249502   1.798  -2.191  -3.435 -0.0677 -0.8663 -0.3054
 8436TIP3    H149503   1.811  -2.104  -3.473  1.6772 -0.3559  1.3513
 8436TIP3    H249504   1.857  -2.247  -3.485  1.6019 -0.3534  1.0256
 8437TIP3   OH249505   3.235   0.181  -3.523 -0.1868  0.4398 -0.4662
 8437TIP3    H149506   3.288   0.226  -3.457  0.3295 -0.6639 -0.0998
 8437TIP3    H249507   3.296   0.124  -3.569 -1.0207 -0.8054 -0.0837
 8438TIP3   OH249508  -2.175  -1.795  -3.589  0.4647 -0.3513  0.6506
 8438TIP3    H149509  -2.113  -1.868  -3.593  1.2097  0.3206 -1.0070
 8438TIP3    H249510  -2.212  -1.790  -3.677 -0.4359  0.5456  1.0623
 8439TIP3   OH249511   0.711  -1.377  -4.650 -0.0795 -0.1468 -0.4956
 8439TIP3    H149512   0.619  -1.403  -4.652 -0.7137  1.8916 -1.3473
 8439TIP3    H249513   0.725  -1.334  -4.735  1.0423  1.4518  0.4548
 8440TIP3   OH249514   2.215  -1.777  -5.844  0.0105  0.1643 -0.2568
 8440TIP3    H149515   2.152  -1.720  -5.887  0.7653  1.3308  0.1585
 8440TIP3    H249516   2.262  -1.721  -5.783  1.4394 -0.6755 -0.5329
 8441TIP3   OH249517   0.305  -2.071  -4.129  0.4781  0.2428  0.2513
 8441TIP3    H149518   0.360  -2.046  -4.203 -0.2110 -0.3919 -0.5009
 8441TIP3    H249519   0.218  -2.083  -4.168  0.5083 -2.0935  0.7566
 8442TIP3   OH249520   1.253   2.171  -5.074  0.1532 -0.3142 -0.1715
 8442TIP3    H149521   1.278   2.108  -5.006  1.0338 -0.6819 -0.8193
 8442TIP3    H249522   1.305   2.250  -5.054  0.9248 -0.6489 -0.7819
 8443TIP3   OH249523   1.657   0.876  -5.013 -0.3760 -0.5328 -0.2872
 8443TIP3    H149524   1.561   0.874  -5.021 -0.6331  4.7181 -1.8946
 8443TIP3    H249525   1.674   0.936  -4.941  1.8478 -1.9509  0.4903
 8444TIP3   OH249526  -1.706  -2.459  -5.271 -0.0693 -0.5509  0.0823
 8444TIP3    H149527  -1.748  -2.431  -5.189 -1.1685  1.6931 -1.1503
 8444TIP3    H249528  -1.775  -2.449  -5.337  0.8928 -2.0114 -1.1922
 8445TIP3   OH249529   2.422  -2.531  -3.793  0.1576  0.2397 -0.4514
 8445TIP3    H149530   2.347  -2.546  -3.850  1.4075 -3.4603 -1.3842
 8445TIP3    H249531   2.475  -2.465  -3.839 -0.9740  0.5752 -1.3000
 8446TIP3   OH249532   2.883  -1.936  -4.966  0.0672  0.1130  0.2341
 8446TIP3    H149533   2.939  -2.009  -4.938 -2.2727 -1.3051  1.5990
 8446TIP3    H249534   2.902  -1.866  -4.903  0.8746 -0.0271  0.1611
 8447TIP3   OH249535  -0.392  -3.308  -5.848  0.6198 -0.1266 -0.6104
 8447TIP3    H149536  -0.357  -3.259  -5.773 -0.4773  0.4938 -0.4796
 8447TIP3    H249537  -0.336  -3.385  -5.854  0.5776 -0.3337  1.0206
 8448TIP3   OH249538  -2.702  -2.238  -3.511  0.4191  0.0724 -0.0704
 8448TIP3    H149539  -2.686  -2.302  -3.443  2.1092  1.6414  1.0946
 8448TIP3    H249540  -2.615  -2.211  -3.541  0.0802  4.3424  2.0120
 8449TIP3   OH249541  -1.783  -1.603  -5.741  0.3623 -0.1355  0.3212
 8449TIP3    H149542  -1.725  -1.528  -5.750  2.1853 -1.3453  1.2054
 8449TIP3    H249543  -1.871  -1.566  -5.743  1.1378  2.5793  4.4573
 8450TIP3   OH249544   0.285   0.620  -5.555  0.5981 -0.6146  0.7937
 8450TIP3    H149545   0.193   0.642  -5.540  0.4693 -1.1077  0.7391
 8450TIP3    H249546   0.284   0.528  -5.579  1.2121 -0.9293  1.9058
 8451TIP3   OH249547   1.850   0.829  -2.606 -0.0672  0.1674  0.2173
 8451TIP3    H149548   1.876   0.878  -2.528  0.3034 -0.5871  0.5766
 8451TIP3    H249549   1.754   0.838  -2.609 -0.0271  0.7363  0.3819
 8452TIP3   OH249550  -0.444  -2.644  -2.490 -0.0501  0.1312 -0.0396
 8452TIP3    H149551  -0.360  -2.618  -2.528 -1.0513  0.2197 -2.4419
 8452TIP3    H249552  -0.422  -2.698  -2.415  2.2646 -2.3648 -2.2881
 8453TIP3   OH249553  -1.764   2.520  -3.764 -0.2712 -0.4605 -0.5435
 8453TIP3    H149554  -1.702   2.566  -3.707  0.3251 -1.1512 -0.6147
 8453TIP3    H249555  -1.839   2.502  -3.707 -0.5802  0.6972 -0.5513
 8454TIP3   OH249556   0.580  -0.746  -4.658  0.2843  0.0397 -0.1391
 8454TIP3    H149557   0.525  -0.790  -4.593 -0.7848  1.3861 -0.0932
 8454TIP3    H249558   0.595  -0.659  -4.622 -1.3331  1.2460 -2.1937
 8455TIP3   OH249559  -3.087   0.077  -4.403  0.0362 -0.0540  0.2110
 8455TIP3    H149560  -3.046   0.035  -4.328 -0.9463 -0.0250  0.7843
 8455TIP3    H249561  -3.109   0.165  -4.372 -0.0440  0.0827 -0.2224
 8456TIP3   OH249562  -0.522  -0.132  -5.573 -0.0336 -0.1081  0.0158
 8456TIP3    H149563  -0.444  -0.164  -5.617 -0.5697  0.0436 -1.0793
 8456TIP3    H249564  -0.526  -0.182  -5.491  0.9363 -0.4563 -0.1422
 8457TIP3   OH249565  -1.205  -2.480  -4.007 -0.2590 -0.6302  0.0804
 8457TIP3    H149566  -1.276  -2.417  -3.994 -0.4833  0.0708 -3.5976
 8457TIP3    H249567  -1.249  -2.564  -4.019 -0.8854  0.1098 -4.2919
 8458TIP3   OH249568  -2.662   0.115  -3.959 -0.5340 -0.1755  0.4392
 8458TIP3    H149569  -2.574   0.123  -3.920  0.2310  0.8868 -1.4009
 8458TIP3    H249570  -2.702   0.201  -3.945  0.0035  0.4494 -1.6114
 8459TIP3   OH249571  -0.421   1.735  -5.035  0.6523 -0.0233  0.4688
 8459TIP3    H149572  -0.402   1.743  -5.129 -1.3699  0.1716  0.0124
 8459TIP3    H249573  -0.418   1.824  -5.002 -1.9088  0.3916 -0.1962
 8460TIP3   OH249574   1.341  -1.134  -4.633  0.3977  0.1026  0.1029
 8460TIP3    H149575   1.367  -1.227  -4.631  0.7806  0.2242  0.8778
 8460TIP3    H249576   1.418  -1.087  -4.602  0.3346  0.7202 -0.6516
 8461TIP3   OH249577   2.896  -1.167  -3.221  0.0205 -0.1343  0.1203
 8461TIP3    H149578   2.902  -1.238  -3.284 -0.7682 -0.3831  0.3203
 8461TIP3    H249579   2.987  -1.146  -3.200  0.3567  0.6502 -1.8610
 8462TIP3   OH249580  -0.122  -3.200  -5.035 -0.9954 -0.2022  0.3897
 8462TIP3    H149581  -0.208  -3.238  -5.020 -1.2697  0.7260  1.2324
 8462TIP3    H249582  -0.075  -3.213  -4.953 -0.7499  0.3645  0.3456
 8463TIP3   OH249583  -0.223   0.353  -4.983  0.0581  0.2170 -0.3067
 8463TIP3    H149584  -0.313   0.347  -5.016 -0.7177  1.4203  1.4162
 8463TIP3    H249585  -0.228   0.321  -4.893  1.3535  0.3046 -0.1858
 8464TIP3   OH249586   0.175   2.082  -5.457  0.2723 -0.3246  0.6073
 8464TIP3    H149587   0.254   2.071  -5.403  1.9197  3.1176 -0.8015
 8464TIP3    H249588   0.191   2.026  -5.534  1.9235  1.0481 -0.1251
 8465TIP3   OH249589   2.883  -2.527  -3.275 -0.3526  0.2260 -0.1506
 8465TIP3    H149590   2.920  -2.519  -3.363  0.3983 -2.5207 -0.1644
 8465TIP3    H249591   2.944  -2.480  -3.218 -0.3447  1.2172 -0.9577
 8466TIP3   OH249592  -2.056   0.703  -4.744 -0.2040 -0.0760 -0.4557
 8466TIP3    H149593  -2.079   0.724  -4.654 -0.2037 -0.7429 -0.2981
 8466TIP3    H249594  -2.139   0.707  -4.792 -0.3815 -0.7730 -0.2176
 8467TIP3   OH249595   0.495   1.381  -3.731  0.1282  0.1169  0.3323
 8467TIP3    H149596   0.516   1.297  -3.690 -0.0115 -0.5090 -0.8275
 8467TIP3    H249597   0.552   1.444  -3.688  0.3064 -0.5885  1.1564
 8468TIP3   OH249598   1.709  -2.415  -2.200 -0.4456  0.4072 -0.0957
 8468TIP3    H149599   1.690  -2.445  -2.111 -2.7242 -0.4871 -0.8128
 8468TIP3    H249600   1.627  -2.378  -2.231  0.9656  2.9857 -1.0156
 8469TIP3   OH249601  -1.477  -1.624  -4.778  0.1032 -0.1404  0.1671
 8469TIP3    H149602  -1.460  -1.702  -4.833  0.0305 -0.1386  0.1426
 8469TIP3    H249603  -1.391  -1.584  -4.767 -0.2582  1.8035 -2.8469
 8470TIP3   OH249604   2.778  -1.027  -5.524  1.0027  0.2464 -0.2333
 8470TIP3    H149605   2.847  -0.962  -5.513  1.3847 -0.1780 -0.1075
 8470TIP3    H249606   2.794  -1.065  -5.611  1.1345 -0.0868 -0.0666
 8471TIP3   OH249607  -1.832  -1.700  -3.639 -0.2767 -0.2503  0.0883
 8471TIP3    H149608  -1.861  -1.742  -3.720 -1.7076  0.5598  0.1370
 8471TIP3    H249609  -1.797  -1.771  -3.585  1.3037 -0.7142 -1.4667
 8472TIP3   OH249610  -3.161  -1.799  -2.518 -1.1698 -0.2238 -0.0625
 8472TIP3    H149611  -3.234  -1.762  -2.468 -0.8949  0.3875 -0.0948
 8472TIP3    H249612  -3.201  -1.859  -2.580 -1.8005  1.2172 -1.0997
 8473TIP3   OH249613   1.862  -0.324  -5.507 -0.3378 -0.2638  0.4616
 8473TIP3    H149614   1.922  -0.399  -5.515 -0.3180 -0.3164  1.0223
 8473TIP3    H249615   1.780  -0.355  -5.546 -0.1910 -0.4202  0.2772
 8474TIP3   OH249616  -1.437   1.431  -3.934 -0.4847  0.7198  0.1603
 8474TIP3    H149617  -1.348   1.421  -3.902 -0.1750  0.2401 -0.8043
 8474TIP3    H249618  -1.483   1.352  -3.905 -0.2297  0.3304 -0.4756
 8475TIP3   OH249619  -0.806   0.712  -3.285 -0.5239  0.0693  0.1345
 8475TIP3    H149620  -0.754   0.753  -3.216 -0.2595  2.2465 -1.2495
 8475TIP3    H249621  -0.744   0.659  -3.334 -0.6027 -1.0512  1.2030
 8476TIP3   OH249622   1.756  -3.239  -2.798 -0.0103  0.0077  0.5919
 8476TIP3    H149623   1.815  -3.183  -2.748 -0.8977  0.0342  1.6577
 8476TIP3    H249624   1.678  -3.185  -2.811 -0.6739 -0.7872  1.1768
 8477TIP3   OH249625  -2.057   1.531  -5.593  0.1568 -0.0079 -0.3706
 8477TIP3    H149626  -1.967   1.524  -5.623  0.5556 -2.0999  1.0396
 8477TIP3    H249627  -2.063   1.467  -5.521 -1.3353  2.9269  2.3786
 8478TIP3   OH249628   0.187  -2.083  -3.075 -0.0102 -0.3880  0.2683
 8478TIP3    H149629   0.101  -2.122  -3.092  0.1064 -0.5869  0.1202
 8478TIP3    H249630   0.230  -2.146  -3.016 -0.1511 -0.0443  0.7443
 8479TIP3   OH249631  -0.022  -1.836  -4.841 -0.1879  0.6219  0.3302
 8479TIP3    H149632   0.017  -1.765  -4.892 -0.5013 -0.0184 -0.8323
 8479TIP3    H249633   0.050  -1.868  -4.787  0.0302  1.6182  0.6546
 8480TIP3   OH249634  -1.420  -1.422  -2.826  0.0477  0.3825  0.7353
 8480TIP3    H149635  -1.346  -1.482  -2.826 -0.4852 -0.4445  3.5007
 8480TIP3    H249636  -1.392  -1.348  -2.881  2.4226 -0.4244  0.7463
 8481TIP3   OH249637   2.950   2.364  -2.901 -0.1703  0.1715 -0.0329
 8481TIP3    H149638   2.996   2.306  -2.960  0.2215  1.0036 -0.5660
 8481TIP3    H249639   2.992   2.351  -2.816 -0.4494 -0.7090 -0.0185
 8482TIP3   OH249640  -1.160   0.634  -2.481 -0.2281  0.2850 -0.0419
 8482TIP3    H149641  -1.136   0.690  -2.554 -1.3730  1.7861  0.6824
 8482TIP3    H249642  -1.092   0.566  -2.479 -0.3724 -0.0383 -2.7073
 8483TIP3   OH249643  -1.493  -0.634  -3.765  0.2677  0.5421  0.2080
 8483TIP3    H149644  -1.406  -0.675  -3.765 -1.0676 -2.5688  1.4967
 8483TIP3    H249645  -1.489  -0.571  -3.693  1.1162 -0.4210  1.0344
 8484TIP3   OH249646   0.184   0.067  -5.729  0.4170  0.3098  0.3222
 8484TIP3    H149647   0.160  -0.002  -5.668 -0.1146  2.0567  2.1813
 8484TIP3    H249648   0.101   0.100  -5.763  0.7021 -0.9898 -1.9033
 8485TIP3   OH249649  -2.663  -2.450  -5.132 -0.4779 -0.0952  0.0261
 8485TIP3    H149650  -2.690  -2.383  -5.194  0.9134  0.0150 -0.4807
 8485TIP3    H249651  -2.667  -2.407  -5.046 -2.8407 -0.3759  0.1453
 8486TIP3   OH249652   2.013   3.143  -3.101  0.2495 -0.0005 -0.6445
 8486TIP3    H149653   1.967   3.102  -3.174  0.9912  0.7834 -1.5675
 8486TIP3    H249654   1.958   3.216  -3.076 -1.3563 -1.7595  1.3599
 8487TIP3   OH249655   2.983   1.262  -3.493  0.1950  0.6529 -0.2012
 8487TIP3    H149656   3.030   1.345  -3.493  2.0036 -0.3035  0.7239
 8487TIP3    H249657   3.010   1.219  -3.411 -0.3603 -1.0036 -0.8418
 8488TIP3   OH249658  -1.979  -1.178  -3.452  0.7644 -0.2549  0.3065
 8488TIP3    H149659  -1.937  -1.101  -3.491  3.2073 -1.2546  0.7826
 8488TIP3    H249660  -2.042  -1.142  -3.390  0.0550  1.3425 -1.2703
 8489TIP3   OH249661   1.481  -1.410  -5.110  0.0492 -0.1579  0.6393
 8489TIP3    H149662   1.553  -1.405  -5.047  0.6192  0.7271 -0.0579
 8489TIP3    H249663   1.475  -1.322  -5.147  0.5597 -0.9425 -1.4349
 8490TIP3   OH249664  -0.995   1.332  -4.606  0.0157 -0.6961  0.3271
 8490TIP3    H149665  -1.082   1.322  -4.567 -0.7638 -0.3802 -1.2655
 8490TIP3    H249666  -0.956   1.245  -4.600 -2.0148 -1.9508 -2.5876
 8491TIP3   OH249667  -1.855   0.795  -3.949 -0.7968 -0.1066  0.4851
 8491TIP3    H149668  -1.873   0.884  -3.979  0.7904 -0.8318 -3.2269
 8491TIP3    H249669  -1.941   0.761  -3.923 -1.7455  1.8975  0.2147
 8492TIP3   OH249670   2.734   1.027  -2.679 -0.1737 -0.4224  0.5940
 8492TIP3    H149671   2.646   1.063  -2.687 -0.1311 -0.5026 -0.3018
 8492TIP3    H249672   2.724   0.934  -2.696  0.2857 -0.2109 -1.0490
 8493TIP3   OH249673   0.367  -2.694  -3.716 -0.3826  0.3867 -0.4215
 8493TIP3    H149674   0.358  -2.786  -3.743 -1.0126  0.6227 -1.0267
 8493TIP3    H249675   0.291  -2.650  -3.754  0.0612  1.2142 -0.3651
 8494TIP3   OH249676   2.096  -2.462  -4.751  0.1021  0.2994  1.1239
 8494TIP3    H149677   2.119  -2.392  -4.690 -0.3083  1.2612  0.2014
 8494TIP3    H249678   2.012  -2.436  -4.787 -0.9357 -1.5659  2.0651
 8495TIP3   OH249679  -2.774   0.373  -3.996 -0.0618  0.2965  0.5198
 8495TIP3    H149680  -2.865   0.403  -3.992 -0.4472 -0.5605 -1.0906
 8495TIP3    H249681  -2.746   0.391  -4.085  1.1369 -0.0798  0.7987
 8496TIP3   OH249682   0.572   2.490  -4.664 -0.2723  0.4558 -0.3441
 8496TIP3    H149683   0.548   2.445  -4.745 -2.6436 -0.3373  0.7088
 8496TIP3    H249684   0.539   2.433  -4.594  0.1924  1.9365  1.1455
 8497TIP3   OH249685   0.733   0.151  -3.934 -1.0155 -0.3455  0.5045
 8497TIP3    H149686   0.649   0.147  -3.980 -0.2077 -1.3794 -0.9968
 8497TIP3    H249687   0.789   0.090  -3.983  1.1335  1.6124  0.3796
 8498TIP3   OH249688   1.348   0.720  -3.586 -0.2960  0.4122 -0.7597
 8498TIP3    H149689   1.355   0.725  -3.682  1.1491 -0.2893 -0.7215
 8498TIP3    H249690   1.395   0.640  -3.563  2.6021  2.3546  0.7933
 8499TIP3   OH249691  -0.940   2.924  -5.719 -0.3345 -0.3514  0.0919
 8499TIP3    H149692  -0.896   2.913  -5.803  0.9779 -0.8694  0.8077
 8499TIP3    H249693  -0.974   2.837  -5.698  0.4105 -0.5220  0.6449
 8500TIP3   OH249694  -2.758  -2.465  -2.603 -0.3501  0.3545 -0.0227
 8500TIP3    H149695  -2.691  -2.532  -2.613 -0.3151  0.5486 -1.1248
 8500TIP3    H249696  -2.710  -2.382  -2.597 -0.5133  0.6535 -2.2617
 8501TIP3   OH249697  -2.236  -1.285  -4.526  0.1407  0.6612  0.8193
 8501TIP3    H149698  -2.182  -1.302  -4.603  1.1399  1.6730  1.2806
 8501TIP3    H249699  -2.241  -1.370  -4.481  0.1696  0.2387  0.0506
 8502TIP3   OH249700  -0.688  -1.770  -4.084  0.1853 -0.1544  0.9626
 8502TIP3    H149701  -0.749  -1.742  -4.152  0.6074 -1.4849 -0.0006
 8502TIP3    H249702  -0.630  -1.694  -4.072 -1.8002  1.2468  2.1370
 8503TIP3   OH249703  -0.492  -0.020  -3.658  0.2942  0.3198 -0.7085
 8503TIP3    H149704  -0.409   0.017  -3.685  1.0103 -2.0271 -2.0174
 8503TIP3    H249705  -0.469  -0.095  -3.603 -0.8221 -1.2596 -2.2677
 8504TIP3   OH249706  -1.893   1.690  -3.195 -0.0251  0.0661 -0.7626
 8504TIP3    H149707  -1.868   1.608  -3.152 -0.0041  0.4082 -0.0961
 8504TIP3    H249708  -1.932   1.742  -3.124 -0.4053  0.4748 -1.2655
 8505TIP3   OH249709   0.987   2.142  -4.068 -0.3675 -0.0943  0.0255
 8505TIP3    H149710   0.981   2.199  -4.144 -2.1603 -1.9515 -1.3483
 8505TIP3    H249711   1.065   2.087  -4.085 -1.1414 -0.9529 -0.8551
 8506TIP3   OH249712  -3.215   0.516  -5.287  0.8492 -1.5025  0.0522
 8506TIP3    H149713  -3.142   0.482  -5.235 -0.1713 -1.3166  1.6560
 8506TIP3    H249714  -3.269   0.440  -5.306  0.0408 -1.2406  1.2290
 8507TIP3   OH249715   1.943   2.966  -2.914  0.2535  0.2740 -0.3945
 8507TIP3    H149716   1.949   3.022  -2.991  0.0272  0.6136 -0.1684
 8507TIP3    H249717   2.032   2.931  -2.903 -0.1171 -1.2975 -1.9211
 8508TIP3   OH249718   1.358  -0.129  -4.757 -0.3237 -0.0052  0.2105
 8508TIP3    H149719   1.377  -0.039  -4.783  0.9929 -0.4457 -0.4270
 8508TIP3    H249720   1.355  -0.126  -4.661  0.0911  0.6461  0.2070
 8509TIP3   OH249721   0.311   2.111  -4.416 -0.1819  0.0724  0.0823
 8509TIP3    H149722   0.224   2.083  -4.387 -0.4852  2.1450  1.3707
 8509TIP3    H249723   0.370   2.045  -4.379 -1.1638 -1.4889 -0.9940
 8510TIP3   OH249724   0.844  -2.165  -4.555 -0.3219 -0.0207  0.3834
 8510TIP3    H149725   0.822  -2.072  -4.555  0.4353  0.1916 -1.5658
 8510TIP3    H249726   0.928  -2.170  -4.509 -0.9547  0.0492  1.6149
 8511TIP3   OH249727   3.022   2.068  -4.077  0.3672 -0.2226  0.2276
 8511TIP3    H149728   2.974   2.081  -3.995  2.0049  0.6317  1.1258
 8511TIP3    H249729   3.019   2.154  -4.120 -0.3282 -0.6194 -0.5281
 8512TIP3   OH249730  -3.092   1.507  -5.534  0.2133 -0.0318 -0.6859
 8512TIP3    H149731  -3.017   1.552  -5.574  0.1451 -0.5515 -1.4164
 8512TIP3    H249732  -3.062   1.417  -5.523  0.1610  0.0512  0.2771
 8513TIP3   OH249733  -0.665  -2.516  -3.740 -0.4047 -0.3337 -0.3642
 8513TIP3    H149734  -0.626  -2.428  -3.748  0.4450 -0.6998 -0.3960
 8513TIP3    H249735  -0.677  -2.544  -3.830  0.6499 -0.8031 -0.3780
 8514TIP3   OH249736   0.651  -1.870  -5.646 -0.2721 -0.9119  0.5856
 8514TIP3    H149737   0.745  -1.887  -5.655 -0.0666  0.0217  0.8497
 8514TIP3    H249738   0.643  -1.776  -5.660 -1.0236 -0.7966  1.7113
 8515TIP3   OH249739  -1.790   2.073  -5.562 -0.6966 -0.7279  0.5929
 8515TIP3    H149740  -1.809   2.074  -5.469 -1.9733  3.0149  0.4530
 8515TIP3    H249741  -1.858   2.127  -5.602  1.9610  1.0767 -1.9600
 8516TIP3   OH249742   3.109   3.124  -5.389  0.2948 -0.2078  0.0186
 8516TIP3    H149743   3.033   3.182  -5.395  0.6172  0.0697 -1.9149
 8516TIP3    H249744   3.171   3.159  -5.452  1.0004 -1.9279 -0.2920
 8517TIP3   OH249745   3.019  -0.148  -3.240  0.2680  0.1550  0.0982
 8517TIP3    H149746   2.956  -0.122  -3.307 -0.7723 -1.9538  0.1804
 8517TIP3    H249747   3.091  -0.187  -3.289  1.0120  1.4694  0.0806
 8518TIP3   OH249748   2.308   2.668  -5.761  0.3258 -0.2777 -0.5106
 8518TIP3    H149749   2.321   2.756  -5.798 -1.3354 -0.3635 -1.4255
 8518TIP3    H249750   2.287   2.614  -5.837 -1.1465 -0.9196  0.3141
 8519TIP3   OH249751  -0.656   2.422  -2.714 -0.6954  0.3377 -0.2021
 8519TIP3    H149752  -0.575   2.424  -2.663 -0.6252 -0.7661 -0.2469
 8519TIP3    H249753  -0.677   2.514  -2.730 -0.3272  0.6834  1.1985
 8520TIP3   OH249754  -3.129  -0.296  -2.769  0.4251 -0.2181  0.4038
 8520TIP3    H149755  -3.042  -0.295  -2.729  0.5657 -2.4676  0.2999
 8520TIP3    H249756  -3.179  -0.230  -2.721  1.6612 -0.2233  1.7512
 8521TIP3   OH249757   3.256  -2.278  -4.754 -0.6803  0.1162 -0.5366
 8521TIP3    H149758   3.337  -2.288  -4.804 -1.0681 -1.9765 -0.8417
 8521TIP3    H249759   3.282  -2.296  -4.664 -0.4950  1.1995 -0.3628
 8522TIP3   OH249760   1.699   2.887  -2.819 -0.1543 -0.5260 -0.2541
 8522TIP3    H149761   1.701   2.865  -2.726  1.3931  0.7768  0.0717
 8522TIP3    H249762   1.788   2.916  -2.839 -1.2633  2.6669 -1.2241
 8523TIP3   OH249763  -2.407   1.395  -3.844  0.0487 -0.2416 -0.0104
 8523TIP3    H149764  -2.419   1.447  -3.924  1.8661  0.3472  0.0662
 8523TIP3    H249765  -2.496   1.372  -3.818 -0.8451  2.5669 -0.2201
 8524TIP3   OH249766   2.706  -0.274  -4.570  0.1085  0.7072 -0.0293
 8524TIP3    H149767   2.799  -0.252  -4.575  0.1787  1.3076  2.5287
 8524TIP3    H249768   2.705  -0.370  -4.565  0.6766  0.7442  0.9646
 8525TIP3   OH249769  -1.311  -0.353  -3.201 -0.2296  0.1686 -0.0369
 8525TIP3    H149770  -1.244  -0.295  -3.164 -0.2209  0.5189 -0.5959
 8525TIP3    H249771  -1.390  -0.334  -3.149  0.5893 -1.8178  2.1147
 8526TIP3   OH249772   2.075   0.861  -5.389  1.1225  0.1608  0.2542
 8526TIP3    H149773   2.136   0.840  -5.318 -0.4389  0.1273  1.6396
 8526TIP3    H249774   1.989   0.861  -5.347 -0.1174 -2.0574 -2.0466
 8527TIP3   OH249775   3.064   1.403  -5.131  0.4162  0.1801  0.2092
 8527TIP3    H149776   3.053   1.326  -5.187  0.0903  1.3149 -1.3546
 8527TIP3    H249777   3.023   1.379  -5.049 -2.6045 -0.2563 -1.2728
 8528TIP3   OH249778  -1.174  -2.924  -3.131  0.5299  0.1235  0.1707
 8528TIP3    H149779  -1.120  -2.980  -3.074 -0.7383 -0.0126  1.2846
 8528TIP3    H249780  -1.180  -2.841  -3.084 -0.0858  0.1943 -0.0272
 8529TIP3   OH249781  -1.203   2.270  -3.763  0.1704 -0.2749  0.0578
 8529TIP3    H149782  -1.164   2.242  -3.681  0.8263 -0.2383 -0.2334
 8529TIP3    H249783  -1.270   2.333  -3.738 -1.9421 -2.6449  0.8009
 8530TIP3   OH249784  -2.399   0.086  -4.362  0.3776 -0.0377  0.7386
 8530TIP3    H149785  -2.321   0.033  -4.348  0.2035 -0.2826  0.8034
 8530TIP3    H249786  -2.368   0.177  -4.360  0.4155 -0.0465  2.4769
 8531TIP3   OH249787  -2.763  -1.792  -4.733  0.6403 -0.1062 -0.8248
 8531TIP3    H149788  -2.845  -1.814  -4.688  0.9549 -0.3162 -0.3530
 8531TIP3    H249789  -2.734  -1.711  -4.692  0.9125 -0.2800 -0.6760
 8532TIP3   OH249790  -3.192  -2.817  -3.021  0.3724  0.2076 -0.6299
 8532TIP3    H149791  -3.278  -2.859  -3.027  0.6382 -0.1250 -3.6164
 8532TIP3    H249792  -3.130  -2.889  -3.021  0.7118  0.4600 -2.1041
 8533TIP3   OH249793  -1.521  -2.603  -5.661  0.2462  0.0792 -0.0561
 8533TIP3    H149794  -1.561  -2.676  -5.615 -1.4443 -0.0529 -1.5846
 8533TIP3    H249795  -1.485  -2.547  -5.592  1.0288 -1.8551  1.1660
 8534TIP3   OH249796   0.481  -2.079  -5.508 -0.6992 -0.5194  0.2157
 8534TIP3    H149797   0.532  -2.014  -5.557  0.4144 -2.0885 -0.8119
 8534TIP3    H249798   0.402  -2.091  -5.561 -1.0523  0.1988  0.5679
 8535TIP3   OH249799  -2.067   1.372  -4.631  0.2147 -0.2827 -0.3302
 8535TIP3    H149800  -1.972   1.365  -4.632  0.2673  0.3453 -0.6289
 8535TIP3    H249801  -2.084   1.454  -4.583 -0.1455 -0.0802 -0.7933
 8536TIP3   OH249802   2.759  -0.575  -5.493  0.1473  0.0722  0.1849
 8536TIP3    H149803   2.846  -0.588  -5.529  1.1624  2.6408  1.4721
 8536TIP3    H249804   2.713  -0.522  -5.558  0.7474  1.6242  0.9928
 8537TIP3   OH249805   0.795  -1.545  -3.702  0.3272 -0.0177 -0.3780
 8537TIP3    H149806   0.817  -1.461  -3.742  0.4924  1.5107  2.6174
 8537TIP3    H249807   0.878  -1.578  -3.668 -0.1185  0.0459  0.8508
 8538TIP3   OH249808   0.569  -0.089  -5.410  0.5107  0.0859 -0.0484
 8538TIP3    H149809   0.601  -0.109  -5.498  1.3288 -1.9687  0.6466
 8538TIP3    H249810   0.476  -0.111  -5.412  0.1220  1.6632 -0.8208
 8539TIP3   OH249811   1.761   2.893  -5.361 -0.0272 -0.1236  0.2224
 8539TIP3    H149812   1.708   2.918  -5.436 -0.6811 -1.1000  0.3349
 8539TIP3    H249813   1.851   2.896  -5.393 -0.3776 -2.1768 -1.1636
 8540TIP3   OH249814  -0.468  -1.968  -3.491  0.4959  0.3245  0.0672
 8540TIP3    H149815  -0.486  -2.059  -3.515 -0.0023  0.3712  0.2749
 8540TIP3    H249816  -0.380  -1.971  -3.452 -0.2759 -0.3795  1.8283
 8541TIP3   OH249817   2.566   3.054  -5.625 -0.3562 -0.2577 -0.4258
 8541TIP3    H149818   2.524   3.007  -5.552  1.1759 -2.2239 -0.7362
 8541TIP3    H249819   2.532   3.012  -5.704  1.4655 -1.3212 -0.6979
 8542TIP3   OH249820   2.257  -2.773  -4.376  0.0302 -0.2097 -0.2218
 8542TIP3    H149821   2.172  -2.728  -4.374  0.0925  0.1428 -2.6531
 8542TIP3    H249822   2.320  -2.703  -4.392  0.3372 -0.8609 -2.0751
 8543TIP3   OH249823   2.145   1.654  -4.442 -0.3694 -0.0937  0.0704
 8543TIP3    H149824   2.095   1.735  -4.452 -1.2014 -0.6779 -0.6414
 8543TIP3    H249825   2.154   1.620  -4.531  1.1253 -0.1128  0.2146
 8544TIP3   OH249826  -2.735   0.716  -5.643 -0.0876  0.9878 -0.0139
 8544TIP3    H149827  -2.693   0.639  -5.683 -1.0778  1.7426 -2.6993
 8544TIP3    H249828  -2.706   0.714  -5.552  0.9723 -1.8176 -0.3135
 8545TIP3   OH249829  -0.293  -0.233  -5.691 -0.3590 -0.0883  0.2335
 8545TIP3    H149830  -0.206  -0.266  -5.710 -0.3940  0.7289 -1.6468
 8545TIP3    H249831  -0.351  -0.285  -5.746 -0.6816  1.3359 -0.8417
 8546TIP3   OH249832  -2.067   1.733  -4.221 -0.3733  0.2424  0.6868
 8546TIP3    H149833  -2.143   1.711  -4.275 -0.1785  1.5679 -0.1823
 8546TIP3    H249834  -1.993   1.690  -4.265 -0.4546 -0.1506  0.9242
 8547TIP3   OH249835   1.402   2.744  -4.693  0.1155 -0.8804  0.1491
 8547TIP3    H149836   1.327   2.781  -4.740  0.8669 -0.7586 -0.9881
 8547TIP3    H249837   1.474   2.749  -4.755  0.9521 -1.4861  1.0431
 8548TIP3   OH249838   2.837  -1.534  -4.790  0.2871 -0.0887 -0.1160
 8548TIP3    H149839   2.747  -1.507  -4.772  0.5062 -0.5081  1.9097
 8548TIP3    H249840   2.837  -1.559  -4.882 -1.7646 -0.4843 -0.0565
 8549TIP3   OH249841   0.914  -1.941  -5.736  0.3775  0.1538 -0.5184
 8549TIP3    H149842   1.006  -1.923  -5.717  0.5231  0.3209 -1.3365
 8549TIP3    H249843   0.908  -2.037  -5.739  0.5490  0.1461 -0.5879
 8550TIP3   OH249844   0.630  -1.107   3.938  0.1974  0.1165  0.3146
 8550TIP3    H149845   0.699  -1.103   3.873  0.5090  0.6110  0.6674
 8550TIP3    H249846   0.663  -1.165   4.006  0.1879  0.2002  0.3913
 8551TIP3   OH249847   0.040   3.012  -4.057  0.3257  0.4904  0.0653
 8551TIP3    H149848   0.057   3.104  -4.037 -2.0145  0.6614  1.5841
 8551TIP3    H249849  -0.039   2.990  -4.008  0.8407 -2.3763 -0.1832
 8552TIP3   OH249850   2.883   0.726  -3.323  0.0193  0.1690  0.5174
 8552TIP3    H149851   2.931   0.650  -3.290 -3.3610 -2.2388  0.4402
 8552TIP3    H249852   2.817   0.689  -3.382  0.8772  3.6509 -2.9628
 8553TIP3   OH249853   0.517   1.809  -2.306  0.0200  0.1541  0.5503
 8553TIP3    H149854   0.613   1.807  -2.307  0.1168  2.0917  0.5727
 8553TIP3    H249855   0.496   1.857  -2.225 -0.8748  1.3138 -0.3343
 8554TIP3   OH249856   0.058   0.710  -5.439 -0.3553  0.0723 -0.3893
 8554TIP3    H149857  -0.007   0.778  -5.419 -2.4227 -1.5598 -1.1247
 8554TIP3    H249858   0.040   0.640  -5.376 -1.0046 -1.4032 -2.1121
 8555TIP3   OH249859   2.071   2.045  -5.232  0.7452  0.4226 -0.3430
 8555TIP3    H149860   2.152   2.090  -5.206  1.3696 -0.6734 -0.3434
 8555TIP3    H249861   2.065   1.971  -5.172 -0.1125  0.3235 -0.5429
 8556TIP3   OH249862   0.673  -1.939  -4.281  0.2058  0.7983 -0.1752
 8556TIP3    H149863   0.645  -2.027  -4.254 -0.1492  0.2084 -2.2935
 8556TIP3    H249864   0.748  -1.920  -4.225  2.4119 -2.2851 -1.7640
 8557TIP3   OH249865  -2.897   2.241  -5.279 -1.0056 -0.6213 -0.1036
 8557TIP3    H149866  -2.924   2.322  -5.321 -1.0442 -0.1187  0.8727
 8557TIP3    H249867  -2.899   2.260  -5.185 -0.0640 -1.4439  0.1021
 8558TIP3   OH249868  -1.887  -1.622  -4.753  0.2190 -0.3919 -0.4566
 8558TIP3    H149869  -1.900  -1.711  -4.786 -1.1876 -0.7248  0.8926
 8558TIP3    H249870  -1.866  -1.571  -4.831 -1.4242 -1.4475 -1.6706
 8559TIP3   OH249871   0.209  -0.938  -3.827 -0.1906 -0.4068 -0.0025
 8559TIP3    H149872   0.240  -0.848  -3.831  0.9808 -0.8367 -0.9270
 8559TIP3    H249873   0.287  -0.990  -3.805 -0.6194 -1.3055 -0.5425
 8560TIP3   OH249874  -1.410   2.418  -3.979 -0.5884  0.1472  0.4327
 8560TIP3    H149875  -1.347   2.357  -4.019  1.7990  1.5466  1.8118
 8560TIP3    H249876  -1.451   2.367  -3.909  0.2238 -0.3460  0.5715
 8561TIP3   OH249877   1.979   3.164  -4.867 -0.2730 -0.0028 -0.0146
 8561TIP3    H149878   1.912   3.187  -4.932 -0.8557 -0.6630  0.3328
 8561TIP3    H249879   1.947   3.204  -4.786  1.5442  2.7323 -0.4903
 8562TIP3   OH249880  -0.417   3.152   3.905 -0.5738 -0.3591 -0.3747
 8562TIP3    H149881  -0.394   3.073   3.856  0.1917 -0.1531 -0.3652
 8562TIP3    H249882  -0.484   3.124   3.967 -2.2028 -0.4424 -2.0932
 8563TIP3   OH249883   0.928  -0.810  -3.278 -0.0119 -0.0714 -0.4201
 8563TIP3    H149884   1.005  -0.756  -3.264 -0.2088  0.3104 -0.7881
 8563TIP3    H249885   0.941  -0.886  -3.221  1.0923 -0.4934 -1.2119
 8564TIP3   OH249886  -1.300  -3.147  -5.464  0.7173 -0.0173  0.0028
 8564TIP3    H149887  -1.354  -3.069  -5.448 -1.0814 -0.8201 -1.7635
 8564TIP3    H249888  -1.213  -3.113  -5.484  0.5564  1.4005  1.5083
 8565TIP3   OH249889   2.707  -0.315  -5.597 -0.1185  0.2587  0.4913
 8565TIP3    H149890   2.633  -0.292  -5.653  0.5863 -1.1529 -1.1170
 8565TIP3    H249891   2.702  -0.253  -5.524 -2.8185  0.2369  0.4227
 8566TIP3   OH249892   0.579  -1.745  -5.296 -0.4680  0.6399 -0.4922
 8566TIP3    H149893   0.559  -1.724  -5.387 -0.7805  4.0914  0.2159
 8566TIP3    H249894   0.618  -1.664  -5.261  2.9051 -1.6213  1.5999
 8567TIP3   OH249895  -0.900  -1.428  -5.504  0.0417  0.2399 -0.0651
 8567TIP3    H149896  -0.991  -1.416  -5.533  0.1466 -0.1874 -0.5758
 8567TIP3    H249897  -0.855  -1.465  -5.580  0.5636  0.1043  0.3047
 8568TIP3   OH249898  -3.170  -0.168  -3.366  0.0846 -0.2810 -0.3536
 8568TIP3    H149899  -3.107  -0.130  -3.305  1.4423 -0.8109 -1.3672
 8568TIP3    H249900  -3.148  -0.261  -3.370 -0.6385 -0.4468 -0.8775
 8569TIP3   OH249901   2.766   2.355  -5.870 -0.1089 -0.4592 -0.2288
 8569TIP3    H149902   2.817   2.423  -5.826 -2.3217 -1.0113  3.6858
 8569TIP3    H249903   2.821   2.277  -5.865  0.4083 -0.0852 -0.0160
 8570TIP3   OH249904   2.512  -2.310  -5.047 -0.8556  0.0154  0.2288
 8570TIP3    H149905   2.607  -2.310  -5.056 -0.9490  0.9309 -0.9496
 8570TIP3    H249906   2.484  -2.396  -5.077 -0.4933  0.2256 -0.7464
 8571TIP3   OH249907  -0.144  -0.623  -5.137  0.3413  0.3956  0.3936
 8571TIP3    H149908  -0.181  -0.708  -5.114 -0.7739  0.5661 -0.6636
 8571TIP3    H249909  -0.177  -0.563  -5.070  3.1289 -0.3738  2.6179
 8572TIP3   OH249910  -2.195  -2.035  -4.062  0.1263 -0.7291  0.2260
 8572TIP3    H149911  -2.203  -1.943  -4.035 -0.7221 -1.0802  1.2269
 8572TIP3    H249912  -2.285  -2.065  -4.072  0.3814 -1.6285  0.5141
 8573TIP3   OH249913   0.477  -2.465  -3.617 -0.5421  0.5070  0.3783
 8573TIP3    H149914   0.544  -2.431  -3.676  0.7291 -1.2887  0.7160
 8573TIP3    H249915   0.451  -2.549  -3.656 -2.5141  1.0974  0.3411
 8574TIP3   OH249916  -1.953   0.035  -4.849 -0.2954 -0.6310  0.0825
 8574TIP3    H149917  -1.882   0.096  -4.869  0.3539 -0.9421  1.3671
 8574TIP3    H249918  -2.029   0.091  -4.833  0.5220 -0.0699  2.2091
 8575TIP3   OH249919   1.180   2.726  -4.506  0.8473  0.6142  0.4436
 8575TIP3    H149920   1.270   2.748  -4.527  1.4382 -2.3036 -0.3992
 8575TIP3    H249921   1.129   2.802  -4.537  2.9781  2.5029  1.3406
 8576TIP3   OH249922   2.470  -1.810  -3.487  0.2831 -0.2061 -0.0070
 8576TIP3    H149923   2.524  -1.788  -3.563  2.0174  0.5196  1.3567
 8576TIP3    H249924   2.491  -1.742  -3.422 -0.2590 -1.4416  1.5249
 8577TIP3   OH249925   0.706   2.040  -4.869 -0.4775  0.0032 -0.1990
 8577TIP3    H149926   0.783   1.983  -4.867  0.1124  0.7770  0.0686
 8577TIP3    H249927   0.672   2.037  -4.779 -0.9334 -0.5547 -0.3850
 8578TIP3   OH249928   2.447   0.198  -2.919  0.4464 -0.5770 -0.4338
 8578TIP3    H149929   2.462   0.128  -2.856  3.4425  0.1196 -0.2127
 8578TIP3    H249930   2.497   0.173  -2.996  0.2858  0.5752 -0.9380
 8579TIP3   OH249931   2.744  -0.035  -3.642 -0.7157  0.3486  0.4044
 8579TIP3    H149932   2.654  -0.061  -3.660 -0.4355  1.3737 -3.3777
 8579TIP3    H249933   2.798  -0.099  -3.689  0.3361  1.7401 -0.3646
 8580TIP3   OH249934  -0.388  -3.291  -3.745 -0.0660 -0.3659  0.4163
 8580TIP3    H149935  -0.412  -3.297  -3.652 -0.9821 -0.8333  0.1571
 8580TIP3    H249936  -0.439  -3.218  -3.779 -0.2207 -0.6071  0.1277
 8581TIP3   OH249937  -0.938   2.160  -1.853 -0.4414  0.2256 -0.6085
 8581TIP3    H149938  -0.973   2.131  -1.937  2.0563  2.2524 -2.5206
 8581TIP3    H249939  -0.849   2.125  -1.850  0.7936  3.0590 -0.6013
 8582TIP3   OH249940   1.449   3.021  -5.842  0.3539  0.0738  0.0415
 8582TIP3    H149941   1.439   2.963  -5.767 -0.2874 -1.5814 -1.2771
 8582TIP3    H249942   1.517   2.980  -5.895 -1.2168 -0.3876 -1.7066
 8583TIP3   OH249943   1.820   2.515  -6.015  0.5970  0.4317 -0.1055
 8583TIP3    H149944   1.850   2.458  -6.085  1.4334  0.1508  0.4581
 8583TIP3    H249945   1.739   2.475  -5.984 -0.8296  1.5845 -2.1210
 8584TIP3   OH249946   2.568   2.172  -5.231 -0.2034 -0.1775  0.0645
 8584TIP3    H149947   2.630   2.101  -5.249 -1.1514 -0.7710 -1.0557
 8584TIP3    H249948   2.584   2.236  -5.301 -0.8551 -0.3541 -0.2586
 8585TIP3   OH249949  -2.275  -2.616  -5.816  0.1383  0.1345 -0.1994
 8585TIP3    H149950  -2.334  -2.551  -5.852 -1.1598 -0.5496  0.6370
 8585TIP3    H249951  -2.188  -2.591  -5.849 -0.4721  1.6854 -0.6832
 8586TIP3   OH249952  -2.405   2.330  -2.896  0.0799 -0.0505 -0.2932
 8586TIP3    H149953  -2.427   2.298  -2.984  1.9654  0.9671 -1.2182
 8586TIP3    H249954  -2.488   2.331  -2.849 -0.6656 -2.5192 -1.4043
 8587TIP3   OH249955   3.052  -0.111  -3.848  0.2917  0.5845 -0.1137
 8587TIP3    H149956   3.085  -0.023  -3.867 -0.0498  0.6197 -0.5676
 8587TIP3    H249957   3.112  -0.169  -3.895  0.8923  0.5322  0.6962
 8588TIP3   OH249958   0.446  -1.355  -4.136  0.1224 -0.3619 -0.1326
 8588TIP3    H149959   0.444  -1.450  -4.131  2.5887 -0.4437  0.8164
 8588TIP3    H249960   0.484  -1.336  -4.222  2.0317 -0.3850  0.6434
 8589TIP3   OH249961  -0.752   0.251  -5.552  0.2740  0.0302 -0.5234
 8589TIP3    H149962  -0.810   0.323  -5.529  0.3541 -0.5933  1.8588
 8589TIP3    H249963  -0.663   0.285  -5.539  0.3354 -0.1756 -0.3899
 8590TIP3   OH249964  -0.381   2.911  -2.826 -0.3037  0.0450  0.1782
 8590TIP3    H149965  -0.321   2.981  -2.850  0.1849 -0.6421 -0.6553
 8590TIP3    H249966  -0.336   2.864  -2.755  0.1269 -0.4227 -0.3934
 8591TIP3   OH249967  -1.125   0.303  -5.720  0.4090  0.0419 -0.1511
 8591TIP3    H149968  -1.091   0.391  -5.735 -0.7575  0.4304 -0.6718
 8591TIP3    H249969  -1.053   0.245  -5.743  2.1821  0.8651  2.8174
 8592TIP3   OH249970  -1.333  -1.210  -5.511 -0.4292  0.0247  0.7478
 8592TIP3    H149971  -1.419  -1.170  -5.524 -0.2156  0.2872  0.0997
 8592TIP3    H249972  -1.322  -1.215  -5.416 -1.3746 -0.4672  0.8392
 8593TIP3   OH249973  -1.115  -1.193  -3.504 -0.2002  0.3589 -0.4701
 8593TIP3    H149974  -1.156  -1.271  -3.467 -1.7236  0.5916 -1.6011
 8593TIP3    H249975  -1.029  -1.223  -3.533 -0.4900 -0.7247 -0.2469
 8594TIP3   OH249976   2.603  -1.768  -2.674 -0.2803 -0.8254  0.2995
 8594TIP3    H149977   2.647  -1.720  -2.604  1.1668 -1.3219 -0.2405
 8594TIP3    H249978   2.581  -1.853  -2.635 -2.3219 -0.0078  1.0756
 8595TIP3   OH249979   1.979   2.331  -5.286 -0.5316 -0.1210  0.8324
 8595TIP3    H149980   2.007   2.268  -5.219  0.2656 -2.1047 -1.2330
 8595TIP3    H249981   1.884   2.333  -5.278 -0.3831  1.2914  3.3123
 8596TIP3   OH249982   2.445  -0.839  -3.105 -0.2991 -0.5939  0.3004
 8596TIP3    H149983   2.508  -0.836  -3.177 -0.2628  0.3260  0.3656
 8596TIP3    H249984   2.360  -0.842  -3.149 -0.2218 -2.0793  0.2098
 8597TIP3   OH249985   1.592  -2.404  -3.342  0.0357 -0.6644  0.2500
 8597TIP3    H149986   1.514  -2.355  -3.369  0.2119  0.2775  1.3517
 8597TIP3    H249987   1.665  -2.351  -3.372  0.2397 -0.8900  0.3525
 8598TIP3   OH249988   3.273  -3.053  -3.945  0.2193 -0.6694 -0.2480
 8598TIP3    H149989   3.263  -3.136  -3.992  2.6245 -0.1442 -1.8367
 8598TIP3    H249990   3.342  -3.071  -3.880  0.1646 -0.1226 -0.0345
 8599TIP3   OH249991   1.461   0.449  -5.662 -0.1371  0.3748 -0.1679
 8599TIP3    H149992   1.556   0.456  -5.664 -0.1339  2.0508  2.0308
 8599TIP3    H249993   1.439   0.438  -5.570 -2.1188  0.9277 -0.5173
 8600TIP3   OH249994  -0.428   1.125  -5.333 -0.4817  0.3278  0.3640
 8600TIP3    H149995  -0.334   1.112  -5.321 -0.7219 -0.4270  1.6239
 8600TIP3    H249996  -0.450   1.068  -5.407 -0.2329 -0.9140  1.2087
 8601TIP3   OH249997   0.625   0.171  -4.915  0.5090  0.0340 -0.3757
 8601TIP3    H149998   0.674   0.252  -4.905  0.7205  0.0698 -1.5580
 8601TIP3    H249999   0.553   0.178  -4.852  1.9087  0.0394  1.3203
 8602TIP3   OH250000  -1.204   2.740  -2.766 -0.0016  0.1370  0.3857
 8602TIP3    H150001  -1.157   2.805  -2.714 -0.7075  0.9082  0.0965
 8602TIP3    H250002  -1.265   2.792  -2.819 -1.8402 -0.8701  1.4134
 8603TIP3   OH250003   0.420   2.957  -3.476  0.7691  0.1623 -0.1688
 8603TIP3    H150004   0.512   2.960  -3.500  0.3629  0.2976 -1.8687
 8603TIP3    H250005   0.401   2.864  -3.466  0.5638 -0.0759 -2.2533
 8604TIP3   OH250006   1.219   1.423  -5.012 -0.0399  0.0802  0.5416
 8604TIP3    H150007   1.155   1.411  -5.082  0.0356  0.6297  0.3716
 8604TIP3    H250008   1.171   1.470  -4.943 -0.1494 -0.5657  0.9202
 8605TIP3   OH250009  -1.234  -1.961  -3.018  0.1971 -0.1956 -0.1886
 8605TIP3    H150010  -1.149  -1.999  -3.038  0.5377  0.0863  0.6600
 8605TIP3    H250011  -1.268  -2.015  -2.946  0.1988  0.4262  0.2863
 8606TIP3   OH250012   1.449  -0.146  -3.703 -0.2628  0.2808  0.4254
 8606TIP3    H150013   1.523  -0.150  -3.642  0.9602  1.4927 -0.9026
 8606TIP3    H250014   1.430  -0.053  -3.712 -1.7041 -0.0020  0.4433
 8607TIP3   OH250015   1.055  -0.926  -5.216 -0.3580 -0.4600  0.1117
 8607TIP3    H150016   1.029  -1.010  -5.179 -1.4129  1.1032  3.3246
 8607TIP3    H250017   1.009  -0.921  -5.300 -1.5017 -2.4252  0.5722
 8608TIP3   OH250018  -2.267  -3.249  -3.495  0.4789 -0.1615 -0.7558
 8608TIP3    H150019  -2.206  -3.237  -3.567  2.4297  0.2847  0.8837
 8608TIP3    H250020  -2.246  -3.334  -3.458  1.0363  0.5359  0.6158
 8609TIP3   OH250021  -1.541  -1.524  -3.681  0.5907 -0.2182 -0.7601
 8609TIP3    H150022  -1.570  -1.614  -3.696  0.6644 -0.1342 -1.4393
 8609TIP3    H250023  -1.621  -1.475  -3.662  0.3753 -0.1417 -1.8366
 8610TIP3   OH250024  -2.767   3.072  -4.871  0.5595  0.2367 -0.3675
 8610TIP3    H150025  -2.800   3.136  -4.935 -0.5587 -0.2205 -0.2682
 8610TIP3    H250026  -2.846   3.029  -4.837  0.8842  2.0558  3.0591
 8611TIP3   OH250027  -2.389  -1.026  -5.373  1.0022 -0.0616  0.2865
 8611TIP3    H150028  -2.358  -1.018  -5.463  1.3594 -1.2353  0.2911
 8611TIP3    H250029  -2.483  -1.045  -5.383  0.9802  0.0924  0.1805
 8612TIP3   OH250030   3.150  -1.194  -4.905  0.1449 -0.4060  0.2160
 8612TIP3    H150031   3.061  -1.173  -4.935  0.8355  0.6638 -1.1614
 8612TIP3    H250032   3.145  -1.185  -4.810 -0.6831  1.8552  0.0158
 8613TIP3   OH250033  -0.368  -1.399  -4.547 -0.0467 -0.0239  0.0057
 8613TIP3    H150034  -0.425  -1.454  -4.494  0.6548  0.1557  0.9782
 8613TIP3    H250035  -0.280  -1.433  -4.532  0.1937  0.1584 -0.9016
 8614TIP3   OH250036  -2.290  -2.450  -4.574 -0.2406 -0.6359 -0.1203
 8614TIP3    H150037  -2.256  -2.418  -4.491 -0.6462 -1.5942  0.4242
 8614TIP3    H250038  -2.216  -2.494  -4.615 -0.3033 -1.0397  0.1945
 8615TIP3   OH250039   0.532  -2.257  -3.864 -0.7745 -0.0657 -0.0257
 8615TIP3    H150040   0.452  -2.274  -3.913 -0.6357 -0.1277 -0.2341
 8615TIP3    H250041   0.588  -2.333  -3.882 -0.6325  0.0224  0.0404
 8616TIP3   OH250042  -1.547  -2.521  -4.133 -0.2320  0.0963  0.0634
 8616TIP3    H150043  -1.463  -2.560  -4.158  0.3893 -0.0489  2.2151
 8616TIP3    H250044  -1.528  -2.428  -4.120 -0.5804  0.2032 -0.1794
 8617TIP3   OH250045  -1.456  -3.060  -5.882 -0.1865 -0.6958  0.2589
 8617TIP3    H150046  -1.535  -3.009  -5.863  0.7744  0.7992  0.3728
 8617TIP3    H250047  -1.462  -3.136  -5.823 -1.1966 -0.2543  0.7455
 8618TIP3   OH250048   1.911   0.173  -4.576 -0.1315 -0.3393  0.3253
 8618TIP3    H150049   1.949   0.252  -4.615  1.8409 -2.1888 -1.7430
 8618TIP3    H250050   1.835   0.153  -4.631  1.3428 -1.6895 -1.3215
 8619TIP3   OH250051   1.112  -2.352  -2.896 -0.1603  0.0819 -0.2482
 8619TIP3    H150052   1.163  -2.333  -2.974  0.7179  0.0512  0.3012
 8619TIP3    H250053   1.126  -2.276  -2.839  0.6372 -0.6724  0.5832
 8620TIP3   OH250054  -1.901   2.696  -5.072  0.3447 -0.1028 -0.5634
 8620TIP3    H150055  -1.853   2.775  -5.099  1.4485 -0.7934 -0.7020
 8620TIP3    H250056  -1.953   2.724  -4.997  1.6940  0.4799  0.1861
 8621TIP3   OH250057  -0.448   0.835  -5.502  0.0300 -0.6094 -0.2826
 8621TIP3    H150058  -0.488   0.845  -5.588  0.6196 -0.9024 -0.5893
 8621TIP3    H250059  -0.462   0.743  -5.480 -0.5023 -0.4383  0.1322
 8622TIP3   OH250060  -0.509  -1.249  -4.310  0.1956  0.2266  0.3072
 8622TIP3    H150061  -0.566  -1.276  -4.381 -0.4712  0.2073  0.8443
 8622TIP3    H250062  -0.476  -1.163  -4.337  1.5685 -0.6588 -0.9538
 8623TIP3   OH250063   2.313  -2.966  -3.050  0.2975  0.2266  0.0460
 8623TIP3    H150064   2.228  -2.941  -3.013  0.1240  0.1436 -0.2992
 8623TIP3    H250065   2.362  -2.884  -3.056  0.5689  0.1623  1.0681
 8624TIP3   OH250066  -1.650   2.655  -4.934  0.8553  0.1890 -0.2347
 8624TIP3    H150067  -1.614   2.597  -5.001 -0.5692 -0.8221 -0.1794
 8624TIP3    H250068  -1.744   2.636  -4.935  0.4066  2.1715  0.1304
 8625TIP3   OH250069   2.381   2.139  -4.872 -0.2049 -0.2221 -0.4279
 8625TIP3    H150070   2.451   2.201  -4.892 -1.3796  0.7045 -1.8929
 8625TIP3    H250071   2.421   2.076  -4.812  1.2132  1.5734  0.6148
 8626TIP3   OH250072  -2.881  -0.430  -5.673  0.4796  0.0351  0.4514
 8626TIP3    H150073  -2.855  -0.408  -5.762  0.4172  2.5962  0.9687
 8626TIP3    H250074  -2.801  -0.418  -5.621  0.1019  0.4045  0.9711
 8627TIP3   OH250075  -0.228  -2.483  -3.185 -0.1175 -0.2351  0.1308
 8627TIP3    H150076  -0.132  -2.481  -3.184 -0.1327  0.2917  0.6871
 8627TIP3    H250077  -0.251  -2.491  -3.278  0.4362  0.9243 -0.1159
 8628TIP3   OH250078   2.011  -0.314  -5.271  0.3163  0.4258 -0.0087
 8628TIP3    H150079   1.937  -0.336  -5.214  0.4360 -0.3593 -0.1487
 8628TIP3    H250080   1.981  -0.336  -5.359  1.2953 -1.5362  0.0949
 8629TIP3   OH250081   1.078   2.585  -2.749  0.0897  0.3327 -0.2856
 8629TIP3    H150082   1.082   2.516  -2.683 -0.5218 -0.6445 -1.2475
 8629TIP3    H250083   1.160   2.576  -2.798  1.2437  1.9853  1.1716
 8630TIP3   OH250084   0.573  -0.962  -4.466  0.1809 -0.0988  0.2636
 8630TIP3    H150085   0.641  -0.904  -4.433  0.1352  1.1948 -1.7445
 8630TIP3    H250086   0.621  -1.032  -4.510  0.2334  0.3420 -0.3904
 8631TIP3   OH250087  -2.267  -0.928  -4.843  0.4067  0.1090 -0.1526
 8631TIP3    H150088  -2.276  -0.965  -4.931  1.8108  1.9850 -1.1527
 8631TIP3    H250089  -2.199  -0.980  -4.802  0.3748 -0.2123 -0.4966
 8632TIP3   OH250090  -1.812  -1.354  -5.532 -0.3692 -0.3282  0.5295
 8632TIP3    H150091  -1.873  -1.416  -5.573 -2.4402 -0.6006  3.7406
 8632TIP3    H250092  -1.856  -1.270  -5.537  0.6632  0.1875 -0.2793
 8633TIP3   OH250093   1.259  -2.330  -5.759 -0.3482  0.2920  0.2456
 8633TIP3    H150094   1.301  -2.392  -5.818  0.8078 -0.0634  1.3808
 8633TIP3    H250095   1.332  -2.289  -5.712 -1.1627  1.5040  0.5086
 8634TIP3   OH250096  -1.964   2.507  -5.251 -0.1056 -0.0649  0.4384
 8634TIP3    H150097  -1.924   2.524  -5.166  0.2782  0.0549  0.2386
 8634TIP3    H250098  -1.928   2.575  -5.309 -0.2004 -0.2668  0.1360
 8635TIP3   OH250099  -0.782   2.689  -5.317  0.0519 -0.2467  0.3216
 8635TIP3    H150100  -0.763   2.763  -5.259 -1.5512  0.6847 -0.2724
 8635TIP3    H250101  -0.742   2.713  -5.400  0.7674 -0.7334  0.5167
 8636TIP3   OH250102   0.022   2.532  -2.537 -0.4076  0.7006  0.3815
 8636TIP3    H150103   0.058   2.451  -2.575 -1.8628  0.5671 -0.7993
 8636TIP3    H250104   0.084   2.555  -2.468 -0.7828 -2.3573  1.9468
 8637TIP3   OH250105  -1.042   0.034  -4.262 -0.5250 -0.1414  0.0308
 8637TIP3    H150106  -0.966   0.024  -4.205 -1.7591  0.0103  1.7714
 8637TIP3    H250107  -1.056  -0.054  -4.299  0.2189 -0.2660  0.0253
 8638TIP3   OH250108   1.732   1.939  -5.575  0.0117  0.1524 -0.1503
 8638TIP3    H150109   1.806   1.999  -5.562  0.5083 -0.7090  1.2915
 8638TIP3    H250110   1.660   1.980  -5.527 -0.2062  0.5620 -0.8225
 8639TIP3   OH250111  -0.025   2.917  -4.334 -0.0347 -0.4310 -0.0763
 8639TIP3    H150112   0.000   2.918  -4.242  0.8316 -0.5365 -0.2978
 8639TIP3    H250113  -0.117   2.942  -4.335 -0.3440 -1.4935  0.9018
 8640TIP3   OH250114   2.869   1.309  -4.957 -0.5439 -0.2053 -0.0485
 8640TIP3    H150115   2.914   1.225  -4.963 -1.9943 -0.9782 -0.8755
 8640TIP3    H250116   2.821   1.305  -4.875 -2.0562 -1.0003 -0.9215
 8641TIP3   OH250117  -3.068   2.724  -3.865 -0.1616  0.0847  0.1458
 8641TIP3    H150118  -3.009   2.688  -3.798  0.5442 -1.4656 -1.2658
 8641TIP3    H250119  -3.137   2.768  -3.814  0.3381 -1.0427  1.8954
 8642TIP3   OH250120  -1.709  -0.963  -3.251  0.0327 -0.0983 -0.1272
 8642TIP3    H150121  -1.705  -0.868  -3.237 -1.8525 -0.0885  0.6220
 8642TIP3    H250122  -1.745  -0.972  -3.339  2.8849 -0.1858 -1.4079
 8643TIP3   OH250123  -3.156  -3.184  -3.645 -0.3774 -0.1975  0.4193
 8643TIP3    H150124  -3.195  -3.097  -3.633 -2.0368 -0.3831 -2.4803
 8643TIP3    H250125  -3.211  -3.242  -3.593 -0.4795  0.2577  0.8252
 8644TIP3   OH250126   2.803  -0.149  -3.030 -0.3284  0.0726  0.1414
 8644TIP3    H150127   2.773  -0.061  -3.052  0.2609  0.1976 -0.1728
 8644TIP3    H250128   2.880  -0.164  -3.085 -0.2033 -0.4983  0.4536
 8645TIP3   OH250129   1.600  -1.894  -5.637  0.3501  0.3255  0.2532
 8645TIP3    H150130   1.659  -1.836  -5.685  1.6117 -0.1122  1.1984
 8645TIP3    H250131   1.635  -1.982  -5.653  0.0841  0.0777  0.9802
 8646TIP3   OH250132  -2.033  -0.404  -5.753 -0.7234  0.4098  0.2184
 8646TIP3    H150133  -2.044  -0.328  -5.811 -0.5964  0.2072 -0.0701
 8646TIP3    H250134  -2.051  -0.369  -5.666  0.2592  0.9904  0.2025
 8647TIP3   OH250135  -2.887  -0.787  -3.474 -0.5208  0.2026 -0.3350
 8647TIP3    H150136  -2.851  -0.859  -3.526 -1.1945 -0.8265  0.5722
 8647TIP3    H250137  -2.920  -0.829  -3.395  1.9145  1.8835  1.7508
 8648TIP3   OH250138  -1.933  -0.665  -3.351 -0.1932 -0.5711  0.4116
 8648TIP3    H150139  -2.009  -0.670  -3.410 -0.8700 -0.5871  1.2708
 8648TIP3    H250140  -1.859  -0.646  -3.409 -0.9503  0.0707 -0.3742
 8649TIP3   OH250141  -2.655  -1.504  -4.161 -0.0851  0.4724 -1.1249
 8649TIP3    H150142  -2.687  -1.414  -4.154 -0.5910  0.2449 -0.4227
 8649TIP3    H250143  -2.719  -1.548  -4.216 -1.1989 -0.0630  0.5403
 8650TIP3   OH250144  -1.503   0.328  -5.156  0.4248 -0.2379  0.0690
 8650TIP3    H150145  -1.559   0.252  -5.173  0.6026 -0.0215 -1.6789
 8650TIP3    H250146  -1.551   0.378  -5.090 -0.8912 -0.6651 -0.5210
 8651TIP3   OH250147  -2.877   1.838  -2.591 -1.0826  0.1697  0.3014
 8651TIP3    H150148  -2.931   1.846  -2.513  0.1268  0.6975  1.1219
 8651TIP3    H250149  -2.789   1.819  -2.558 -0.9850 -2.0599 -1.0394
 8652TIP3   OH250150  -1.648  -2.166  -5.885  0.3740 -0.3187  0.5345
 8652TIP3    H150151  -1.663  -2.246  -5.935  0.7034 -1.4193  2.1302
 8652TIP3    H250152  -1.564  -2.179  -5.842 -0.1722  0.2831  1.8670
 8653TIP3   OH250153   2.275   3.238  -2.732 -0.8381  0.1827  0.1385
 8653TIP3    H150154   2.359   3.221  -2.689 -0.9597  1.0037  0.7251
 8653TIP3    H250155   2.288   3.208  -2.822  0.5836  1.6559 -0.1890
 8654TIP3   OH250156  -0.194   1.786  -3.370  0.6022  0.6576 -0.1375
 8654TIP3    H150157  -0.116   1.770  -3.423  0.6670  0.3458  0.0533
 8654TIP3    H250158  -0.175   1.867  -3.323  0.2442  1.3722 -1.1614
 8655TIP3   OH250159   0.634  -2.129  -3.643  0.3459  0.3316  0.4136
 8655TIP3    H150160   0.608  -2.118  -3.734  1.1842  2.8873  0.3962
 8655TIP3    H250161   0.553  -2.150  -3.597 -0.6201  1.7936 -0.5344
 8656TIP3   OH250162   1.735   2.414  -4.040 -0.1450 -0.3271 -0.0548
 8656TIP3    H150163   1.769   2.406  -3.951  1.2983 -1.4657 -0.6827
 8656TIP3    H250164   1.770   2.497  -4.071  1.3773 -1.0649 -0.3781
 8657TIP3   OH250165   1.147  -2.716  -1.821  0.7038  0.0627  0.1557
 8657TIP3    H150166   1.098  -2.657  -1.877  3.1477 -0.2271 -2.4970
 8657TIP3    H250167   1.091  -2.793  -1.813 -0.8236  1.1559  0.3844
 8658TIP3   OH250168  -1.897   2.660  -5.454  0.3202 -0.0745 -0.6001
 8658TIP3    H150169  -1.835   2.616  -5.513 -0.0866  0.0723 -1.1455
 8658TIP3    H250170  -1.855   2.743  -5.433  1.5002 -1.0556  1.1417
 8659TIP3   OH250171   2.986   1.259  -4.048 -0.1828 -0.3499 -0.0455
 8659TIP3    H150172   2.963   1.218  -4.131 -2.7178  0.2798  0.2697
 8659TIP3    H250173   2.984   1.188  -3.984  0.0721 -0.5300 -0.2357
 8660TIP3   OH250174  -0.478   2.098  -3.412 -0.2289 -0.9353 -0.1625
 8660TIP3    H150175  -0.404   2.038  -3.419  0.4980  0.1601 -4.3890
 8660TIP3    H250176  -0.533   2.079  -3.488 -2.2230  0.9254  0.6967
 8661TIP3   OH250177  -2.512   3.141  -4.044 -0.5859  0.3148 -0.0214
 8661TIP3    H150178  -2.549   3.167  -4.129 -0.6150  1.5088  0.3348
 8661TIP3    H250179  -2.440   3.203  -4.030  0.6973 -1.1025 -0.0625
 8662TIP3   OH250180   0.375   2.325  -3.851  0.0933 -0.8007  0.5442
 8662TIP3    H150181   0.312   2.305  -3.781  0.9816  0.8314  1.8860
 8662TIP3    H250182   0.388   2.241  -3.895 -2.8782 -1.2264  0.2827
 8663TIP3   OH250183  -3.228   1.804  -3.039  0.1659  0.1276  0.5670
 8663TIP3    H150184  -3.235   1.897  -3.062  0.4464  0.1818  0.6984
 8663TIP3    H250185  -3.183   1.765  -3.113  1.3858  0.3643  1.1542
 8664TIP3   OH250186  -0.283  -0.060  -4.116  0.3244  0.0404  0.3805
 8664TIP3    H150187  -0.240   0.004  -4.173  0.3168 -1.0016 -0.8195
 8664TIP3    H250188  -0.231  -0.057  -4.035  1.6662  0.0083 -0.4402
 8665TIP3   OH250189  -1.547   3.063  -2.065  0.0878 -0.2865 -0.5760
 8665TIP3    H150190  -1.593   3.039  -1.985  1.4070 -1.1985 -0.0392
 8665TIP3    H250191  -1.599   3.133  -2.103  0.0248  1.0159  1.6960
 8666TIP3   OH250192  -1.956  -1.921  -4.171 -0.2134 -0.5876  0.3951
 8666TIP3    H150193  -2.037  -1.961  -4.139  0.0033 -0.2879  1.3372
 8666TIP3    H250194  -1.909  -1.993  -4.214 -0.3611 -1.0725  1.0318
 8667TIP3   OH250195   2.634  -1.184  -3.642 -0.1670  0.0474  0.8297
 8667TIP3    H150196   2.541  -1.165  -3.643 -0.8195 -2.7450  1.0207
 8667TIP3    H250197   2.663  -1.163  -3.553 -1.3596 -1.9716  1.7583
 8668TIP3   OH250198   2.356   1.649  -3.807  0.1770  0.2737  0.5304
 8668TIP3    H150199   2.340   1.718  -3.871  0.5283  0.6004  0.7901
 8668TIP3    H250200   2.406   1.583  -3.855 -2.8654 -1.3566 -0.6665
 8669TIP3   OH250201   1.973  -1.060  -3.526 -0.1585 -0.2039 -0.4636
 8669TIP3    H150202   2.038  -1.098  -3.585  1.8475  2.3080 -0.0511
 8669TIP3    H250203   1.974  -1.118  -3.450  2.9875  0.6104  0.2647
 8670TIP3   OH250204   2.295  -2.354  -5.266 -0.0135  0.2953 -0.4540
 8670TIP3    H150205   2.283  -2.289  -5.197 -0.0776 -0.7586  0.5628
 8670TIP3    H250206   2.294  -2.438  -5.220  0.6397 -0.4018 -1.6569
 8671TIP3   OH250207   2.933   2.908  -5.333 -0.0962 -0.1116 -0.5402
 8671TIP3    H150208   2.980   2.955  -5.402 -0.0186  0.8200  0.1276
 8671TIP3    H250209   3.000   2.886  -5.269 -0.3252 -0.0990 -0.2930
 8672TIP3   OH250210   1.397   2.301  -4.550  0.4183  0.5553 -0.2717
 8672TIP3    H150211   1.460   2.369  -4.525 -0.6125  1.2323  0.5807
 8672TIP3    H250212   1.364   2.330  -4.636  0.1591  1.0225 -0.0209
 8673TIP3   OH250213  -2.577  -0.159  -3.360 -0.6248  0.2268  0.2403
 8673TIP3    H150214  -2.508  -0.098  -3.335  0.1286 -0.3152 -0.4842
 8673TIP3    H250215  -2.580  -0.222  -3.288 -0.6376  0.4646  0.4538
 8674TIP3   OH250216  -0.093   1.997  -4.508 -0.0685 -0.8504  0.2672
 8674TIP3    H150217  -0.147   1.929  -4.468 -0.8715  0.1603  0.9341
 8674TIP3    H250218  -0.155   2.065  -4.534  0.8673  0.3604  1.1116
 8675TIP3   OH250219  -0.977  -1.600  -3.046 -0.1314  0.0774  0.1209
 8675TIP3    H150220  -0.950  -1.660  -3.116  1.8204  1.0443 -0.0037
 8675TIP3    H250221  -1.034  -1.537  -3.090 -0.5203 -0.4714 -0.1729
 8676TIP3   OH250222  -3.343   2.856  -2.804 -0.5475 -0.0933 -0.1512
 8676TIP3    H150223  -3.407   2.891  -2.866 -2.0619 -1.3550  0.6240
 8676TIP3    H250224  -3.307   2.933  -2.761  1.1417  0.9080 -3.0440
 8677TIP3   OH250225  -0.550  -0.151  -5.067 -0.1953  0.4626 -0.2589
 8677TIP3    H150226  -0.643  -0.173  -5.074 -0.5296  1.8673 -0.3858
 8677TIP3    H250227  -0.507  -0.235  -5.048 -1.6764  0.0605  1.6193
 8678TIP3   OH250228   2.162   1.689  -5.366  0.6110 -0.3364 -0.7022
 8678TIP3    H150229   2.125   1.693  -5.278  0.2744  2.5996 -0.8918
 8678TIP3    H250230   2.257   1.691  -5.352  0.6080 -1.4514 -0.4066
 8679TIP3   OH250231   1.960  -3.144  -2.630 -0.1546 -0.9256  0.3233
 8679TIP3    H150232   1.964  -3.048  -2.629  0.7204 -0.9248  2.1328
 8679TIP3    H250233   1.907  -3.166  -2.553  0.3684 -1.8941  0.4187
 8680TIP3   OH250234  -3.302   1.958  -4.331 -0.0009  0.5363 -0.8637
 8680TIP3    H150235  -3.380   1.908  -4.355  0.5657 -0.3202 -0.9898
 8680TIP3    H250236  -3.316   1.983  -4.240 -0.0917 -0.2897 -0.6395
 8681TIP3   OH250237  -1.001   2.252  -1.606 -0.6855 -0.0548  0.2707
 8681TIP3    H150238  -1.089   2.283  -1.630 -0.6398  0.5209  0.8236
 8681TIP3    H250239  -0.966   2.216  -1.687 -0.8058  1.2001 -0.3735
 8682TIP3   OH250240  -1.621  -1.908  -5.298 -0.7232 -0.4148  0.5529
 8682TIP3    H150241  -1.581  -1.950  -5.223 -1.3364 -0.5992  0.7824
 8682TIP3    H250242  -1.566  -1.832  -5.316  0.2702 -1.1790  0.2703
 8683TIP3   OH250243  -2.848  -1.843  -2.290  0.2983  0.2845 -0.0196
 8683TIP3    H150244  -2.932  -1.841  -2.336  0.7227  1.1626 -0.7897
 8683TIP3    H250245  -2.869  -1.877  -2.204 -0.7283 -0.2270 -0.4498
 8684TIP3   OH250246   1.143  -1.820  -3.821  0.4081  0.2809 -0.0104
 8684TIP3    H150247   1.103  -1.783  -3.742  0.0173 -0.5250  0.1897
 8684TIP3    H250248   1.105  -1.771  -3.893 -2.3094 -1.5375  0.0400
 8685TIP3   OH250249  -1.616   2.819  -4.321  0.1756 -0.5076  0.0099
 8685TIP3    H150250  -1.576   2.742  -4.280  1.3509 -0.2811 -0.6761
 8685TIP3    H250251  -1.555   2.844  -4.390 -0.6868  0.4472 -0.4313
 8686TIP3   OH250252   0.240   2.264  -4.661  0.0290  0.1733 -0.0976
 8686TIP3    H150253   0.256   2.307  -4.576 -1.4554  0.0481  0.2649
 8686TIP3    H250254   0.241   2.170  -4.641  0.0658  0.1331 -0.2903
 8687TIP3   OH250255   0.038  -2.290  -2.319 -0.0562 -0.1789  0.1032
 8687TIP3    H150256   0.008  -2.347  -2.248 -1.6404  0.6598  0.1336
 8687TIP3    H250257   0.018  -2.202  -2.289 -0.9382  0.1786 -1.4462
 8688TIP3   OH250258  -2.660   3.298  -5.697 -0.1797  0.8186  0.1114
 8688TIP3    H150259  -2.570   3.277  -5.673  0.2213  1.8339 -0.4090
 8688TIP3    H250260  -2.698   3.337  -5.618  0.2118  1.4680 -0.0175
 8689TIP3   OH250261  -3.043   2.344  -5.638  0.3823 -0.2558  0.1009
 8689TIP3    H150262  -2.963   2.394  -5.622  0.4255 -0.5480  0.8667
 8689TIP3    H250263  -3.087   2.390  -5.709  0.0636  1.2934  1.2506
 8690TIP3   OH250264   2.643   2.418  -3.870  0.6434 -0.0835  0.3108
 8690TIP3    H150265   2.730   2.457  -3.858  0.9926 -1.0471  1.0443
 8690TIP3    H250266   2.660   2.332  -3.909 -0.0783  0.2434 -0.7702
 8691TIP3   OH250267  -1.095   1.952  -5.649  0.1512 -0.4634 -0.1338
 8691TIP3    H150268  -1.183   1.972  -5.615 -0.5316  0.5795 -2.3483
 8691TIP3    H250269  -1.058   2.037  -5.672  0.6242 -1.0804 -1.7871
 8692TIP3   OH250270   1.992  -0.765  -5.865 -0.2364  0.3155 -0.6093
 8692TIP3    H150271   1.904  -0.750  -5.829  0.4062  1.5648  0.5457
 8692TIP3    H250272   1.992  -0.718  -5.948 -0.1854  1.6827  0.1355
 8693TIP3   OH250273  -3.201   2.955  -5.368 -0.7135 -0.1153  0.3679
 8693TIP3    H150274  -3.229   3.024  -5.308  1.3082  0.0596  1.1893
 8693TIP3    H250275  -3.158   3.001  -5.440  0.0349 -0.4631  0.5785
 8694TIP3   OH250276  -1.357  -1.160  -5.014  0.6079 -0.4543 -0.3398
 8694TIP3    H150277  -1.418  -1.229  -4.990  1.4140 -0.9672  0.2945
 8694TIP3    H250278  -1.410  -1.080  -5.014 -0.3557 -1.0568 -1.1763
 8695TIP3   OH250279  -3.051   2.670  -5.672 -0.2606 -0.6636  0.0942
 8695TIP3    H150280  -3.075   2.636  -5.758  2.2762  0.7398 -1.2959
 8695TIP3    H250281  -2.967   2.628  -5.652  1.1173  1.8596  0.0034
 8696TIP3   OH250282   0.283  -0.631  -4.893  0.0248  0.3782  0.2428
 8696TIP3    H150283   0.230  -0.635  -4.973  1.2179 -0.1748 -0.5460
 8696TIP3    H250284   0.368  -0.596  -4.922  0.0652  1.4122  1.5080
 8697TIP3   OH250285  -2.198  -1.541  -4.125 -0.0391 -0.0996  0.3925
 8697TIP3    H150286  -2.132  -1.562  -4.191 -1.1421 -1.0346 -0.4568
 8697TIP3    H250287  -2.259  -1.482  -4.169 -0.1705  0.1960  0.9490
 8698TIP3   OH250288   2.911  -3.167  -4.243  0.9470 -0.1518 -0.3694
 8698TIP3    H150289   2.935  -3.220  -4.167  0.1618 -0.3071 -0.2189
 8698TIP3    H250290   2.979  -3.100  -4.248  2.7999 -1.9782 -1.4091
 8699TIP3   OH250291  -2.216   3.002  -5.540  0.4867  0.3734 -0.1851
 8699TIP3    H150292  -2.216   2.907  -5.524  0.2308  0.5651  1.0470
 8699TIP3    H250293  -2.156   3.037  -5.473  1.2895  0.9989 -1.2102
 8700TIP3   OH250294  -1.492  -0.933  -5.028  0.1675 -0.2656  0.6548
 8700TIP3    H150295  -1.530  -0.893  -5.106  1.1966 -2.2849 -0.9776
 8700TIP3    H250296  -1.567  -0.972  -4.982 -0.3368  0.1017  0.1517
 8701TIP3   OH250297   2.250   2.773  -5.074 -0.0869 -0.4400 -0.2172
 8701TIP3    H150298   2.225   2.685  -5.101  1.3222 -0.9643  0.0949
 8701TIP3    H250299   2.345   2.776  -5.086  0.0242  0.6836  0.7471
 8702TIP3   OH250300   1.880  -2.901  -5.197  0.8786 -0.1088 -0.3608
 8702TIP3    H150301   1.856  -2.984  -5.238  0.3198  0.0253 -0.3176
 8702TIP3    H250302   1.959  -2.920  -5.147  1.6711 -0.2401 -1.6209
 8703TIP3   OH250303   2.589  -2.582  -2.877  0.2744  0.0472 -0.0252
 8703TIP3    H150304   2.540  -2.553  -2.800 -0.8847 -0.2209 -0.6252
 8703TIP3    H250305   2.678  -2.551  -2.862 -0.3317  1.6338  0.5714
 8704TIP3   OH250306  -3.027  -2.216  -5.378  0.5371  0.4779  0.4069
 8704TIP3    H150307  -3.030  -2.310  -5.393  0.8527  0.2581  1.6105
 8704TIP3    H250308  -3.069  -2.178  -5.455 -0.4516 -0.6844  0.3478
 8705TIP3   OH250309  -2.705   2.656  -4.109 -0.2895 -0.8142  0.7469
 8705TIP3    H150310  -2.781   2.629  -4.162 -0.8272 -0.4885  1.3443
 8705TIP3    H250311  -2.659   2.719  -4.164 -1.2405  0.0720  0.9344
 8706TIP3   OH250312  -2.349   0.639  -2.305 -0.2576 -0.2871  0.1625
 8706TIP3    H150313  -2.388   0.556  -2.329 -1.2447  0.0727  0.4524
 8706TIP3    H250314  -2.407   0.705  -2.343  0.2916  0.2677  0.2640
 8707TIP3   OH250315   2.747  -2.026  -3.298 -0.0001 -0.2633  0.5597
 8707TIP3    H150316   2.815  -2.059  -3.239  0.5588 -0.2632 -0.0707
 8707TIP3    H250317   2.764  -1.932  -3.304  0.7604 -0.4443 -0.5953
 8708TIP3   OH250318  -0.570   0.176  -3.269  0.3582 -0.1987 -0.0932
 8708TIP3    H150319  -0.621   0.131  -3.337  0.3059  0.2376 -0.3438
 8708TIP3    H250320  -0.636   0.221  -3.216  0.3945 -0.5739  0.2813
 8709TIP3   OH250321   2.377  -1.047  -3.662  0.2577  0.0638 -0.0663
 8709TIP3    H150322   2.404  -0.990  -3.590 -2.1289  0.7751  0.3616
 8709TIP3    H250323   2.356  -0.986  -3.734 -3.7325  0.0354  0.8565
 8710TIP3   OH250324   0.590  -0.154  -5.681  0.0844  0.2753  0.1888
 8710TIP3    H150325   0.599  -0.245  -5.711 -1.3707 -0.3703  1.5776
 8710TIP3    H250326   0.522  -0.117  -5.738  0.9848  0.6493 -0.6641
 8711TIP3   OH250327  -1.793   0.650  -3.677  0.2537  0.5431  0.5259
 8711TIP3    H150328  -1.807   0.556  -3.679 -2.0057  0.8343  0.8974
 8711TIP3    H250329  -1.735   0.664  -3.602  0.4984 -0.5245  0.5471
 8712TIP3   OH250330  -0.503   0.177  -4.232  0.0947 -0.0399 -0.0204
 8712TIP3    H150331  -0.548   0.252  -4.271  0.6166  0.0292 -0.4837
 8712TIP3    H250332  -0.527   0.181  -4.139 -1.5278 -0.4697 -0.3802
 8713TIP3   OH250333   2.261  -3.120  -3.570  0.1927  0.3537 -0.7128
 8713TIP3    H150334   2.238  -3.100  -3.479  1.5060 -2.1783  0.2735
 8713TIP3    H250335   2.318  -3.048  -3.596  2.1495 -0.2169  1.5471
 8714TIP3   OH250336  -0.811   2.189  -2.660  0.6143  0.1287  0.5992
 8714TIP3    H150337  -0.884   2.199  -2.721  1.7926  0.3018 -0.8583
 8714TIP3    H250338  -0.763   2.271  -2.667  0.7780  0.1451  1.7796
 8715TIP3   OH250339   3.066   2.206  -4.736  0.9426 -0.2523  0.5576
 8715TIP3    H150340   3.077   2.273  -4.668 -0.5432  0.2085  0.3772
 8715TIP3    H250341   3.124   2.135  -4.709  1.6105  0.5953  1.4251
 8716TIP3   OH250342  -0.581  -1.572  -3.728 -0.5651 -0.3585 -0.0538
 8716TIP3    H150343  -0.608  -1.619  -3.649 -0.1813 -1.9949 -0.8657
 8716TIP3    H250344  -0.659  -1.572  -3.784 -1.1499  1.6490  0.6316
 8717TIP3   OH250345  -0.271  -0.086  -3.228  0.0235 -0.3098 -0.2844
 8717TIP3    H150346  -0.358  -0.115  -3.200 -0.2227 -0.2346 -0.9639
 8717TIP3    H250347  -0.234  -0.044  -3.151 -0.9330  0.5571 -0.2747
 8718TIP3   OH250348   0.697   2.866  -5.103 -0.2101  0.3985 -0.4621
 8718TIP3    H150349   0.747   2.932  -5.151  0.7707 -1.8519 -2.7414
 8718TIP3    H250350   0.627   2.841  -5.163 -0.1595 -1.1110  0.0788
 8719TIP3   OH250351   3.294   0.811  -4.601  0.0829  0.9397  0.0532
 8719TIP3    H150352   3.208   0.853  -4.602 -0.6850 -0.4810  1.7105
 8719TIP3    H250353   3.316   0.800  -4.694 -1.1563  2.0456 -0.3934
 8720TIP3   OH250354  -1.815   1.329  -4.036  0.4832  0.7318  0.1414
 8720TIP3    H150355  -1.785   1.305  -4.124 -0.3840  0.2118 -0.0209
 8720TIP3    H250356  -1.887   1.390  -4.050  1.2844  1.7942  0.5303
 8721TIP3   OH250357  -1.607   1.090  -4.720 -0.1467 -0.1488  0.3293
 8721TIP3    H150358  -1.591   0.996  -4.715  1.7876 -0.0004 -1.4006
 8721TIP3    H250359  -1.591   1.122  -4.631  0.5098 -1.2937  0.6462
 8722TIP3   OH250360  -1.129   0.835  -2.304  0.3746 -0.2756  0.7390
 8722TIP3    H150361  -1.121   0.748  -2.342  0.0385 -0.7746  1.7721
 8722TIP3    H250362  -1.174   0.887  -2.370  0.3057 -0.9673  0.2370
 8723TIP3   OH250363   2.956  -1.924  -4.128 -0.0411 -0.2672 -0.7278
 8723TIP3    H150364   2.955  -1.832  -4.102  0.1444 -0.1070 -1.2779
 8723TIP3    H250365   3.029  -1.962  -4.077 -2.0118 -0.8529  1.8981
 8724TIP3   OH250366  -1.196  -0.982  -3.641 -0.3543  0.1410  0.0467
 8724TIP3    H150367  -1.283  -0.963  -3.608 -0.1431 -1.2672  1.5700
 8724TIP3    H250368  -1.168  -1.060  -3.592  1.5253  0.2093 -0.8113
 8725TIP3   OH250369   0.459   0.369  -3.021  0.1617  1.0939 -0.1153
 8725TIP3    H150370   0.526   0.417  -2.973  0.8870  0.5188 -0.5389
 8725TIP3    H250371   0.385   0.364  -2.959  1.9923 -1.9865  2.1595
 8726TIP3   OH250372   2.757  -2.277  -2.720 -0.0423 -0.2009  0.1735
 8726TIP3    H150373   2.800  -2.352  -2.760 -1.3808 -0.8099 -0.1837
 8726TIP3    H250374   2.773  -2.286  -2.626  1.8204  0.3994 -0.0495
 8727TIP3   OH250375   2.605   2.665  -4.588 -0.7315 -0.3450  0.1719
 8727TIP3    H150376   2.559   2.746  -4.564 -0.5501 -0.4475  0.9005
 8727TIP3    H250377   2.631   2.678  -4.679 -0.2003  0.6720  0.4505
 8728TIP3   OH250378  -2.494   3.173  -3.659  0.0357  0.0543 -0.2518
 8728TIP3    H150379  -2.561   3.239  -3.644 -1.2691 -1.5942  1.8968
 8728TIP3    H250380  -2.513   3.105  -3.594  2.1943 -1.7359 -1.3519
 8729TIP3   OH250381   1.878   3.033  -3.319  0.7421  0.1024 -0.5580
 8729TIP3    H150382   1.948   2.969  -3.310  0.1876 -0.2673  1.6406
 8729TIP3    H250383   1.827   3.003  -3.395  1.9265 -0.6048 -1.0935
 8730TIP3   OH250384   3.366   2.297  -5.870 -0.0443 -0.0623  0.2065
 8730TIP3    H150385   3.347   2.232  -5.804 -0.6236 -0.1306 -0.0213
 8730TIP3    H250386   3.448   2.268  -5.911 -0.2850 -0.6298  0.1266
 8731TIP3   OH250387   3.062   2.370  -4.164  0.0602  0.1119  0.2064
 8731TIP3    H150388   2.978   2.408  -4.137  0.2464 -0.4754  1.7231
 8731TIP3    H250389   3.111   2.443  -4.200 -1.4004  0.3037 -1.5448
 8732TIP3   OH250390  -2.466  -0.833  -4.308  0.1252 -1.0240  0.1019
 8732TIP3    H150391  -2.505  -0.755  -4.267  0.4003 -1.3535  0.9974
 8732TIP3    H250392  -2.412  -0.797  -4.379 -1.5100 -0.5379 -0.9637
 8733TIP3   OH250393   0.959  -2.879  -3.202  0.4903  0.4055  0.3437
 8733TIP3    H150394   0.924  -2.958  -3.243  1.1494  0.0393  0.4936
 8733TIP3    H250395   0.896  -2.858  -3.133 -0.9643  1.3539 -1.1759
 8734TIP3   OH250396  -3.224   2.851  -3.187  0.2897  1.1033  0.0979
 8734TIP3    H150397  -3.157   2.839  -3.120 -1.5599  0.3048  1.9030
 8734TIP3    H250398  -3.256   2.763  -3.206  0.9191  1.2791 -2.0710
 8735TIP3   OH250399   0.226  -1.851  -5.638  0.1237 -0.2341 -0.0930
 8735TIP3    H150400   0.138  -1.833  -5.605  0.2501  1.6688 -0.6842
 8735TIP3    H250401   0.231  -1.946  -5.642 -2.3819 -0.3980 -1.2674
 8736TIP3   OH250402   2.402  -1.856  -2.866 -0.3560  0.1097  0.1687
 8736TIP3    H150403   2.452  -1.844  -2.786  1.4250 -1.9710 -0.5425
 8736TIP3    H250404   2.410  -1.949  -2.886 -1.6741  0.3638 -1.8419
 8737TIP3   OH250405  -2.552   3.029  -2.563 -0.1953  0.0054  0.0420
 8737TIP3    H150406  -2.568   2.939  -2.534  0.6820  0.4292  1.9995
 8737TIP3    H250407  -2.592   3.083  -2.496 -0.1089  1.1018 -0.7593
 8738TIP3   OH250408   1.946   0.989  -5.690 -0.1750 -0.5054 -0.1845
 8738TIP3    H150409   2.040   0.976  -5.677 -0.2933  0.3475  1.9026
 8738TIP3    H250410   1.938   1.008  -5.784  1.5510 -1.8195 -0.6589
 8739TIP3   OH250411   2.481   2.338  -5.988  0.1601 -0.1501 -0.9565
 8739TIP3    H150412   2.502   2.250  -5.955 -0.5478  0.7878  2.4383
 8739TIP3    H250413   2.565   2.384  -5.989  0.6946 -0.9901 -3.6298
 8740TIP3   OH250414   2.132  -2.235  -3.330 -0.7396  0.5969  0.0591
 8740TIP3    H150415   2.182  -2.264  -3.254 -0.2881  0.2200 -0.3762
 8740TIP3    H250416   2.040  -2.249  -3.306 -0.6293  1.1312  0.7956
 8741TIP3   OH250417   0.981  -0.094  -4.851  0.1169  0.6149 -0.4614
 8741TIP3    H150418   1.042  -0.059  -4.916  0.6673 -0.9323 -0.8303
 8741TIP3    H250419   1.036  -0.147  -4.793 -0.6967  0.2287 -0.0283
 8742TIP3   OH250420  -3.077  -1.978  -4.845 -0.6627  0.5697  0.3740
 8742TIP3    H150421  -3.024  -2.019  -4.914  1.5120  3.2007  0.2934
 8742TIP3    H250422  -3.150  -2.038  -4.831  2.8527 -4.0826  1.3023
 8743TIP3   OH250423  -1.364   3.211  -1.848  0.1217  0.7088  0.0324
 8743TIP3    H150424  -1.391   3.155  -1.921  0.2831 -0.5770  0.9399
 8743TIP3    H250425  -1.417   3.290  -1.858  0.5282  0.8004 -1.7935
 8744TIP3   OH250426  -3.047   0.369  -2.614 -0.5499 -0.6155  0.5216
 8744TIP3    H150427  -3.116   0.419  -2.658  0.8661 -0.5246 -1.7697
 8744TIP3    H250428  -3.018   0.425  -2.543 -1.0933  0.4759 -0.0937
 8745TIP3   OH250429   2.504   1.328  -3.152  0.3494 -0.6245 -0.3824
 8745TIP3    H150430   2.427   1.277  -3.126 -0.6778  1.0946  0.0739
 8745TIP3    H250431   2.556   1.267  -3.204 -0.9989 -2.0250 -0.1693
 8746TIP3   OH250432  -1.473   0.126  -3.826  0.2668 -0.1225 -0.5238
 8746TIP3    H150433  -1.461   0.034  -3.849 -0.3033 -0.0611 -1.0826
 8746TIP3    H250434  -1.464   0.128  -3.731  2.1630 -0.4524 -0.6574
 8747TIP3   OH250435   2.520  -1.142  -5.516 -0.2615 -0.1999  0.0941
 8747TIP3    H150436   2.475  -1.100  -5.443  0.6391 -0.0463  0.5719
 8747TIP3    H250437   2.609  -1.109  -5.512 -0.0800 -0.5437 -0.8023
 8748TIP3   OH250438   1.530   0.495  -5.392 -0.2749 -0.0046 -0.7114
 8748TIP3    H150439   1.600   0.535  -5.341 -0.1681 -0.7318 -0.2696
 8748TIP3    H250440   1.513   0.412  -5.348 -0.1876 -0.6534 -1.8687
 8749TIP3   OH250441   0.334  -3.261  -5.059 -0.0964 -0.2725 -0.0763
 8749TIP3    H150442   0.300  -3.333  -5.112  2.0311 -1.0791 -0.4616
 8749TIP3    H250443   0.266  -3.243  -4.995 -1.9441 -0.5820 -1.8581
 8750TIP3   OH250444   0.772  -0.339  -5.506 -0.4030  0.4874  0.6410
 8750TIP3    H150445   0.846  -0.359  -5.450  0.0845 -3.0038 -0.9643
 8750TIP3    H250446   0.811  -0.311  -5.589 -0.9592  0.5579  0.3942
 8751TIP3   OH250447  -2.843   1.146  -5.826  0.1841 -0.8078  0.7285
 8751TIP3    H150448  -2.767   1.190  -5.789 -0.8651  0.7818  1.1147
 8751TIP3    H250449  -2.844   1.060  -5.784  1.0958 -0.4048  1.6054
 8752TIP3   OH250450  -3.168  -1.296  -3.844 -0.5380  0.1259 -0.1837
 8752TIP3    H150451  -3.235  -1.350  -3.803 -1.0033  1.0136  0.2541
 8752TIP3    H250452  -3.212  -1.213  -3.862  0.3512  0.6086 -0.1973
 8753TIP3   OH250453   1.921  -3.182  -4.730  0.5539 -0.1029  0.2100
 8753TIP3    H150454   1.896  -3.271  -4.755 -1.3525  0.7173 -1.0468
 8753TIP3    H250455   1.884  -3.170  -4.643  0.3231 -0.3442  0.1459
 8754TIP3   OH250456   2.105   0.516  -3.831  0.2916 -0.0833  0.4947
 8754TIP3    H150457   2.042   0.509  -3.759 -1.1933  1.3382 -0.6061
 8754TIP3    H250458   2.103   0.608  -3.857  2.9762  0.0571  0.4907
 8755TIP3   OH250459   2.617  -1.715  -3.689  0.3238  0.0189  0.1960
 8755TIP3    H150460   2.611  -1.622  -3.709 -1.3496 -0.2378 -0.7068
 8755TIP3    H250461   2.644  -1.755  -3.772  2.1208 -0.2239  0.8585
 8756TIP3   OH250462   1.251  -2.414  -5.194  0.1317 -0.2350 -0.2403
 8756TIP3    H150463   1.164  -2.377  -5.204 -0.0425 -0.8351 -1.0844
 8756TIP3    H250464   1.237  -2.502  -5.161  0.2969 -0.9443 -1.9784
 8757TIP3   OH250465   0.175  -3.243  -3.354  0.2225  0.4420 -0.1264
 8757TIP3    H150466   0.142  -3.234  -3.264  0.8807 -2.9413  0.5942
 8757TIP3    H250467   0.098  -3.268  -3.405  0.5895 -2.6438  0.6132
 8758TIP3   OH250468   0.775  -1.209  -4.155 -0.0594  0.1781  0.0403
 8758TIP3    H150469   0.818  -1.279  -4.203  0.0899  0.6692 -0.5565
 8758TIP3    H250470   0.684  -1.211  -4.186 -0.2160 -0.1820  0.5198
 8759TIP3   OH250471   1.630  -2.074  -5.834  0.0657 -0.6764 -0.8312
 8759TIP3    H150472   1.612  -2.159  -5.874  0.9455 -0.7156 -1.1679
 8759TIP3    H250473   1.725  -2.068  -5.834  0.0404 -0.1422  0.1473
 8760TIP3   OH250474  -1.771  -3.206  -4.142  0.1953 -0.5856 -0.3882
 8760TIP3    H150475  -1.774  -3.205  -4.046  0.4022  0.0233 -0.3853
 8760TIP3    H250476  -1.739  -3.119  -4.166  1.8105 -1.3027 -0.9553
 8761TIP3   OH250477   0.739   1.406  -2.997 -0.0044  0.2262  0.2593
 8761TIP3    H150478   0.653   1.437  -2.968 -0.8177 -0.7229 -0.9999
 8761TIP3    H250479   0.736   1.311  -2.982  0.8626  0.2008  0.2965
 8762TIP3   OH250480  -0.082   0.238  -4.691 -0.2619  0.0998 -0.3649
 8762TIP3    H150481  -0.120   0.326  -4.687 -0.1469  0.1053  1.9403
 8762TIP3    H250482  -0.107   0.198  -4.608  0.1481 -1.8744 -1.1554
 8763TIP3   OH250483  -1.068   2.215  -2.775 -0.1185 -0.2625 -0.5029
 8763TIP3    H150484  -1.138   2.279  -2.756  0.3214 -0.7066  3.6044
 8763TIP3    H250485  -1.110   2.130  -2.764  0.8165 -0.5339  1.5602
 8764TIP3   OH250486   1.010   2.400   3.955 -0.9033  0.5640  0.3283
 8764TIP3    H150487   1.025   2.331   4.020 -0.7248 -0.6668 -0.9800
 8764TIP3    H250488   0.917   2.420   3.962 -0.4882  2.0685  2.4868
 8765TIP3   OH250489  -2.368   0.337  -4.288 -0.1649  0.5458 -0.2154
 8765TIP3    H150490  -2.317   0.419  -4.287 -1.4971  1.4203  0.8561
 8765TIP3    H250491  -2.435   0.351  -4.221 -1.8059 -0.5622 -1.5575
 8766TIP3   OH250492  -0.339  -1.357  -5.895 -0.3562 -0.3013 -0.0059
 8766TIP3    H150493  -0.258  -1.403  -5.913 -0.6451 -0.8510  0.0830
 8766TIP3    H250494  -0.339  -1.343  -5.800 -1.0938 -1.7043  0.2208
 8767TIP3   OH250495  -3.286   0.718  -3.785 -0.2170 -0.2735 -0.2806
 8767TIP3    H150496  -3.261   0.810  -3.795 -1.3987  0.2304  1.1325
 8767TIP3    H250497  -3.381   0.718  -3.792 -0.6083 -0.7837  3.3790
 8768TIP3   OH250498  -2.350   0.020  -4.706  0.2999  0.0997 -0.2340
 8768TIP3    H150499  -2.291  -0.051  -4.678 -0.4820 -0.0122  1.2132
 8768TIP3    H250500  -2.429   0.007  -4.654 -0.2776  1.3878 -0.7629
 8769TIP3   OH250501   1.140  -1.950  -5.120 -0.1048  0.2370 -0.5903
 8769TIP3    H150502   1.213  -1.890  -5.102 -1.6192  1.3699  2.4544
 8769TIP3    H250503   1.083  -1.900  -5.179  0.0280  0.6507 -0.3768
 8770TIP3   OH250504   2.934   0.175  -5.127 -0.1427 -0.7772 -0.6422
 8770TIP3    H150505   2.871   0.230  -5.174  0.1113 -1.0030 -1.2552
 8770TIP3    H250506   2.977   0.235  -5.067 -0.4035 -0.4621 -0.7637
 8771TIP3   OH250507   2.497   3.126  -3.232 -0.1495  0.3866 -0.0213
 8771TIP3    H150508   2.535   3.171  -3.307  0.6416  0.4718  0.4146
 8771TIP3    H250509   2.488   3.035  -3.261 -0.5732  0.5704 -0.4766
 8772TIP3   OH250510  -2.953   3.122  -2.142 -0.0138  0.7452  0.5519
 8772TIP3    H150511  -3.047   3.108  -2.126  0.2827  0.8751  2.7308
 8772TIP3    H250512  -2.944   3.217  -2.151 -0.1631  0.6822 -0.3650
 8773TIP3   OH250513  -1.691   0.867  -3.189  0.0432  0.5743 -0.0101
 8773TIP3    H150514  -1.756   0.934  -3.210 -1.3377 -0.8985 -0.6730
 8773TIP3    H250515  -1.742   0.797  -3.149  1.6624  0.4767  2.0284
 8774TIP3   OH250516  -1.253  -2.932  -4.616  0.4262 -0.3161 -0.1871
 8774TIP3    H150517  -1.298  -2.932  -4.700 -0.1668  0.2285  0.1235
 8774TIP3    H250518  -1.250  -2.840  -4.590  1.6066 -0.3573 -0.1373
 8775TIP3   OH250519   3.101   0.254  -2.700 -0.0028  0.2129 -0.1982
 8775TIP3    H150520   3.103   0.346  -2.726 -1.2413  0.2028 -0.4104
 8775TIP3    H250521   3.192   0.233  -2.677  0.7412  0.8786 -2.2737
 8776TIP3   OH250522  -1.603  -0.440   2.693 -0.3740 -0.0773 -0.2511
 8776TIP3    H150523  -1.682  -0.407   2.735  0.8400  1.3142  1.0264
 8776TIP3    H250524  -1.605  -0.401   2.605 -1.2847 -0.3625 -0.3668
 8777TIP3   OH250525   2.196  -0.565  -5.012 -0.5845  0.4522 -0.1922
 8777TIP3    H150526   2.196  -0.487  -5.067 -0.5591  1.7320  1.5298
 8777TIP3    H250527   2.186  -0.638  -5.073 -0.9703  1.8161 -1.8255
 8778TIP3   OH250528   0.264  -0.816  -6.030  0.4382  0.1447 -0.1438
 8778TIP3    H150529   0.186  -0.857  -6.068 -0.2844  1.2784  0.0898
 8778TIP3    H250530   0.299  -0.762  -6.101  1.0688 -0.4037 -0.2666
 8779TIP3   OH250531  -1.722   2.811  -4.621 -0.6063 -0.1843 -0.2667
 8779TIP3    H150532  -1.679   2.726  -4.608 -1.0030 -0.1622  1.3853
 8779TIP3    H250533  -1.734   2.846  -4.533 -1.6017  1.0284 -0.8484
 8780TIP3   OH250534  -1.432  -2.367  -3.081  0.1243 -0.3166  0.6463
 8780TIP3    H150535  -1.368  -2.337  -3.145 -1.2524  0.2451 -0.4967
 8780TIP3    H250536  -1.506  -2.398  -3.132 -1.3435  0.8580  1.9343
 8781TIP3   OH250537   1.203  -1.215  -3.604 -0.1334  0.1869  0.3395
 8781TIP3    H150538   1.259  -1.241  -3.531  2.6632  0.0993 -1.6715
 8781TIP3    H250539   1.176  -1.125  -3.583  0.8032  0.2484  1.3416
 8782TIP3   OH250540  -2.012   1.798  -2.979 -0.0688  0.0890 -0.1262
 8782TIP3    H150541  -2.055   1.714  -2.969 -1.0166  0.2625 -2.3503
 8782TIP3    H250542  -2.060   1.857  -2.921 -0.4167 -0.5388  0.2288
 8783TIP3   OH250543  -2.197   1.431  -3.270 -0.0937  0.4724  0.1894
 8783TIP3    H150544  -2.246   1.360  -3.229  0.7824 -1.2655 -1.5958
 8783TIP3    H250545  -2.241   1.445  -3.354  1.4866 -0.0757 -0.7726
 8784TIP3   OH250546   1.861  -1.783  -4.824 -0.4500  0.1935  0.1787
 8784TIP3    H150547   1.828  -1.748  -4.907  2.9514 -0.7808 -1.7916
 8784TIP3    H250548   1.836  -1.876  -4.826 -0.2028  0.1271  0.1436
 8785TIP3   OH250549  -3.155   1.834  -5.230 -0.2326  0.6455  0.1103
 8785TIP3    H150550  -3.181   1.837  -5.322  2.0215  0.9738 -0.5851
 8785TIP3    H250551  -3.171   1.743  -5.203 -2.4120  0.9310 -0.0729
 8786TIP3   OH250552  -0.264  -1.986  -4.099 -0.0786 -0.4090 -0.3347
 8786TIP3    H150553  -0.221  -1.908  -4.061 -0.0628 -0.5128 -0.1383
 8786TIP3    H250554  -0.242  -1.982  -4.192  2.6196 -1.8834  0.1522
 8787TIP3   OH250555  -0.893  -1.501  -4.054  0.3434  0.8298  0.2748
 8787TIP3    H150556  -0.817  -1.461  -4.097  0.4716  0.4897  0.1847
 8787TIP3    H250557  -0.919  -1.572  -4.112  0.6724  0.2091  0.8715
 8788TIP3   OH250558   2.555  -3.149  -3.086  0.0285  0.1633  0.1406
 8788TIP3    H150559   2.634  -3.096  -3.083 -1.6629  2.9814 -0.6244
 8788TIP3    H250560   2.485  -3.088  -3.060 -2.2788 -1.2250 -2.3011
 8789TIP3   OH250561   2.263   0.912  -3.746  0.1995 -0.2216  0.4095
 8789TIP3    H150562   2.257   0.898  -3.651 -0.0293  1.4285  0.6667
 8789TIP3    H250563   2.212   0.841  -3.784  0.8709 -1.3111  1.4849
 8790TIP3   OH250564   2.174  -3.315  -5.829 -0.4187  0.0674 -0.0408
 8790TIP3    H150565   2.225  -3.236  -5.845 -0.1333  0.0294  0.6561
 8790TIP3    H250566   2.163  -3.318  -5.734  0.2363 -1.1496  0.0165
 8791TIP3   OH250567  -2.321  -2.787  -4.740 -0.1899  0.2229 -0.3745
 8791TIP3    H150568  -2.258  -2.846  -4.781  2.0030  1.0679  1.5230
 8791TIP3    H250569  -2.346  -2.831  -4.659 -0.5326  0.7572 -0.1844
 8792TIP3   OH250570  -2.956  -1.935  -2.032  0.2418  0.4555  0.0403
 8792TIP3    H150571  -3.024  -1.870  -2.011 -0.4784 -0.3163  0.1223
 8792TIP3    H250572  -3.004  -2.015  -2.050  1.0973  0.0851 -0.6573
 8793TIP3   OH250573   1.778  -0.953  -4.236 -0.0790  0.2795 -0.3378
 8793TIP3    H150574   1.844  -0.931  -4.170 -0.1132 -1.6959  0.4168
 8793TIP3    H250575   1.714  -1.007  -4.189 -0.3372 -0.8189 -1.8724
 8794TIP3   OH250576  -0.194  -1.148  -6.011 -0.2937 -0.4345 -0.0088
 8794TIP3    H150577  -0.121  -1.208  -5.993 -1.0788 -2.0174 -1.7874
 8794TIP3    H250578  -0.271  -1.203  -6.007 -1.4133  1.1239  1.3493
 8795TIP3   OH250579  -0.990   2.791  -3.250 -0.4231  0.2691  0.0427
 8795TIP3    H150580  -0.956   2.745  -3.327 -0.5155 -1.1823  0.8315
 8795TIP3    H250581  -1.034   2.723  -3.199 -1.3594  1.4261  0.8250
 8796TIP3   OH250582  -1.045  -1.408  -5.228  0.0015 -0.4034  0.1608
 8796TIP3    H150583  -1.015  -1.469  -5.296  0.3129 -1.1773  0.9807
 8796TIP3    H250584  -1.094  -1.462  -5.166 -2.4619  0.7007 -0.6939
 8797TIP3   OH250585   2.197  -0.320  -3.160 -0.2701 -0.0424  0.4024
 8797TIP3    H150586   2.274  -0.375  -3.171  0.0582  0.0798  1.8804
 8797TIP3    H250587   2.173  -0.295  -3.249  0.6350 -1.1098 -0.1709
 8798TIP3   OH250588  -1.112   2.680  -3.816  0.1095 -0.1905  0.6459
 8798TIP3    H150589  -1.122   2.686  -3.721 -1.6505 -1.4458  0.5819
 8798TIP3    H250590  -1.199   2.702  -3.851  0.5956 -0.2494 -0.6555
 8799TIP3   OH250591  -0.074  -1.780  -5.872 -0.8556 -0.1059 -0.0493
 8799TIP3    H150592  -0.051  -1.855  -5.817 -1.1046  1.2548  1.9813
 8799TIP3    H250593  -0.123  -1.819  -5.945 -0.5777 -1.9622  0.6976
 8800TIP3   OH250594  -1.315   1.167  -4.880  0.2183  0.1218  0.4444
 8800TIP3    H150595  -1.332   1.075  -4.859  0.3148  0.1269  0.5482
 8800TIP3    H250596  -1.364   1.183  -4.961  0.3037 -0.0539  0.3580
 8801TIP3   OH250597  -0.400  -0.467  -4.717  0.0874  0.4920  0.3685
 8801TIP3    H150598  -0.317  -0.430  -4.744  0.0483  0.8056  0.6806
 8801TIP3    H250599  -0.421  -0.424  -4.634 -0.2386  0.1990  0.4438
 8802TIP3   OH250600  -1.438   2.267  -4.253  0.3189 -0.6813 -0.6799
 8802TIP3    H150601  -1.394   2.240  -4.333 -0.4246 -2.3776 -0.5578
 8802TIP3    H250602  -1.409   2.205  -4.186 -0.1614 -0.1655  0.0340
 8803TIP3   OH250603  -3.058  -3.319  -1.987 -0.0209 -0.3998 -0.2654
 8803TIP3    H150604  -3.070  -3.367  -1.904  0.0898  0.3284  0.1766
 8803TIP3    H250605  -3.126  -3.252  -1.986  1.3573  1.0404  0.2814
 8804TIP3   OH250606  -0.505  -0.972  -5.006 -0.5528  0.7883 -0.6915
 8804TIP3    H150607  -0.569  -0.966  -5.077 -1.0996 -0.1572 -0.2893
 8804TIP3    H250608  -0.433  -1.022  -5.042 -1.6498 -1.3739 -0.0342
 8805TIP3   OH250609  -3.307  -2.563  -2.948 -0.0411 -0.2068 -0.5372
 8805TIP3    H150610  -3.262  -2.647  -2.961 -1.4748 -1.0986  0.0191
 8805TIP3    H250611  -3.266  -2.504  -3.011  1.6982 -1.0423 -0.2448
 8806TIP3   OH250612  -1.257  -1.631  -4.450 -0.0681  0.1379 -0.5628
 8806TIP3    H150613  -1.327  -1.568  -4.434 -0.9427 -0.8528 -0.3392
 8806TIP3    H250614  -1.295  -1.716  -4.426  1.1079 -0.4668 -0.7433
 8807TIP3   OH250615  -1.849   0.543  -4.827  0.3552  0.0569 -0.0225
 8807TIP3    H150616  -1.808   0.481  -4.767 -0.8645 -0.9443 -0.1886
 8807TIP3    H250617  -1.917   0.586  -4.774  0.6181  0.6402 -0.1478
 8808TIP3   OH250618   1.473   1.232  -2.512 -0.1423  0.2369 -0.4916
 8808TIP3    H150619   1.401   1.169  -2.516  1.7712 -2.2324  1.0750
 8808TIP3    H250620   1.552   1.180  -2.527  1.4644  2.6028 -0.8544
 8809TIP3   OH250621  -1.691  -2.163  -3.187 -0.1725 -0.2730 -0.2574
 8809TIP3    H150622  -1.621  -2.105  -3.158 -0.9369  0.3179  0.4598
 8809TIP3    H250623  -1.731  -2.195  -3.105 -2.7602  1.8861 -0.5403
 8810TIP3   OH250624   2.611   3.325  -2.596  0.1330  0.2317 -0.5802
 8810TIP3    H150625   2.667   3.301  -2.523  0.2320 -4.0960 -1.8539
 8810TIP3    H250626   2.671   3.350  -2.666  0.1381  1.5514 -0.1346
 8811TIP3   OH250627   1.402  -0.309  -3.450  0.1927  0.3223  0.0537
 8811TIP3    H150628   1.407  -0.287  -3.357 -0.4489  2.1814 -0.3043
 8811TIP3    H250629   1.340  -0.245  -3.486  0.7010 -0.1376 -1.7093
 8812TIP3   OH250630  -0.127  -2.916  -4.505 -0.4177  0.5829  0.7702
 8812TIP3    H150631  -0.205  -2.899  -4.558  0.4220  1.1791 -0.3133
 8812TIP3    H250632  -0.054  -2.898  -4.563  0.5594 -1.1666  1.3829
 8813TIP3   OH250633  -2.363   3.319  -3.851  0.0832  0.6219 -0.4996
 8813TIP3    H150634  -2.423   3.285  -3.784 -1.4296  0.9288 -1.6405
 8813TIP3    H250635  -2.286   3.346  -3.802 -0.3634 -0.5500  0.9376
 8814TIP3   OH250636  -3.031   2.456  -4.706 -0.2286  0.7717  0.4219
 8814TIP3    H150637  -2.958   2.395  -4.711  2.1392  3.4379  0.0141
 8814TIP3    H250638  -3.092   2.427  -4.774  2.0741  0.3475 -1.6121
 8815TIP3   OH250639  -1.169   2.997  -4.534 -0.2306  0.0565  0.0973
 8815TIP3    H150640  -1.224   3.029  -4.463  0.2157  0.4901  0.2518
 8815TIP3    H250641  -1.079   3.003  -4.500 -0.0292  0.0806 -0.4267
 8816TIP3   OH250642   2.248  -2.868  -4.108  0.1434  0.3240  0.2023
 8816TIP3    H150643   2.227  -2.833  -4.195  1.2709 -0.2195 -0.3070
 8816TIP3    H250644   2.186  -2.940  -4.096 -0.2684  0.6427  0.0149
 8817TIP3   OH250645  -3.218  -0.716  -2.817  0.3346 -0.5699 -0.1946
 8817TIP3    H150646  -3.221  -0.622  -2.831  1.8221 -0.0426  2.4648
 8817TIP3    H250647  -3.303  -0.738  -2.781 -0.4056 -0.4974 -1.7909
 8818TIP3   OH250648  -0.815  -2.016  -2.744 -0.3952 -0.7780 -0.7289
 8818TIP3    H150649  -0.758  -2.062  -2.807  1.6628 -0.5588  0.8506
 8818TIP3    H250650  -0.894  -2.069  -2.741  1.7697 -4.3472  0.8936
 8819TIP3   OH250651  -0.854   0.711  -4.186  0.4301  0.0085 -0.0145
 8819TIP3    H150652  -0.926   0.693  -4.126  0.0596  0.4794 -0.3078
 8819TIP3    H250653  -0.863   0.644  -4.254 -0.2685  0.5879 -0.5110
 8820TIP3   OH250654   3.209   0.385  -4.141  0.0082  0.0217  0.4945
 8820TIP3    H150655   3.114   0.371  -4.133  0.2093 -1.5784  0.4503
 8820TIP3    H250656   3.245   0.297  -4.150  1.1676  0.7242 -3.2170
 8821TIP3   OH250657  -1.214  -2.854  -3.385  0.1978  0.4923 -0.1009
 8821TIP3    H150658  -1.149  -2.921  -3.407  0.4811  0.9930 -0.8303
 8821TIP3    H250659  -1.229  -2.865  -3.291  2.0585  0.9666  0.2973
 8822TIP3   OH250660   1.735   0.060  -4.121 -0.0291  0.4087  0.3922
 8822TIP3    H150661   1.711  -0.021  -4.075 -0.1013  0.4944  0.5063
 8822TIP3    H250662   1.662   0.075  -4.181  1.0542 -0.8868 -1.3373
 8823TIP3   OH250663   1.809  -1.236  -4.524  0.0262  0.4643  0.4072
 8823TIP3    H150664   1.859  -1.158  -4.547 -1.4331  1.1113 -0.7430
 8823TIP3    H250665   1.743  -1.244  -4.593 -1.4491 -0.3528  1.8326
 8824TIP3   OH250666   3.253  -3.299  -4.126 -0.5370  0.1241 -0.2679
 8824TIP3    H150667   3.159  -3.318  -4.119 -0.6434 -0.6349 -2.8613
 8824TIP3    H250668   3.295  -3.385  -4.129 -0.0892  0.3691 -2.2167
 8825TIP3   OH250669   0.826   0.287  -3.482 -0.5624  0.1084  0.8686
 8825TIP3    H150670   0.787   0.360  -3.433  1.1564 -0.4753  3.3052
 8825TIP3    H250671   0.838   0.218  -3.417  3.1080 -0.2463  0.0611
 8826TIP3   OH250672   2.169   2.662  -3.790 -0.1488 -0.0159 -0.2699
 8826TIP3    H150673   2.145   2.752  -3.813  0.2577  0.3572  0.7070
 8826TIP3    H250674   2.261   2.655  -3.814 -0.3563 -0.3975 -0.9763
 8827TIP3   OH250675   2.743   0.920  -3.694  0.4243  0.2488 -0.6198
 8827TIP3    H150676   2.768   0.984  -3.628 -0.5244  0.9897 -0.9597
 8827TIP3    H250677   2.655   0.946  -3.722 -0.0158 -1.2226 -0.7301
 8828TIP3   OH250678   0.502  -2.005  -5.249 -0.4604 -0.0527 -0.3228
 8828TIP3    H150679   0.471  -2.044  -5.331  1.9267  0.1370 -1.3980
 8828TIP3    H250680   0.504  -1.911  -5.266  0.0313 -0.0132 -0.0715
 8829TIP3   OH250681   1.408  -1.847  -3.841 -0.0335 -0.3579  0.1600
 8829TIP3    H150682   1.313  -1.856  -3.831 -0.0567 -0.9420 -0.4633
 8829TIP3    H250683   1.436  -1.932  -3.875  0.6982 -0.1487  0.2285
 8830TIP3   OH250684   1.971   0.137  -4.960  0.2405 -0.5039  0.6671
 8830TIP3    H150685   2.004   0.142  -5.050  0.5277  1.2791  0.8325
 8830TIP3    H250686   2.049   0.142  -4.905 -0.0439  0.1426  1.0216
 8831TIP3   OH250687  -1.898  -0.767  -4.820  0.2238  0.1316 -0.4925
 8831TIP3    H150688  -1.870  -0.733  -4.735  0.6446 -1.6338  0.1173
 8831TIP3    H250689  -1.993  -0.767  -4.815  0.2318 -1.5076  0.6936
 8832TIP3   OH250690   0.457   2.438  -3.187 -0.6657 -0.4179  0.4260
 8832TIP3    H150691   0.552   2.424  -3.182 -0.3286  0.6680 -1.7381
 8832TIP3    H250692   0.427   2.373  -3.251 -0.8705  1.1726 -1.1479
 8833TIP3   OH250693  -1.602   0.668  -3.864  0.2895 -0.5307 -0.1465
 8833TIP3    H150694  -1.678   0.679  -3.806 -0.0993 -2.4279 -0.2485
 8833TIP3    H250695  -1.625   0.718  -3.943  0.0847  0.6619  0.6418
 8834TIP3   OH250696  -1.447   0.314  -4.831 -0.4329 -0.3327 -0.1438
 8834TIP3    H150697  -1.458   0.310  -4.736 -1.1868 -0.3975 -0.2269
 8834TIP3    H250698  -1.366   0.363  -4.844 -0.3280 -0.3194  0.5312
 8835TIP3   OH250699  -2.456  -1.247  -3.294  0.0147  0.0559 -0.2778
 8835TIP3    H150700  -2.497  -1.160  -3.285  1.6208  0.8170  0.1632
 8835TIP3    H250701  -2.429  -1.269  -3.205  0.7503 -0.3196 -0.5896
 8836TIP3   OH250702   2.145   2.047  -3.553  0.2224  0.7252 -0.2948
 8836TIP3    H150703   2.207   2.120  -3.559 -0.5158  1.2994 -1.1481
 8836TIP3    H250704   2.110   2.053  -3.464  0.3041  1.2983 -0.2990
 8837TIP3   OH250705   3.307  -2.377  -5.777 -0.1748 -0.1102  0.3642
 8837TIP3    H150706   3.250  -2.379  -5.853  0.6301 -1.4373 -0.2477
 8837TIP3    H250707   3.250  -2.355  -5.704 -1.1027  0.4311 -0.5057
 8838TIP3   OH250708   1.056  -1.696  -3.601  0.6581  0.3694 -0.2460
 8838TIP3    H150709   1.049  -1.620  -3.544 -0.5553  1.4560 -1.7838
 8838TIP3    H250710   1.086  -1.766  -3.543  2.0337  2.0376  1.1647
 8839TIP3   OH250711   1.531   1.375  -4.457  0.6772 -0.1923 -0.6127
 8839TIP3    H150712   1.443   1.412  -4.453  0.8287  0.2473 -1.3336
 8839TIP3    H250713   1.516   1.280  -4.460  0.2262 -0.1226 -0.7109
 8840TIP3   OH250714  -0.854   1.101  -4.584 -0.2219 -0.0311 -0.5719
 8840TIP3    H150715  -0.842   1.026  -4.643 -0.3799 -0.6886  0.2056
 8840TIP3    H250716  -0.783   1.161  -4.606 -0.1571 -0.3654 -1.2859
 8841TIP3   OH250717  -1.370   1.995  -5.588 -0.3084  0.4843  0.0572
 8841TIP3    H150718  -1.432   1.935  -5.630  0.5882  0.4811 -1.3242
 8841TIP3    H250719  -1.411   2.081  -5.595 -0.3194  0.4348 -0.5545
 8842TIP3   OH250720  -2.081   0.028  -5.374 -1.0089  0.2105  0.3620
 8842TIP3    H150721  -2.019   0.058  -5.308  0.5409 -2.9344  0.4862
 8842TIP3    H250722  -2.059   0.080  -5.452  1.0536 -0.0297  0.7232
 8843TIP3   OH250723  -1.094   0.598  -4.649 -0.7154 -0.0575 -0.2565
 8843TIP3    H150724  -1.021   0.551  -4.690 -1.4680 -0.3259 -1.3460
 8843TIP3    H250725  -1.135   0.533  -4.592 -0.4670 -0.0882 -0.1131
 8844TIP3   OH250726  -1.422  -0.897  -3.539  0.6931 -0.1004  0.1700
 8844TIP3    H150727  -1.393  -0.898  -3.448 -1.3412 -1.6015  0.9046
 8844TIP3    H250728  -1.437  -0.805  -3.560  0.3255  0.2028  1.6867
 8845TIP3   OH250729  -2.961   3.133  -3.953 -0.2960  0.2354  0.0979
 8845TIP3    H150730  -2.963   3.143  -4.048 -0.8890  2.8764  0.3300
 8845TIP3    H250731  -2.887   3.075  -3.937 -0.6838 -0.9662 -1.9847
 8846TIP3   OH250732  -3.273  -1.945  -2.720 -0.0434  0.0067  0.3285
 8846TIP3    H150733  -3.287  -1.960  -2.814  0.5333 -1.3942  0.4429
 8846TIP3    H250734  -3.241  -2.029  -2.687 -0.7744  0.3118  1.8918
 8847TIP3   OH250735  -2.677  -2.248  -3.180  0.6288 -0.0356  0.1559
 8847TIP3    H150736  -2.712  -2.318  -3.235 -1.7282  1.1301  0.0594
 8847TIP3    H250737  -2.610  -2.206  -3.234  0.7979 -1.0779 -0.4650
 8848TIP3   OH250738   0.895  -3.075  -4.342 -0.2430  0.0568  0.4666
 8848TIP3    H150739   0.849  -3.157  -4.323  0.1999 -0.8864 -2.0586
 8848TIP3    H250740   0.981  -3.103  -4.372 -0.0433  1.4315 -0.3311
 8849TIP3   OH250741   2.133  -0.072  -5.179 -0.1851  0.0552 -0.2956
 8849TIP3    H150742   2.128   0.023  -5.190  0.4832  0.1349  0.0098
 8849TIP3    H250743   2.078  -0.108  -5.248 -0.3099  0.6635 -0.5140
 8850TIP3   OH250744   2.780   0.121  -3.062 -0.2770  0.6480 -0.3944
 8850TIP3    H150745   2.803   0.135  -3.154 -1.3926  3.3070 -0.3736
 8850TIP3    H250746   2.839   0.180  -3.014 -1.1742  0.9458  0.3615
 8851TIP3   OH250747   2.061  -1.568  -3.511 -0.5481  0.1647  0.2034
 8851TIP3    H150748   1.970  -1.579  -3.487 -0.5581 -1.0361 -0.3165
 8851TIP3    H250749   2.111  -1.610  -3.441 -0.2077  3.1496  1.9253
 8852TIP3   OH250750   2.526   0.197  -4.762  0.5935  0.2917 -0.7073
 8852TIP3    H150751   2.593   0.160  -4.819  0.1457 -0.0299 -1.0358
 8852TIP3    H250752   2.497   0.123  -4.709  2.7799  1.0569  1.7887
 8853TIP3   OH250753  -2.273   2.760  -2.383 -0.2105  0.2771  0.3036
 8853TIP3    H150754  -2.277   2.804  -2.468  1.4682  0.7614  0.4299
 8853TIP3    H250755  -2.328   2.813  -2.326 -1.3271 -0.0342 -0.4550
 8854TIP3   OH250756  -2.389  -2.132  -4.588  0.3193  0.4052 -0.1305
 8854TIP3    H150757  -2.464  -2.080  -4.617  0.7157 -0.0574 -2.1162
 8854TIP3    H250758  -2.420  -2.223  -4.591  0.4626  0.3206  0.6915
 8855TIP3   OH250759   1.874   2.689  -4.478  0.1779  0.4265  0.3002
 8855TIP3    H150760   1.805   2.744  -4.515 -1.4431 -1.5682  0.1948
 8855TIP3    H250761   1.921   2.656  -4.554 -0.2409 -0.0392  0.2375
 8856TIP3   OH250762  -0.521   3.339  -4.610  0.3469  0.3756  0.0479
 8856TIP3    H150763  -0.604   3.326  -4.656 -0.3750 -0.1753  1.4447
 8856TIP3    H250764  -0.536   3.415  -4.554  0.7450  0.2071  0.3907
 8857TIP3   OH250765   2.011  -2.783  -2.235 -0.1498 -0.3711 -0.0065
 8857TIP3    H150766   2.040  -2.776  -2.144  0.3785 -0.6872 -0.1477
 8857TIP3    H250767   2.023  -2.696  -2.271 -0.4949 -0.2093  0.2630
 8858TIP3   OH250768  -0.904  -2.357  -5.858  0.1808  0.4945 -0.2048
 8858TIP3    H150769  -0.915  -2.366  -5.764  0.8126 -0.4842 -0.2051
 8858TIP3    H250770  -0.901  -2.447  -5.891  3.3256  0.6436 -0.7199
 8859TIP3   OH250771  -1.962  -2.178  -5.156  0.2527  0.2419 -0.2756
 8859TIP3    H150772  -1.894  -2.111  -5.160 -0.6485  1.1821 -0.0768
 8859TIP3    H250773  -1.918  -2.254  -5.118  0.7221  1.4582  1.7612
 8860TIP3   OH250774  -0.203  -2.912  -4.927  0.4327  0.1014  0.4164
 8860TIP3    H150775  -0.152  -2.934  -5.005 -0.3649 -0.3068 -0.0093
 8860TIP3    H250776  -0.178  -2.978  -4.862  0.6655  0.0842  0.3076
 8861TIP3   OH250777   0.875   0.314  -3.766 -0.2836 -0.6350 -0.1194
 8861TIP3    H150778   0.853   0.326  -3.674 -1.3172  0.1363 -0.4322
 8861TIP3    H250779   0.806   0.256  -3.799  0.2414 -1.1316 -0.3441
 8862TIP3   OH250780  -1.404   3.151  -5.258  0.6232  0.3704 -0.5270
 8862TIP3    H150781  -1.354   3.132  -5.179 -1.5645  0.0584  0.8748
 8862TIP3    H250782  -1.412   3.247  -5.259 -0.2488  0.3234  0.2753
 8863TIP3   OH250783   0.606   1.492  -4.726  0.1425  0.5765 -0.5772
 8863TIP3    H150784   0.619   1.583  -4.700  1.0168 -0.3526  2.8410
 8863TIP3    H250785   0.690   1.450  -4.707 -1.3678 -1.6356  1.9346
 8864TIP3   OH250786   3.135   1.808  -4.858 -0.0159 -0.0407  0.0373
 8864TIP3    H150787   3.139   1.884  -4.915 -0.3738  0.8558  1.1748
 8864TIP3    H250788   3.050   1.814  -4.815 -0.3578 -1.4743 -0.3530
 8865TIP3   OH250789   2.478   1.379  -4.437  0.2279 -0.0475  0.0445
 8865TIP3    H150790   2.461   1.430  -4.516  1.2487  2.7413  1.4989
 8865TIP3    H250791   2.530   1.437  -4.381  0.6709 -2.3770  2.2549
 8866TIP3   OH250792   2.805  -0.084  -5.356  0.1289 -0.0264  0.3943
 8866TIP3    H150793   2.729  -0.051  -5.403  0.1728  2.7533  2.0658
 8866TIP3    H250794   2.780  -0.080  -5.263  1.3762 -1.6918  0.8606
 8867TIP3   OH250795  -1.272   2.945  -2.041 -0.2092  0.7950 -0.1593
 8867TIP3    H150796  -1.359   2.984  -2.038 -0.1883  0.9261 -0.9569
 8867TIP3    H250797  -1.213   3.017  -2.017 -0.4296  0.1283  2.8165
 8868TIP3   OH250798   2.371  -2.439  -5.521 -0.1988  0.1947 -0.9336
 8868TIP3    H150799   2.374  -2.363  -5.579  2.0784  0.9230  0.0281
 8868TIP3    H250800   2.364  -2.402  -5.433  1.3722 -0.6196 -0.4164
 8869TIP3   OH250801   0.020   1.744  -5.379 -0.3086  0.1018 -0.5944
 8869TIP3    H150802   0.108   1.735  -5.340 -0.7679 -1.6208  0.1570
 8869TIP3    H250803   0.019   1.680  -5.450 -1.2607 -0.5877  0.0220
 8870TIP3   OH250804   0.566  -2.747  -3.537  0.1500 -0.3020 -0.2792
 8870TIP3    H150805   0.542  -2.696  -3.459  1.2862  0.6069 -0.4923
 8870TIP3    H250806   0.503  -2.720  -3.604  0.7753  0.9198 -0.4105
 8871TIP3   OH250807   0.716  -1.089  -5.097 -0.2262 -0.7900  0.6956
 8871TIP3    H150808   0.795  -1.127  -5.058 -0.0571  1.5269  2.8459
 8871TIP3    H250809   0.745  -1.004  -5.130 -1.5917 -0.4562  0.3230
 8872TIP3   OH250810  -0.865  -0.326  -4.988 -0.3346 -0.1064 -0.2321
 8872TIP3    H150811  -0.888  -0.318  -4.896  0.9531 -0.3635  0.1283
 8872TIP3    H250812  -0.876  -0.419  -5.008  0.2313 -0.2112 -0.0868
 8873TIP3   OH250813   1.894  -1.905  -3.313  0.1782 -0.2609 -0.0945
 8873TIP3    H150814   1.807  -1.872  -3.291  0.5121  0.7818 -0.2802
 8873TIP3    H250815   1.887  -1.932  -3.405  0.1126  0.0393 -0.1790
 8874TIP3   OH250816  -0.361  -2.058  -3.816  0.9803 -0.1153  0.1469
 8874TIP3    H150817  -0.328  -2.078  -3.904 -0.5026 -1.2243 -0.1974
 8874TIP3    H250818  -0.291  -2.086  -3.757  1.3046 -0.9544 -0.6138
 8875TIP3   OH250819   1.211  -0.447  -5.207 -0.5327 -0.5904  0.4056
 8875TIP3    H150820   1.269  -0.462  -5.133  1.3261 -2.2433 -1.2923
 8875TIP3    H250821   1.268  -0.414  -5.277 -2.1127  0.2985 -0.5400
 8876TIP3   OH250822  -1.838  -0.570  -5.679 -0.0481  0.6094 -0.1324
 8876TIP3    H150823  -1.910  -0.519  -5.716 -0.6343  0.6258  0.9684
 8876TIP3    H250824  -1.794  -0.510  -5.619  1.0012  0.6462 -0.9171
 8877TIP3   OH250825   1.549  -2.532  -3.584 -0.3868  0.2707 -0.6610
 8877TIP3    H150826   1.611  -2.560  -3.651  0.3130 -1.4077  0.6114
 8877TIP3    H250827   1.603  -2.513  -3.507 -1.3746 -0.4225  0.2304
 8878TIP3   OH250828   2.704  -2.206  -4.632  0.0262 -0.5181  0.0922
 8878TIP3    H150829   2.786  -2.176  -4.593  0.2753 -1.4036  0.2701
 8878TIP3    H250830   2.730  -2.274  -4.694 -0.1525  2.0298 -3.0493
 8879TIP3   OH250831  -3.013  -1.566  -5.348  0.2301  0.1614 -0.8011
 8879TIP3    H150832  -3.078  -1.496  -5.362 -0.0413  0.4612  1.5307
 8879TIP3    H250833  -3.049  -1.642  -5.394 -1.6395  0.4122  0.1703
 8880TIP3   OH250834  -1.056   0.903  -3.863 -0.1818 -0.2616  0.1258
 8880TIP3    H150835  -1.096   0.965  -3.923  2.1869 -0.2285 -1.5620
 8880TIP3    H250836  -0.981   0.951  -3.826  0.8679 -1.6317 -0.1563
 8881TIP3   OH250837   0.392   1.426  -5.146 -0.5644 -0.3189  0.5115
 8881TIP3    H150838   0.406   1.338  -5.179 -0.7331 -0.2750  0.3199
 8881TIP3    H250839   0.421   1.484  -5.217  2.0699 -0.1581  1.6019
 8882TIP3   OH250840   0.518  -0.253  -3.102 -0.0141 -0.1075  0.0599
 8882TIP3    H150841   0.571  -0.180  -3.070 -0.7139  1.0039 -1.2038
 8882TIP3    H250842   0.436  -0.247  -3.054 -0.0405 -0.1058  0.0156
 8883TIP3   OH250843  -1.912   0.198  -5.561  0.2496 -0.2603  0.0703
 8883TIP3    H150844  -1.858   0.245  -5.497  1.5980  0.1327 -1.3240
 8883TIP3    H250845  -1.858   0.125  -5.590 -0.6228 -0.8369 -0.1402
 8884TIP3   OH250846  -1.735  -3.309  -4.442  0.5728 -0.2319  0.4228
 8884TIP3    H150847  -1.743  -3.230  -4.389  1.4377  1.4628 -1.8219
 8884TIP3    H250848  -1.641  -3.328  -4.444  0.4722 -0.7417  0.1359
 8885TIP3   OH250849  -1.241  -2.022  -5.487  0.1258 -0.8131  0.4164
 8885TIP3    H150850  -1.252  -2.113  -5.516 -3.0307 -1.2911  2.6214
 8885TIP3    H250851  -1.314  -1.976  -5.527  1.8002  0.9111 -0.8305
 8886TIP3   OH250852   1.904   0.481  -4.131 -0.0090 -0.4535  0.3147
 8886TIP3    H150853   1.868   0.430  -4.058  1.5157 -0.0429  1.3927
 8886TIP3    H250854   1.998   0.462  -4.129  0.1343  0.0013 -1.2071
 8887TIP3   OH250855  -2.103  -3.278  -4.991  0.5816  0.4229  0.0630
 8887TIP3    H150856  -2.128  -3.308  -4.904 -3.4556  1.1768 -0.6270
 8887TIP3    H250857  -2.082  -3.357  -5.039  1.2380 -0.1478  1.2461
 8888TIP3   OH250858   3.207  -2.206  -4.117 -0.2601 -0.3080  0.1481
 8888TIP3    H150859   3.211  -2.166  -4.203  1.9483 -0.8359 -0.0468
 8888TIP3    H250860   3.244  -2.293  -4.129 -0.2990 -0.5440  1.5532
 8889TIP3   OH250861  -1.406   3.370  -2.563 -0.1935 -0.3769 -0.0076
 8889TIP3    H150862  -1.390   3.431  -2.491 -1.0476 -1.4761  1.1604
 8889TIP3    H250863  -1.340   3.302  -2.552 -0.3714 -0.5865 -0.2133
 8890TIP3   OH250864   3.049   0.388  -5.007 -0.2578 -0.1797  0.0380
 8890TIP3    H150865   3.036   0.453  -5.075 -0.9021 -0.4264 -0.0859
 8890TIP3    H250866   3.018   0.430  -4.927 -1.0311 -0.4568 -0.1068
 8891TIP3   OH250867  -1.300  -1.100  -2.147  0.4121  0.1167  0.0189
 8891TIP3    H150868  -1.322  -1.193  -2.143 -0.5527  0.2335 -1.6305
 8891TIP3    H250869  -1.267  -1.087  -2.237  0.1984  1.4250  0.1080
 8892TIP3   OH250870  -1.998  -0.444  -4.133  0.4276  0.0585 -0.3704
 8892TIP3    H150871  -1.949  -0.513  -4.178  1.8056  1.0787 -0.5068
 8892TIP3    H250872  -1.963  -0.443  -4.044  0.0408  0.2264 -0.2187
 8893TIP3   OH250873   1.425   0.613  -5.896  0.8233  0.1403 -0.2692
 8893TIP3    H150874   1.486   0.593  -5.966 -0.4950 -1.9753 -0.8944
 8893TIP3    H250875   1.456   0.561  -5.821  0.6559  0.2175 -0.1443
 8894TIP3   OH250876  -1.510   0.583  -2.930  0.2318 -0.1744  0.2502
 8894TIP3    H150877  -1.487   0.663  -2.979  0.0347 -0.6043 -0.5614
 8894TIP3    H250878  -1.603   0.592  -2.913  0.2604 -0.1185  0.3804
 8895TIP3   OH250879   2.538  -2.811  -4.599 -0.7482 -0.4506  0.5828
 8895TIP3    H150880   2.623  -2.855  -4.602 -0.9000 -0.9894  2.6080
 8895TIP3    H250881   2.475  -2.883  -4.592 -1.1562  0.0074  1.7926
 8896TIP3   OH250882   1.260  -1.105  -3.991  0.3426  0.3338  0.3794
 8896TIP3    H150883   1.353  -1.079  -3.991  0.9021 -1.4127 -1.1616
 8896TIP3    H250884   1.230  -1.086  -4.080 -0.5973  0.3175  0.6882
 8897TIP3   OH250885   0.235   1.186  -4.044  0.2621 -0.5801  0.1036
 8897TIP3    H150886   0.141   1.205  -4.047  0.5265  0.7279 -0.8934
 8897TIP3    H250887   0.252   1.138  -4.125  0.9497  1.9075 -1.3184
 8898TIP3   OH250888   0.251  -2.804  -5.572  0.0892 -0.2657  0.1932
 8898TIP3    H150889   0.301  -2.738  -5.523  0.3704 -1.0875  1.0298
 8898TIP3    H250890   0.315  -2.871  -5.594 -0.1315 -0.1115 -0.9368
 8899TIP3   OH250891   2.208  -3.225  -3.943 -0.0432 -0.4721 -0.2909
 8899TIP3    H150892   2.170  -3.278  -4.013  2.2836 -0.7097 -1.4519
 8899TIP3    H250893   2.238  -3.289  -3.878 -0.6410 -0.3320  0.1398
 8900TIP3   OH250894  -1.545   0.030  -3.326  0.5193 -0.3635  0.3080
 8900TIP3    H150895  -1.624  -0.007  -3.366  0.2662  1.1027 -0.6456
 8900TIP3    H250896  -1.543   0.121  -3.358  1.7431  0.0857  1.5863
 8901TIP3   OH250897  -2.314   3.068  -4.723 -0.1109 -0.0603  0.4905
 8901TIP3    H150898  -2.400   3.108  -4.731 -0.2759 -0.5669 -0.3551
 8901TIP3    H250899  -2.292   3.076  -4.630 -1.4318 -0.6746  0.8698
 8902TIP3   OH250900  -0.871  -2.346  -3.226  0.5580 -0.3808 -0.0635
 8902TIP3    H150901  -0.928  -2.358  -3.150  0.0989  1.4708 -0.0606
 8902TIP3    H250902  -0.866  -2.433  -3.266  0.2662 -1.2566  1.6801
 8903TIP3   OH250903  -1.823   2.768  -1.443  0.3973  0.1664  0.5824
 8903TIP3    H150904  -1.840   2.715  -1.520 -3.8161  1.0379  0.6619
 8903TIP3    H250905  -1.823   2.706  -1.370 -1.6774 -0.1475  0.3819
 8904TIP3   OH250906  -2.764  -2.953  -4.912 -0.0294 -0.6650 -0.2755
 8904TIP3    H150907  -2.771  -2.878  -4.971  0.5442 -0.6190 -0.2872
 8904TIP3    H250908  -2.692  -3.005  -4.947  2.4685  0.9487  2.1077
 8905TIP3   OH250909   0.038   0.874  -5.157 -0.3551  0.4040 -0.0144
 8905TIP3    H150910   0.064   0.890  -5.067 -1.7338 -0.2104  0.5211
 8905TIP3    H250911   0.104   0.814  -5.191 -0.4596 -0.2911  0.9732
 8906TIP3   OH250912  -2.027   0.047  -3.015 -0.2619  0.1066  0.4662
 8906TIP3    H150913  -2.047   0.114  -2.950  0.9315  0.9506 -0.0013
 8906TIP3    H250914  -1.989   0.095  -3.088  0.8215 -1.1066  0.1943
 8907TIP3   OH250915  -1.232   1.102  -3.714  0.7633 -0.0795  0.0380
 8907TIP3    H150916  -1.288   1.032  -3.746  0.3123  0.4051 -0.2604
 8907TIP3    H250917  -1.247   1.103  -3.619 -1.4302  1.4183 -0.2291
 8908TIP3   OH250918  -0.890  -1.694  -3.366  0.4227  0.4901 -0.3594
 8908TIP3    H150919  -0.834  -1.716  -3.441  1.6197 -0.3537  0.7367
 8908TIP3    H250920  -0.837  -1.633  -3.314 -0.3027  0.8845 -0.0671
 8909TIP3   OH250921  -2.157   2.760  -5.430 -0.0554 -0.4088 -0.3336
 8909TIP3    H150922  -2.207   2.678  -5.425 -1.0399  0.1067 -1.2337
 8909TIP3    H250923  -2.066   2.733  -5.432 -0.3734 -1.4998 -0.7007
 8910TIP3   OH250924   1.887   1.149  -5.916 -0.5184 -0.1266  0.4326
 8910TIP3    H150925   1.910   1.218  -5.854  0.4093  1.6484 -1.7623
 8910TIP3    H250926   1.927   1.176  -5.998 -0.5883 -3.0352 -0.6763
 8911TIP3   OH250927  -0.676   1.203  -4.850  0.0659 -0.2527 -0.6455
 8911TIP3    H150928  -0.635   1.249  -4.924  1.3117  0.1351  0.2627
 8911TIP3    H250929  -0.662   1.261  -4.775 -1.1445 -0.6675 -0.0856
 8912TIP3   OH250930   2.275  -2.992  -3.331 -0.0553 -0.2679 -0.4280
 8912TIP3    H150931   2.344  -3.005  -3.267  1.5070 -0.9525 -2.1538
 8912TIP3    H250932   2.248  -2.901  -3.320  1.1896  0.0353  0.2422
 8913TIP3   OH250933  -2.312   1.816  -5.345  0.2206 -0.4884 -0.1911
 8913TIP3    H150934  -2.288   1.751  -5.410 -1.8235  0.7365 -2.3263
 8913TIP3    H250935  -2.405   1.799  -5.326  0.2925  0.3115  1.0357
 8914TIP3   OH250936  -2.030  -2.501  -5.882  0.8698  0.4563 -0.3107
 8914TIP3    H150937  -1.987  -2.580  -5.912  0.7761  0.6233 -0.8851
 8914TIP3    H250938  -1.962  -2.451  -5.837  1.0979  0.3883 -0.5853
 8915TIP3   OH250939  -1.119  -1.378  -3.206 -0.1416 -0.0146  0.5139
 8915TIP3    H150940  -1.209  -1.399  -3.181  0.0102 -1.6117 -0.1638
 8915TIP3    H250941  -1.114  -1.400  -3.299  0.2066  2.7190 -0.2173
 8916TIP3   OH250942  -1.218  -1.058  -2.399  0.3421  0.0051 -0.4292
 8916TIP3    H150943  -1.147  -1.005  -2.362 -0.6135 -0.1026  1.7184
 8916TIP3    H250944  -1.256  -1.003  -2.467  1.0780  0.9688 -0.0877
 8917TIP3   OH250945  -0.946   0.490  -1.857  0.2313 -0.4529  0.4899
 8917TIP3    H150946  -0.886   0.559  -1.887  1.0971 -0.9022  1.1553
 8917TIP3    H250947  -0.999   0.470  -1.935  1.0272 -0.1360 -0.1546
 8918TIP3   OH250948   3.220   2.955  -3.599  0.2983  0.2105  0.3308
 8918TIP3    H150949   3.257   3.007  -3.527  0.0576 -1.0509  1.4166
 8918TIP3    H250950   3.160   2.895  -3.556  1.0203 -1.3804 -0.7873
 8919TIP3   OH250951   1.507   0.224  -3.476  0.4087 -0.1185  0.4378
 8919TIP3    H150952   1.434   0.171  -3.445  0.4818 -0.4619  0.0271
 8919TIP3    H250953   1.483   0.314  -3.453  1.5666 -0.5103  3.8355
 8920TIP3   OH250954  -0.800   2.158  -4.810  0.1819  0.2410  0.2108
 8920TIP3    H150955  -0.760   2.205  -4.883 -0.9456 -1.2095 -1.4114
 8920TIP3    H250956  -0.834   2.227  -4.753  2.6858  1.4500  0.3721
 8921TIP3   OH250957  -0.802   0.125  -3.412 -0.0742  0.4581  0.4282
 8921TIP3    H150958  -0.852   0.203  -3.389  0.1632  0.8239 -0.2882
 8921TIP3    H250959  -0.846   0.054  -3.364 -0.8331  0.8863  0.3788
 8922TIP3   OH250960  -0.469   3.316  -3.031 -0.2811 -0.2189 -0.2505
 8922TIP3    H150961  -0.453   3.353  -3.117 -1.3429 -0.4356 -0.5554
 8922TIP3    H250962  -0.481   3.222  -3.047 -0.1592 -0.3085  0.1722
 8923TIP3   OH250963   0.435   1.118  -3.828 -0.0794 -0.1422  0.5132
 8923TIP3    H150964   0.473   1.056  -3.890  2.9422  2.0027  0.0361
 8923TIP3    H250965   0.440   1.073  -3.744  0.6208 -1.1134 -0.0330
 8924TIP3   OH250966   1.070   2.356  -3.110 -0.2638 -0.1153 -0.5558
 8924TIP3    H150967   1.060   2.323  -3.020  0.4907  2.1828  0.4381
 8924TIP3    H250968   1.089   2.277  -3.161 -0.4132 -1.4724  1.3343
 8925TIP3   OH250969  -2.128   2.188  -2.512  0.2453 -0.0460 -0.6490
 8925TIP3    H150970  -2.186   2.131  -2.562 -2.0892 -0.0681  1.8273
 8925TIP3    H250971  -2.169   2.193  -2.425  2.1346  2.7712  0.2209
 8926TIP3   OH250972   3.174  -2.701  -4.843  0.1631 -0.2669  0.7442
 8926TIP3    H150973   3.102  -2.747  -4.800 -1.3342  0.9054 -0.3914
 8926TIP3    H250974   3.206  -2.762  -4.910 -0.6387 -0.3053  0.3957
 8927TIP3   OH250975   0.623  -0.656  -5.410  0.1294 -0.0512 -0.3963
 8927TIP3    H150976   0.611  -0.703  -5.492 -0.6689 -0.0919 -0.2637
 8927TIP3    H250977   0.593  -0.567  -5.429  1.9147  0.5159 -0.7349
 8928TIP3   OH250978   2.868  -2.733  -3.992 -0.0441  0.3830  0.0283
 8928TIP3    H150979   2.914  -2.747  -4.075 -0.3916 -1.9836  0.1665
 8928TIP3    H250980   2.916  -2.661  -3.950 -1.2166  3.2142 -3.1074
 8929TIP3   OH250981   1.523  -3.070  -2.797 -0.3889 -0.4826  0.0334
 8929TIP3    H150982   1.446  -3.037  -2.752 -0.4829 -0.1399 -0.3661
 8929TIP3    H250983   1.511  -3.043  -2.888 -0.7494 -2.1274 -0.4370
 8930TIP3   OH250984  -1.318  -0.731  -4.077 -0.3177  0.4009 -0.0914
 8930TIP3    H150985  -1.272  -0.702  -3.998  1.2401 -0.6201 -0.5754
 8930TIP3    H250986  -1.336  -0.824  -4.062  0.0167  0.1898 -0.9407
 8931TIP3   OH250987   2.102  -2.390  -4.344 -0.1557  0.3844  0.2628
 8931TIP3    H150988   2.057  -2.353  -4.419  3.6858 -0.1857 -2.5859
 8931TIP3    H250989   2.129  -2.314  -4.292 -0.3212  0.9818 -0.5100
 8932TIP3   OH250990   0.228  -1.287  -3.980 -0.1981  0.1909 -0.5973
 8932TIP3    H150991   0.140  -1.320  -3.998 -0.0270 -0.4670 -0.2300
 8932TIP3    H250992   0.284  -1.328  -4.046  0.0464 -0.4305 -0.0153
 8933TIP3   OH250993  -0.497   2.148  -2.529 -0.3809  0.2558 -0.0779
 8933TIP3    H150994  -0.426   2.123  -2.587 -1.4428 -0.3071 -1.1837
 8933TIP3    H250995  -0.475   2.237  -2.501  0.6039  0.1998 -0.6215
 8934TIP3   OH250996  -2.550  -0.297  -4.866 -0.5350 -1.0363 -0.2621
 8934TIP3    H150997  -2.556  -0.368  -4.930  0.7747 -0.1943 -1.3691
 8934TIP3    H250998  -2.539  -0.341  -4.782 -0.2683 -2.1581 -0.8675
 8935TIP3   OH250999   0.693   1.365  -3.345  0.0204 -0.1224  0.1806
 8935TIP3    H151000   0.786   1.361  -3.322  0.0377 -1.1441 -0.0472
 8935TIP3    H251001   0.671   1.458  -3.339  0.6574 -0.0512  1.8172
 8936TIP3   OH251002  -3.336  -1.685  -2.792  0.0669  0.4939 -0.6621
 8936TIP3    H151003  -3.250  -1.644  -2.791 -0.4697  1.6663  0.6524
 8936TIP3    H251004  -3.319  -1.778  -2.777  1.0167  0.9408  1.3066
 8937TIP3   OH251005   2.054  -2.767  -3.388  0.6029  0.8290 -0.1479
 8937TIP3    H151006   2.148  -2.758  -3.402  0.5818  1.9383  0.3219
 8937TIP3    H251007   2.027  -2.683  -3.350 -0.0392 -0.5164  2.6408
 8938TIP3   OH251008  -3.263   2.191  -4.713  0.3517  0.0350 -0.1240
 8938TIP3    H151009  -3.357   2.198  -4.733  0.1536 -1.4445  0.1461
 8938TIP3    H251010  -3.260   2.179  -4.618  0.8518  0.5411 -0.0758
 8939TIP3   OH251011  -0.642   0.997  -3.498  0.0817 -0.8277  0.2459
 8939TIP3    H151012  -0.597   0.960  -3.422 -1.5975 -0.5437  1.4434
 8939TIP3    H251013  -0.581   1.061  -3.534  1.2957 -1.6722  0.7506
 8940TIP3   OH251014   1.811   3.292  -4.660 -0.1623 -0.6735 -0.0439
 8940TIP3    H151015   1.726   3.321  -4.694 -0.4983 -0.3651  1.0402
 8940TIP3    H251016   1.796   3.273  -4.568  1.0027 -0.3685  0.2336
 8941TIP3   OH251017  -0.022   0.452  -4.420  0.2078 -0.1736  0.1287
 8941TIP3    H151018  -0.037   0.361  -4.393  1.9776 -0.9722 -1.4586
 8941TIP3    H251019  -0.072   0.461  -4.501  3.7590 -1.3113 -2.3957
 8942TIP3   OH251020   0.041   1.263  -4.513  0.2490 -0.0739  0.4433
 8942TIP3    H151021   0.024   1.170  -4.494 -1.2025 -0.0294 -0.5099
 8942TIP3    H251022   0.092   1.262  -4.593 -0.5869 -0.0416 -0.1018
 8943TIP3   OH251023   0.923   2.774  -4.052 -0.5901 -0.0120  0.4164
 8943TIP3    H151024   0.869   2.838  -4.006 -0.5399  0.6289 -0.3876
 8943TIP3    H251025   1.013   2.805  -4.039 -0.2767 -1.5430  2.4805
 8944TIP3   OH251026  -1.365   3.226  -3.696 -0.2000 -0.1217  0.2401
 8944TIP3    H151027  -1.345   3.275  -3.617 -0.6732 -1.1546  1.0362
 8944TIP3    H251028  -1.387   3.292  -3.761  0.2352  0.7472  0.9625
 8945TIP3   OH251029  -2.173  -3.000  -2.868  0.0397  0.3811  0.0582
 8945TIP3    H151030  -2.119  -2.984  -2.945  1.8204 -3.4151  0.2874
 8945TIP3    H251031  -2.114  -2.987  -2.794  0.1137 -1.6714  0.4189
 8946TIP3   OH251032   2.488   3.119  -5.097  0.1338 -0.3123 -0.2215
 8946TIP3    H151033   2.486   3.051  -5.030 -1.1004  0.3553  0.4567
 8946TIP3    H251034   2.570   3.166  -5.083  0.6174 -1.1645 -0.1970
 8947TIP3   OH251035  -1.553   0.309  -3.029  0.0106 -0.4063 -0.2221
 8947TIP3    H151036  -1.515   0.397  -3.028 -1.5551  0.3007  0.2564
 8947TIP3    H251037  -1.569   0.289  -2.937 -0.6714 -0.7046 -0.3986
 8948TIP3   OH251038   1.407   0.163  -4.739 -0.4576 -0.0951  0.4745
 8948TIP3    H151039   1.443   0.218  -4.809 -0.1996 -0.7920  0.0396
 8948TIP3    H251040   1.329   0.210  -4.710 -0.2588  0.4858  0.0997
 8949TIP3   OH251041  -0.825   3.265  -5.085  0.3277  0.4606  0.1881
 8949TIP3    H151042  -0.831   3.171  -5.104  0.0969  0.1115  1.8704
 8949TIP3    H251043  -0.909   3.300  -5.112  0.0311 -0.0038  0.4976
 8950TIP3   OH251044   0.770   0.836  -4.966 -0.1998  0.5150 -0.2975
 8950TIP3    H151045   0.847   0.845  -4.909 -1.9059  6.5432  1.7402
 8950TIP3    H251046   0.699   0.815  -4.906 -1.2066  1.9083 -0.9636
 8951TIP3   OH251047  -1.213   1.091  -3.420  0.4632  0.2181  0.0313
 8951TIP3    H151048  -1.159   1.037  -3.362  1.0963 -1.9734 -2.4238
 8951TIP3    H251049  -1.296   1.102  -3.373  1.8469  0.8815  2.4645
 8952TIP3   OH251050   0.165   0.603  -3.466 -0.0412  0.5253  0.1786
 8952TIP3    H151051   0.083   0.635  -3.430  0.2579  0.7982  0.6214
 8952TIP3    H251052   0.216   0.682  -3.482  0.3776  0.3218  0.4947
 8953TIP3   OH251053   2.493   3.057  -2.846 -0.5119  0.3100  0.3298
 8953TIP3    H151054   2.442   3.070  -2.925 -1.5058 -0.5260  0.8128
 8953TIP3    H251055   2.548   3.136  -2.840 -1.4985  1.0789 -0.3811
 8954TIP3   OH251056   2.131  -1.930  -4.647  0.1783 -0.2096 -0.3062
 8954TIP3    H151057   2.192  -1.867  -4.610 -2.3480  2.6037 -0.5211
 8954TIP3    H251058   2.132  -1.913  -4.741 -0.6438 -0.3719 -0.3565
 8955TIP3   OH251059   1.052  -1.379  -4.711 -0.0550 -0.2917  0.1764
 8955TIP3    H151060   1.066  -1.427  -4.629  0.2413 -1.0786 -0.3295
 8955TIP3    H251061   1.039  -1.288  -4.683  0.5950 -0.4571  1.0545
 8956TIP3   OH251062   1.311   1.708  -5.669  0.0924 -0.6779  0.2988
 8956TIP3    H151063   1.403   1.693  -5.649 -0.3128 -1.1524  2.0054
 8956TIP3    H251064   1.287   1.636  -5.727  0.5187 -1.2349  0.8011
 8957TIP3   OH251065   2.375  -1.367  -2.984 -0.4044 -0.3385  0.2893
 8957TIP3    H151066   2.347  -1.458  -2.974  0.0891 -0.5033  0.2080
 8957TIP3    H251067   2.318  -1.318  -2.925  0.4708 -0.9245  1.6823
 8958TIP3   OH251068  -0.511   2.142  -3.984  0.4351 -0.0529  0.8298
 8958TIP3    H151069  -0.432   2.197  -3.979 -0.4719  1.4471 -0.5239
 8958TIP3    H251070  -0.497   2.075  -3.917  2.4794  0.6587  1.2011
 8959TIP3   OH251071  -1.154  -3.198  -4.023 -0.8269  0.4640  0.0052
 8959TIP3    H151072  -1.229  -3.231  -4.072  0.0965  0.4534 -1.4572
 8959TIP3    H251073  -1.122  -3.274  -3.974  0.4422 -0.5342 -2.2523
 8960TIP3   OH251074  -0.295   0.878  -3.971  0.0121 -0.3667 -0.1179
 8960TIP3    H151075  -0.239   0.802  -3.990 -0.3804 -0.1598 -2.2602
 8960TIP3    H251076  -0.290   0.932  -4.049  0.1136  1.7672  1.2817
 8961TIP3   OH251077   2.661  -0.291  -2.766 -0.2812 -0.2193 -0.2701
 8961TIP3    H151078   2.738  -0.312  -2.818  0.8866 -0.0208  1.3336
 8961TIP3    H251079   2.675  -0.335  -2.682 -1.1576  1.0873  0.6030
 8962TIP3   OH251080  -2.830  -2.774  -4.607  0.1394 -0.0297  0.3240
 8962TIP3    H151081  -2.818  -2.680  -4.598  2.5011 -0.3357  1.0490
 8962TIP3    H251082  -2.859  -2.786  -4.697 -0.2008  1.3621  0.2217
 8963TIP3   OH251083  -2.052   1.136  -2.901 -0.0604  0.0177  0.4934
 8963TIP3    H151084  -1.994   1.210  -2.883  0.4416  0.0827 -1.2129
 8963TIP3    H251085  -2.131   1.154  -2.851 -0.1292  1.9705 -0.2585
 8964TIP3   OH251086  -1.496   0.830  -2.284 -0.3027 -0.2574 -0.1582
 8964TIP3    H151087  -1.566   0.832  -2.219  0.8789 -0.6901  1.1902
 8964TIP3    H251088  -1.529   0.882  -2.357 -1.4370  0.7884  1.0461
 8965TIP3   OH251089  -1.082  -3.217  -2.043  0.1213 -0.4123  0.1133
 8965TIP3    H151090  -1.013  -3.183  -1.987 -0.6598  0.4531  0.5783
 8965TIP3    H251091  -1.036  -3.261  -2.114  1.1272 -0.9433  1.0729
 8966TIP3   OH251092  -3.064   2.053  -3.744 -0.4978  0.3332  0.2225
 8966TIP3    H151093  -3.134   1.988  -3.731 -0.1375 -0.6109 -2.1367
 8966TIP3    H251094  -2.983   2.003  -3.741 -0.0718  1.0115  0.3304
 8967TIP3   OH251095  -0.739  -0.599  -4.016 -0.4940 -0.0067 -0.2286
 8967TIP3    H151096  -0.722  -0.572  -3.926 -0.2489  0.1490 -0.3202
 8967TIP3    H251097  -0.747  -0.694  -4.011  2.3829 -0.3448 -0.4645
 8968TIP3   OH251098   2.367  -2.108  -4.280  0.0027  0.5119 -0.4535
 8968TIP3    H151099   2.454  -2.145  -4.296  1.8483  3.9132  0.6876
 8968TIP3    H251100   2.328  -2.101  -4.367  1.3232 -0.1021 -1.1234
 8969TIP3   OH251101   1.630  -1.083  -3.456 -0.5973 -0.4552  0.2382
 8969TIP3    H151102   1.693  -1.105  -3.525 -1.1939 -1.3774 -0.0363
 8969TIP3    H251103   1.676  -1.102  -3.375  0.1301  0.6913  0.1186
 8970TIP3   OH251104  -2.816  -0.240  -3.534  0.3217 -0.0009  0.6048
 8970TIP3    H151105  -2.840  -0.278  -3.449  0.3808 -0.0512  0.5998
 8970TIP3    H251106  -2.749  -0.175  -3.512  0.8832 -0.5389  0.5205
 8971TIP3   OH251107   2.027  -2.114  -4.328 -0.4476 -0.3472  0.3918
 8971TIP3    H151108   2.010  -2.118  -4.234  0.9268  0.0324  0.6816
 8971TIP3    H251109   2.062  -2.026  -4.342 -1.1486 -0.2112 -0.5778
 8972TIP3   OH251110  -1.896  -0.448  -5.177  0.5028  0.7246  0.2266
 8972TIP3    H151111  -1.874  -0.541  -5.174  0.3636  0.5889 -1.6263
 8972TIP3    H251112  -1.935  -0.429  -5.092  2.6385 -0.3367  1.5339
 8973TIP3   OH251113  -2.950   0.572  -2.405 -0.9104  0.3597 -0.9248
 8973TIP3    H151114  -2.881   0.595  -2.343 -1.2935  0.0982 -0.3935
 8973TIP3    H251115  -3.022   0.540  -2.350 -1.3842  0.4517 -1.4817
 8974TIP3   OH251116  -1.201   1.764  -2.318 -0.2812 -0.4023 -0.3443
 8974TIP3    H151117  -1.161   1.784  -2.234 -2.1685 -2.5614  1.2063
 8974TIP3    H251118  -1.177   1.672  -2.335  0.7528  0.2151 -2.6391
 8975TIP3   OH251119   2.787   2.293  -3.291  0.7660  0.3819 -0.3645
 8975TIP3    H151120   2.786   2.310  -3.385 -0.0923 -0.6915 -0.5658
 8975TIP3    H251121   2.785   2.380  -3.251  2.4358  0.9063 -1.3142
 8976TIP3   OH251122   0.428  -2.977  -3.789  0.1386  0.8487 -0.2069
 8976TIP3    H151123   0.505  -3.034  -3.780 -1.5783 -2.0869 -2.1111
 8976TIP3    H251124   0.369  -3.005  -3.719 -0.6324  0.3763 -1.0172
 8977TIP3   OH251125  -2.907  -1.729  -2.555 -0.8262 -0.5729  0.0942
 8977TIP3    H151126  -2.914  -1.634  -2.541  0.3209 -0.1662 -1.7195
 8977TIP3    H251127  -2.998  -1.759  -2.555 -1.3184  0.8086 -0.8257
 8978TIP3   OH251128   1.813  -2.500  -4.569 -0.1223 -0.1037  0.2891
 8978TIP3    H151129   1.718  -2.490  -4.578 -0.0437  0.2000 -0.2873
 8978TIP3    H251130   1.849  -2.420  -4.609  0.4313 -1.0481 -1.2014
 8979TIP3   OH251131   0.890  -0.625  -5.439 -0.8519 -0.5062 -0.1191
 8979TIP3    H151132   0.796  -0.615  -5.450 -0.9500 -0.9291  0.3369
 8979TIP3    H251133   0.907  -0.594  -5.350 -0.3471  0.9683 -0.6879
 8980TIP3   OH251134   2.279  -3.311  -1.751 -0.1244  0.1476 -0.2689
 8980TIP3    H151135   2.339  -3.384  -1.764 -0.2083  0.0007  0.1464
 8980TIP3    H251136   2.194  -3.345  -1.779  0.1616  0.7030 -1.8922
 8981TIP3   OH251137  -2.064  -0.121  -2.791  0.1391 -0.4514 -0.2165
 8981TIP3    H151138  -2.039  -0.104  -2.882 -1.3437 -0.2821 -0.6161
 8981TIP3    H251139  -2.040  -0.040  -2.745 -1.6094  0.5744 -1.0141
 8982TIP3   OH251140  -2.291  -3.076  -4.604  0.3382 -0.3063  0.2646
 8982TIP3    H151141  -2.208  -3.109  -4.569  2.0267 -0.6047 -3.5327
 8982TIP3    H251142  -2.314  -3.139  -4.673 -0.7806  1.9974 -1.5988
 8983TIP3   OH251143  -1.095  -1.558  -2.745 -0.2422 -0.0625  0.2306
 8983TIP3    H151144  -1.015  -1.514  -2.775 -0.7505  0.1813 -0.8212
 8983TIP3    H251145  -1.132  -1.497  -2.681 -0.2826  0.4781 -0.2897
 8984TIP3   OH251146  -0.950  -3.286  -4.835  0.7846  0.0852  0.1141
 8984TIP3    H151147  -0.978  -3.238  -4.913 -3.7248  0.2485  1.5045
 8984TIP3    H251148  -0.999  -3.368  -4.839  1.2787 -0.3714  2.1802
 8985TIP3   OH251149   3.271   0.901  -3.282 -0.1210 -0.1173 -0.0231
 8985TIP3    H151150   3.350   0.858  -3.251 -0.2993 -0.3741  0.0821
 8985TIP3    H251151   3.302   0.974  -3.334  0.1893 -0.5621 -0.4721
 8986TIP3   OH251152  -1.134   2.622  -3.114  0.3203 -0.4171  0.3042
 8986TIP3    H151153  -1.200   2.676  -3.157  1.8853 -0.1947 -1.9758
 8986TIP3    H251154  -1.179   2.538  -3.099 -1.1218  0.4168  0.8744
 8987TIP3   OH251155  -0.735  -1.771  -3.577 -0.8491  0.1193 -0.0702
 8987TIP3    H151156  -0.760  -1.816  -3.657  0.2257  0.2521 -0.5007
 8987TIP3    H251157  -0.687  -1.837  -3.526  0.7864  0.7285 -0.7293
 8988TIP3   OH251158  -0.259   1.772  -4.406  0.7441  0.1286 -0.1299
 8988TIP3    H151159  -0.226   1.725  -4.329  0.4994  2.0793  1.2364
 8988TIP3    H251160  -0.352   1.785  -4.388  0.2975 -0.8241 -1.5721
 8989TIP3   OH251161   2.260  -2.570  -4.024 -0.0329  0.0160  0.4178
 8989TIP3    H151162   2.240  -2.656  -4.058 -0.7246  0.2807  0.1418
 8989TIP3    H251163   2.331  -2.538  -4.080 -0.4760  0.0409 -0.1370
 8990TIP3   OH251164   2.960  -0.989  -4.991 -0.1824 -0.2097  0.1664
 8990TIP3    H151165   3.008  -0.970  -5.072  0.9666 -0.9662  0.6416
 8990TIP3    H251166   2.924  -1.077  -5.005 -1.4486  0.3377 -0.1732
 8991TIP3   OH251167   1.760   2.612  -2.907 -0.1194 -0.2302  0.5728
 8991TIP3    H151168   1.851   2.627  -2.882 -0.1006  0.0191  0.3555
 8991TIP3    H251169   1.718   2.698  -2.901 -0.6190 -0.5423  1.7950
 8992TIP3   OH251170   0.786   3.234  -4.022 -0.0693  0.5530 -0.1594
 8992TIP3    H151171   0.777   3.228  -3.927  0.2092 -0.0656 -0.1733
 8992TIP3    H251172   0.713   3.183  -4.057  1.3271 -1.4715 -0.2693
 8993TIP3   OH251173   0.804   2.394  -2.814 -0.4408 -0.4278  0.2878
 8993TIP3    H151174   0.736   2.353  -2.867  0.7898 -2.1592 -0.0165
 8993TIP3    H251175   0.886   2.363  -2.851  0.8460  4.4183 -1.7410
 8994TIP3   OH251176   1.121  -2.606  -2.802  0.1119 -0.4905 -0.6602
 8994TIP3    H151177   1.166  -2.583  -2.720 -0.4473 -1.6039 -0.0087
 8994TIP3    H251178   1.126  -2.527  -2.855  0.4007  0.2949  0.4887
 8995TIP3   OH251179  -0.154  -2.287  -3.539 -0.8775  0.3683 -0.1051
 8995TIP3    H151180  -0.249  -2.275  -3.541 -0.9928 -0.6118 -1.1137
 8995TIP3    H251181  -0.142  -2.374  -3.501 -0.4067  0.2595 -0.4953
 8996TIP3   OH251182  -0.441  -2.684  -4.329  0.0997 -0.4515 -0.2110
 8996TIP3    H151183  -0.508  -2.750  -4.309  0.2798 -0.2462  1.1875
 8996TIP3    H251184  -0.447  -2.672  -4.423 -1.3782 -0.9245 -0.2104
 8997TIP3   OH251185  -2.569   0.700  -3.723  0.4717  0.2269 -0.3709
 8997TIP3    H151186  -2.649   0.724  -3.677 -1.5900  1.8724 -4.2658
 8997TIP3    H251187  -2.580   0.607  -3.743  0.5532 -0.0605  0.8554
 8998TIP3   OH251188   0.457   1.591  -5.351 -0.0513 -0.6723 -0.7237
 8998TIP3    H151189   0.449   1.679  -5.387 -1.1805 -0.1917  0.5959
 8998TIP3    H251190   0.498   1.540  -5.421  0.8913  0.9457 -1.4155
 8999TIP3   OH251191  -1.655  -1.234  -5.226 -0.5080 -0.4211  0.0764
 8999TIP3    H151192  -1.724  -1.168  -5.229 -1.0802 -0.9368  1.1706
 8999TIP3    H251193  -1.584  -1.197  -5.278 -1.7620 -0.0797 -1.4575
 9000TIP3   OH251194  -2.020   3.129  -3.781 -0.0602  0.1862  0.5321
 9000TIP3    H151195  -2.020   3.043  -3.738  0.3785 -1.0518 -1.7882
 9000TIP3    H251196  -1.933   3.164  -3.764  1.1420 -1.5394 -1.5164
 9001TIP3   OH251197   0.517  -2.584  -3.299 -0.1408  0.7807 -0.0090
 9001TIP3    H151198   0.579  -2.633  -3.243 -1.4566 -0.2972  0.5646
 9001TIP3    H251199   0.568  -2.511  -3.332  1.9925 -1.0266 -1.0124
 9002TIP3   OH251200   2.884   2.065  -2.031 -0.3369  0.0222 -0.1321
 9002TIP3    H151201   2.926   2.050  -1.946 -1.4689  2.6731  0.9980
 9002TIP3    H251202   2.796   2.029  -2.021 -1.5568  3.0355  1.0487
 9003TIP3   OH251203  -1.410   0.900  -4.175 -0.6286  0.1179 -0.2791
 9003TIP3    H151204  -1.337   0.960  -4.159 -1.0393  0.5979 -0.1800
 9003TIP3    H251205  -1.371   0.813  -4.171  0.3121  0.4126 -2.1636
 9004TIP3   OH251206   1.683   2.701  -5.600 -0.2464 -0.1362  0.3168
 9004TIP3    H151207   1.762   2.649  -5.617 -1.0325 -0.9934 -0.8409
 9004TIP3    H251208   1.696   2.781  -5.651 -0.6648 -0.8225 -0.8971
 9005TIP3   OH251209   3.196  -2.623  -5.172  0.2889  0.3776 -0.3719
 9005TIP3    H151210   3.145  -2.581  -5.103  2.8957  2.2235  0.5798
 9005TIP3    H251211   3.236  -2.699  -5.130 -2.7655 -2.1571 -1.5653
 9006TIP3   OH251212  -2.614   1.763  -5.312  0.1599 -0.5970 -0.5718
 9006TIP3    H151213  -2.611   1.843  -5.364 -0.5547  1.7676  2.7265
 9006TIP3    H251214  -2.704   1.731  -5.324  0.1124 -0.3022 -1.0458
 9007TIP3   OH251215  -2.865  -0.661  -4.358  0.5010 -0.0431 -0.3341
 9007TIP3    H151216  -2.938  -0.604  -4.333 -0.0461  0.2966 -2.5041
 9007TIP3    H251217  -2.850  -0.641  -4.451  0.5845 -3.0846 -1.0715
 9008TIP3   OH251218   0.338   2.046  -3.877 -0.5956 -0.0140  0.3310
 9008TIP3    H151219   0.379   1.985  -3.939 -2.2466  1.7023 -2.6031
 9008TIP3    H251220   0.409   2.068  -3.816  1.9473  0.1878 -2.4692
 9009TIP3   OH251221   3.341  -1.022  -2.946 -0.2712  0.1002 -0.2348
 9009TIP3    H151222   3.271  -1.061  -2.999  0.5312 -0.5196 -0.8730
 9009TIP3    H251223   3.296  -0.962  -2.887 -1.3168 -0.1012 -0.7981
 9010TIP3   OH251224  -2.867  -0.515  -3.098 -0.1104 -1.0584  0.4637
 9010TIP3    H151225  -2.815  -0.555  -3.167 -0.9076 -0.6030 -0.4207
 9010TIP3    H251226  -2.880  -0.585  -3.034 -0.1127 -1.7451 -0.2783
 9011TIP3   OH251227   2.111  -0.949  -2.930 -0.0261  0.4560 -0.3561
 9011TIP3    H151228   2.184  -0.939  -2.869 -0.5433  0.6246  0.2596
 9011TIP3    H251229   2.035  -0.915  -2.881 -0.3228  1.3211 -1.3770
 9012TIP3   OH251230  -3.260   2.454  -4.405  0.0596  0.1018 -0.1722
 9012TIP3    H151231  -3.271   2.484  -4.315 -0.4261 -1.5154  0.3452
 9012TIP3    H251232  -3.226   2.366  -4.396 -1.2441 -0.5801 -1.5253
 9013TIP3   OH251233   2.834  -0.284  -3.762 -0.0780 -0.0306  0.3763
 9013TIP3    H151234   2.876  -0.319  -3.683  1.5970 -1.0667 -0.9207
 9013TIP3    H251235   2.900  -0.229  -3.803 -1.1129  0.9338 -0.0644
 9014TIP3   OH251236   1.425  -2.526  -3.121  0.1124 -0.0673  0.4817
 9014TIP3    H151237   1.371  -2.577  -3.180 -0.4008 -1.8896  2.4016
 9014TIP3    H251238   1.488  -2.482  -3.178 -0.2146 -1.8585 -1.3856
 9015TIP3   OH251239  -2.542   0.826  -3.136 -0.1924  0.0097  0.0143
 9015TIP3    H151240  -2.463   0.776  -3.113  0.6716  1.0786 -0.5176
 9015TIP3    H251241  -2.533   0.907  -3.087 -1.1567 -0.0032  0.2203
 9016TIP3   OH251242   2.253  -0.007  -3.896  0.0576 -0.9348  0.0767
 9016TIP3    H151243   2.348  -0.018  -3.903  0.0366 -1.0948  0.0367
 9016TIP3    H251244   2.226   0.019  -3.984  0.3107  1.0361  0.5213
 9017TIP3   OH251245  -2.758   1.152  -4.046  0.1218  0.1769 -0.3384
 9017TIP3    H151246  -2.845   1.145  -4.008  0.4611  1.9857  0.8582
 9017TIP3    H251247  -2.757   1.237  -4.090  1.4312  0.3983  0.0743
 9018TIP3   OH251248   0.360  -1.301  -3.528 -0.1130 -0.0051  0.3903
 9018TIP3    H151249   0.422  -1.332  -3.593  0.4917  1.0603  0.4414
 9018TIP3    H251250   0.288  -1.264  -3.579  0.2527  0.6147  0.3021
 9019TIP3   OH251251  -2.010   0.115  -3.985 -0.2555 -0.2205 -0.2251
 9019TIP3    H151252  -2.095   0.117  -4.028  0.6451  1.4464 -2.0810
 9019TIP3    H251253  -1.960   0.049  -4.033  0.1543  0.2700 -0.4706
 9020TIP3   OH251254  -1.590   0.285  -4.025  0.3912  0.0237  0.6965
 9020TIP3    H151255  -1.683   0.294  -4.003  0.0339 -1.2852 -0.1284
 9020TIP3    H251256  -1.556   0.223  -3.960  0.4977 -0.0749  0.5472
 9021TIP3   OH251257  -1.851   0.940  -4.284 -0.1091  0.7235 -0.2238
 9021TIP3    H151258  -1.762   0.938  -4.319 -0.0908  0.6659 -0.1748
 9021TIP3    H251259  -1.897   1.005  -4.338  0.2433  1.5383  0.4449
 9022TIP3   OH251260  -0.205   1.097  -4.683  0.3414  0.1777  0.5422
 9022TIP3    H151261  -0.214   1.170  -4.745  2.6548  0.3421  0.3326
 9022TIP3    H251262  -0.200   1.019  -4.739  0.5188  0.1275  0.6301
 9023TIP3   OH251263   2.615   2.169  -3.089 -0.5541 -0.1141  0.2628
 9023TIP3    H151264   2.668   2.206  -3.159  0.4201  0.7859  1.4281
 9023TIP3    H251265   2.526   2.167  -3.125  0.3746 -2.9331 -2.2269
 9024TIP3   OH251266  -1.633   2.287  -5.683 -0.3220 -0.2812 -0.1450
 9024TIP3    H151267  -1.554   2.294  -5.629 -1.1084 -1.2039  1.1761
 9024TIP3    H251268  -1.682   2.214  -5.645 -1.3761 -0.3480 -1.5323
 9025TIP3   OH251269   3.235   2.235  -3.770  0.0566 -0.3984  0.2845
 9025TIP3    H151270   3.233   2.164  -3.706 -0.5307  0.1697  0.9175
 9025TIP3    H251271   3.324   2.234  -3.805  1.0593  0.5793  2.6350
 9026TIP3   OH251272   2.346   2.162  -5.520 -0.0805 -0.1197  0.4201
 9026TIP3    H151273   2.437   2.164  -5.551  0.0644 -0.4236  0.8172
 9026TIP3    H251274   2.344   2.090  -5.457 -0.7962 -0.6505 -0.1919
 9027TIP3   OH251275  -3.007   1.911  -2.358  0.3906  0.8886 -0.3315
 9027TIP3    H151276  -3.092   1.866  -2.350  0.3995  0.7482 -0.9937
 9027TIP3    H251277  -3.030   2.001  -2.383  0.4522  0.7505 -0.8856
 9028TIP3   OH251278  -1.120  -2.912  -5.214  0.2136  0.0507 -1.1747
 9028TIP3    H151279  -1.068  -2.896  -5.292  1.1810  1.8850 -0.2037
 9028TIP3    H251280  -1.194  -2.851  -5.221  1.0431  1.2391 -0.0391
 9029TIP3   OH251281  -1.610   1.733  -2.652 -0.4367  0.4933  0.3540
 9029TIP3    H151282  -1.646   1.757  -2.567  0.3937  0.9173  0.5956
 9029TIP3    H251283  -1.535   1.790  -2.664  1.6341 -1.9164  0.9533
 9030TIP3   OH251284  -2.512   2.015  -5.286  0.0473  0.2707 -0.5760
 9030TIP3    H151285  -2.495   2.100  -5.246 -0.3732  0.7684 -1.4324
 9030TIP3    H251286  -2.432   1.995  -5.335  0.5058 -0.2715  0.3649
 9031TIP3   OH251287  -3.049   3.103  -4.228 -0.5683  0.6255 -0.0697
 9031TIP3    H151288  -3.021   3.156  -4.303 -2.4425  0.9906 -0.5449
 9031TIP3    H251289  -2.978   3.039  -4.217 -0.0173  0.8770 -1.8383
 9032TIP3   OH251290  -2.143  -2.236  -5.352  0.2971 -0.5785  0.5645
 9032TIP3    H151291  -2.233  -2.210  -5.334 -0.4424 -0.8716 -2.3107
 9032TIP3    H251292  -2.091  -2.190  -5.285 -1.7463  1.4628  0.8562
 9033TIP3   OH251293   1.556   0.519  -2.606 -0.5614  0.7054  0.2464
 9033TIP3    H151294   1.493   0.477  -2.665  0.2450 -0.8652  0.4490
 9033TIP3    H251295   1.618   0.563  -2.664  0.1096 -0.6596 -0.1158
 9034TIP3   OH251296  -1.526   2.587  -2.633 -0.5567  0.4379 -0.2373
 9034TIP3    H151297  -1.479   2.516  -2.590  1.8172  1.0237 -1.6507
 9034TIP3    H251298  -1.613   2.587  -2.593  0.1473 -1.6990  1.4655
 9035TIP3   OH251299  -1.351   0.927  -5.605  0.7113  0.1641  0.1134
 9035TIP3    H151300  -1.280   0.972  -5.558  2.5251 -1.9164 -0.4693
 9035TIP3    H251301  -1.374   0.854  -5.547 -0.4203  0.3644 -0.0771
 9036TIP3   OH251302   2.646   2.359  -4.494  0.4837 -0.8713 -0.1821
 9036TIP3    H151303   2.607   2.437  -4.454 -0.1491 -1.3137  0.0845
 9036TIP3    H251304   2.713   2.393  -4.553  1.0840 -0.1749  0.8641
 9037TIP3   OH251305  -2.066   0.645  -4.449 -0.2637 -0.1024  0.0527
 9037TIP3    H151306  -2.056   0.727  -4.401  0.1087 -0.8727  1.3458
 9037TIP3    H251307  -1.981   0.602  -4.441 -0.9849 -1.4250  0.9741
 9038TIP3   OH251308   0.691   1.763  -4.238 -0.3713  0.1199  0.0587
 9038TIP3    H151309   0.698   1.667  -4.242 -0.3156  0.1646 -3.0545
 9038TIP3    H251310   0.768   1.790  -4.188 -0.3423 -1.4414  0.9249
 9039TIP3   OH251311   0.790  -3.217  -4.839  0.7580 -0.3171  0.6563
 9039TIP3    H151312   0.845  -3.187  -4.767  0.4357  0.6048  0.5354
 9039TIP3    H251313   0.706  -3.173  -4.825  1.0158  0.7879 -0.8641
 9040TIP3   OH251314   0.143  -2.981  -3.397  0.3373 -0.0313  0.2573
 9040TIP3    H151315   0.164  -3.074  -3.386 -0.3925 -0.4295 -1.4106
 9040TIP3    H251316   0.130  -2.971  -3.492 -2.2157  1.1877  0.6635
 9041TIP3   OH251317   1.990   1.341  -3.561  0.1716  0.3337  0.2078
 9041TIP3    H151318   1.994   1.286  -3.640 -0.6147  0.3030  0.1799
 9041TIP3    H251319   1.907   1.389  -3.570 -0.7852 -0.9253  1.8385
 9042TIP3   OH251320  -3.153   1.414  -3.367  0.1181 -0.3709 -0.6551
 9042TIP3    H151321  -3.211   1.481  -3.330  1.1966 -0.3405  1.0626
 9042TIP3    H251322  -3.103   1.460  -3.434 -1.0680 -0.1531 -1.4291
 9043TIP3   OH251323  -2.521  -3.301  -3.357  0.2864 -0.0552 -0.1198
 9043TIP3    H151324  -2.554  -3.254  -3.433  1.5874  4.1108  1.6039
 9043TIP3    H251325  -2.426  -3.299  -3.367  0.4470 -0.1922  1.1865
 9044TIP3   OH251326   3.209  -0.063  -2.213 -0.4488  0.0704 -0.2704
 9044TIP3    H151327   3.242  -0.036  -2.298 -0.1682 -1.3582 -0.6356
 9044TIP3    H251328   3.118  -0.034  -2.212 -0.6780 -0.5885 -1.3648
 9045TIP3   OH251329   1.800  -2.867  -3.381 -0.3980 -0.1406  0.3356
 9045TIP3    H151330   1.886  -2.837  -3.411 -0.2789  0.6116  1.3656
 9045TIP3    H251331   1.817  -2.949  -3.336 -0.2214 -0.0351  0.4649
 9046TIP3   OH251332  -2.920  -0.168  -3.262 -0.2659  0.0192  0.3228
 9046TIP3    H151333  -2.937  -0.181  -3.168 -0.6943  1.5758  0.4992
 9046TIP3    H251334  -2.858  -0.095  -3.265  0.5005 -0.6440 -0.5978
 9047TIP3   OH251335  -2.730   0.375  -2.777  0.3563 -0.4987 -0.0994
 9047TIP3    H151336  -2.805   0.321  -2.803  0.6523 -0.6183 -0.7192
 9047TIP3    H251337  -2.659   0.312  -2.765  0.6188 -0.2856 -0.5127
 9048TIP3   OH251338  -0.719   1.530  -3.373  0.2066 -0.1894 -0.2523
 9048TIP3    H151339  -0.715   1.434  -3.381 -1.2925 -0.2751 -0.2675
 9048TIP3    H251340  -0.776   1.557  -3.445  0.9673  0.7647 -0.5081
 9049TIP3   OH251341   3.294   1.768  -4.583 -0.5478  0.2243 -0.3927
 9049TIP3    H151342   3.302   1.860  -4.558  2.7092  0.2656 -1.0935
 9049TIP3    H251343   3.279   1.770  -4.677  0.3790  0.0589 -0.5501
 9050TIP3   OH251344  -2.998  -1.019  -5.410  0.7370  0.1195  0.5162
 9050TIP3    H151345  -3.059  -0.964  -5.459  1.1524  0.4631  0.3773
 9050TIP3    H251346  -3.041  -1.105  -5.405  0.5038  0.2007 -0.0780
 9051TIP3   OH251347  -2.794   1.699  -4.159  0.3599  0.6030  0.3680
 9051TIP3    H151348  -2.787   1.667  -4.249  0.6906  1.3523  0.1243
 9051TIP3    H251349  -2.851   1.636  -4.116  0.8965 -0.2541 -0.1375
 9052TIP3   OH251350   2.561  -2.721  -4.931 -0.2906  0.3033 -0.1014
 9052TIP3    H151351   2.519  -2.723  -5.017  0.4310  0.0505 -0.4594
 9052TIP3    H251352   2.534  -2.803  -4.890  1.7014 -1.0414 -1.2687
 9053TIP3   OH251353  -1.327  -2.847  -5.991  0.0402  0.2918 -0.4460
 9053TIP3    H151354  -1.352  -2.932  -5.955  2.1734 -0.6179 -0.9256
 9053TIP3    H251355  -1.369  -2.844  -6.077 -1.6130  0.6183  0.3304
 9054TIP3   OH251356  -3.320   0.789  -2.909  1.0728 -0.2218  0.4857
 9054TIP3    H151357  -3.335   0.710  -2.960  1.1128 -0.1542  0.3699
 9054TIP3    H251358  -3.262   0.843  -2.963  0.1918  0.3559  0.1003
 9055TIP3   OH251359   0.438  -3.008  -5.165 -0.3338  0.4679 -0.1651
 9055TIP3    H151360   0.512  -3.017  -5.225 -1.0543 -0.6985 -0.9300
 9055TIP3    H251361   0.418  -3.098  -5.139 -0.0933  0.9311  1.7940
 9056TIP3   OH251362  -1.835   2.276  -3.857 -0.2850  0.2085 -0.3286
 9056TIP3    H151363  -1.809   2.250  -3.945  0.1993  0.2029 -0.1876
 9056TIP3    H251364  -1.779   2.351  -3.836  0.9537 -0.9558  0.6912
 9057TIP3   OH251365   2.471  -0.908  -3.453 -0.5522  0.2319 -0.1102
 9057TIP3    H151366   2.531  -0.849  -3.498 -0.1626 -0.8668 -1.0803
 9057TIP3    H251367   2.527  -0.972  -3.411 -1.0108 -1.4065 -1.8743
 9058TIP3   OH251368  -2.378  -0.801  -5.646  0.3728  0.3384  0.2755
 9058TIP3    H151369  -2.365  -0.722  -5.698  0.3933  0.0764 -0.1259
 9058TIP3    H251370  -2.431  -0.773  -5.572 -0.9853  0.4261 -0.6856
 9059TIP3   OH251371  -2.967  -1.934  -4.598  0.3710 -0.3130  0.3124
 9059TIP3    H151372  -3.005  -1.879  -4.530  2.8247  0.8531  0.8689
 9059TIP3    H251373  -3.034  -1.938  -4.666  0.1617  3.7758  0.0455
 9060TIP3   OH251374   1.430   2.221  -3.338 -0.6786  0.2778  0.0808
 9060TIP3    H151375   1.502   2.182  -3.287 -0.4698  0.5626  0.0026
 9060TIP3    H251376   1.420   2.163  -3.413  1.2673  1.6616 -1.3444
 9061TIP3   OH251377   0.298  -1.904  -3.239  0.1882 -0.0586  0.5247
 9061TIP3    H151378   0.385  -1.894  -3.201  0.4887 -0.3419 -0.0788
 9061TIP3    H251379   0.260  -1.980  -3.195  1.1842 -1.4343 -0.9109
 9062TIP3   OH251380  -1.541  -1.666  -4.000 -0.3916 -0.6117  0.1571
 9062TIP3    H151381  -1.456  -1.626  -4.017  0.0046 -1.0303  1.0802
 9062TIP3    H251382  -1.539  -1.689  -3.907 -0.8421 -2.1611 -0.1781
 9063TIP3   OH251383  -1.962  -2.284  -4.467 -0.1146  0.0731 -0.0356
 9063TIP3    H151384  -2.036  -2.284  -4.407 -1.2882  1.2139 -1.3949
 9063TIP3    H251385  -1.970  -2.366  -4.515  0.6454 -0.6946  1.0949
 9064TIP3   OH251386   1.190   0.692  -4.222 -0.0750  0.3134 -0.5084
 9064TIP3    H151387   1.263   0.729  -4.272 -0.7052 -0.9064 -2.4814
 9064TIP3    H251388   1.229   0.622  -4.171  0.0306 -1.2641 -2.6126
 9065TIP3   OH251389  -2.998   0.120  -4.710  0.3247  0.0357 -0.0385
 9065TIP3    H151390  -2.968   0.031  -4.692  0.5386  0.1748  0.2991
 9065TIP3    H251391  -2.937   0.153  -4.776 -1.0336 -0.8136 -1.8131
 9066TIP3   OH251392   1.441   2.412  -3.131 -0.2115  0.3012 -0.0366
 9066TIP3    H151393   1.387   2.354  -3.077 -1.1775 -0.2273 -1.4974
 9066TIP3    H251394   1.445   2.368  -3.217 -1.6332  2.7183 -1.4417
 9067TIP3   OH251395   1.511   1.548  -3.454  0.3662  0.1641  0.7592
 9067TIP3    H151396   1.540   1.601  -3.528  1.8250 -1.2064  0.3014
 9067TIP3    H251397   1.416   1.557  -3.454  0.2197 -0.5708 -1.8935
 9068TIP3   OH251398  -1.126  -2.798  -5.794  0.2020  0.2944  0.1211
 9068TIP3    H151399  -1.195  -2.825  -5.853  0.7169  1.0581 -0.8697
 9068TIP3    H251400  -1.055  -2.860  -5.810 -0.4392 -0.8744  1.5880
 9069TIP3   OH251401  -3.258  -3.079  -5.681  0.3083 -0.3958  0.2733
 9069TIP3    H151402  -3.288  -3.142  -5.615 -0.2324  0.1788  0.5898
 9069TIP3    H251403  -3.287  -3.117  -5.764  0.8115 -1.0199  0.3727
 9070TIP3   OH251404   2.949  -0.333  -3.528  1.2213  0.0243 -0.1281
 9070TIP3    H151405   2.959  -0.362  -3.437  2.7206 -0.1227 -0.3056
 9070TIP3    H251406   2.976  -0.241  -3.527 -0.7765  0.6480 -0.0797
 9071TIP3   OH251407   3.059  -0.083  -3.567 -0.0966 -0.0675 -0.0179
 9071TIP3    H151408   3.079  -0.080  -3.661  2.8325 -2.5478  0.3636
 9071TIP3    H251409   3.122  -0.023  -3.527 -0.6932  0.2589  0.4440
 9072TIP3   OH251410   1.563   0.467  -3.667 -0.5280 -0.4249  0.3641
 9072TIP3    H151411   1.586   0.493  -3.756  0.1843 -0.4598  0.5306
 9072TIP3    H251412   1.474   0.432  -3.674 -0.5690 -0.1940 -0.2861
 9073TIP3   OH251413   0.889   2.291  -3.834 -0.5704 -0.3892  0.4440
 9073TIP3    H151414   0.833   2.362  -3.865 -0.8445  0.0670  1.9448
 9073TIP3    H251415   0.920   2.249  -3.915  0.2576  1.9094 -0.5164
 9074TIP3   OH251416  -0.111  -1.485  -6.001 -0.1884 -0.2494 -0.4468
 9074TIP3    H151417  -0.027  -1.495  -5.957  0.1075 -2.0552 -1.3062
 9074TIP3    H251418  -0.125  -1.569  -6.045 -1.7937  0.4865 -1.4507
 9075TIP3   OH251419  -1.024  -1.769  -5.720 -0.5094 -0.9021  0.6740
 9075TIP3    H151420  -1.081  -1.802  -5.789 -0.4602 -0.1793  0.2710
 9075TIP3    H251421  -0.944  -1.820  -5.727 -0.8572 -1.4716  0.8146
 9076TIP3   OH251422  -2.818  -1.773  -5.957  0.1275 -0.6168 -0.0101
 9076TIP3    H151423  -2.823  -1.677  -5.960 -1.0205 -0.6694 -0.9781
 9076TIP3    H251424  -2.760  -1.792  -5.884  1.1907  0.8358 -0.4134
 9077TIP3   OH251425   0.024  -1.610  -4.981 -0.2278  0.3987 -0.0955
 9077TIP3    H151426   0.073  -1.613  -5.064 -1.4638  2.0009 -0.9536
 9077TIP3    H251427  -0.043  -1.543  -4.996 -1.1392 -0.0129  1.8694
 9078TIP3   OH251428   0.777  -3.083  -4.022  0.1826 -0.3710  0.0831
 9078TIP3    H151429   0.709  -3.105  -3.958  0.8260  1.5683  1.5193
 9078TIP3    H251430   0.847  -3.146  -4.004 -0.4962 -1.2394 -0.2198
 9079TIP3   OH251431  -0.960  -2.715  -4.331 -0.0541  0.2661 -0.3130
 9079TIP3    H151432  -0.990  -2.804  -4.316  1.3549 -0.1653  0.1451
 9079TIP3    H251433  -1.006  -2.687  -4.409 -0.6250 -0.8167 -0.3848
 9080TIP3   OH251434  -2.367  -1.282  -3.022 -0.6011  0.3653  0.0312
 9080TIP3    H151435  -2.342  -1.205  -2.971 -1.4312  1.1610 -0.7169
 9080TIP3    H251436  -2.420  -1.335  -2.961 -1.3315  1.1530  0.0973
 9081TIP3   OH251437  -0.537  -1.187  -4.752  0.3034 -0.2625  0.0175
 9081TIP3    H151438  -0.463  -1.183  -4.691 -0.4217 -0.2795  0.9124
 9081TIP3    H251439  -0.539  -1.101  -4.794  0.7123 -0.2019  0.1213
 9082TIP3   OH251440   2.131   2.875  -3.539 -0.2663  0.2037 -0.3712
 9082TIP3    H151441   2.190   2.809  -3.504  0.9088  1.7070  0.6024
 9082TIP3    H251442   2.063   2.825  -3.585  0.1033 -1.6902  1.0306
 9083TIP3   OH251443  -3.087   0.747  -2.579  0.0841  0.2344  0.2146
 9083TIP3    H151444  -3.140   0.671  -2.603 -0.0988  0.6804 -0.8404
 9083TIP3    H251445  -3.023   0.713  -2.516 -0.8441 -0.5045  0.7883
 9084TIP3   OH251446  -1.856   0.863  -4.833 -0.2583 -0.1208 -0.3163
 9084TIP3    H151447  -1.929   0.802  -4.823  0.0033 -0.3763  0.0547
 9084TIP3    H251448  -1.894   0.949  -4.814 -0.1195 -0.4207  1.4675
 9085TIP3   OH251449   0.831  -2.188  -4.083  0.1989  0.2440 -0.0105
 9085TIP3    H151450   0.874  -2.177  -3.998  0.3940  0.2413 -0.1097
 9085TIP3    H251451   0.791  -2.275  -4.078  1.6003 -0.4547 -0.5387
 9086TIP3   OH251452  -1.086   1.794  -4.708 -0.1656 -0.6512  0.4435
 9086TIP3    H151453  -1.156   1.752  -4.657 -1.0628  0.3055  0.0465
 9086TIP3    H251454  -1.059   1.869  -4.655 -1.0093  0.2688 -0.3855
 9087TIP3   OH251455  -0.549  -2.262  -3.764  0.2439  0.1443 -0.3107
 9087TIP3    H151456  -0.634  -2.220  -3.752 -0.0806 -0.7530  0.6113
 9087TIP3    H251457  -0.488  -2.189  -3.777 -0.1715  0.9798  2.0178
 9088TIP3   OH251458   0.603  -3.158  -4.213 -0.1144  0.5830  0.0327
 9088TIP3    H151459   0.645  -3.103  -4.147  0.7924 -0.7567  0.6212
 9088TIP3    H251460   0.660  -3.235  -4.221 -3.5202 -2.6306  2.7331
 9089TIP3   OH251461  -1.459   2.700  -5.356 -0.1590 -0.4092 -0.6666
 9089TIP3    H151462  -1.437   2.785  -5.317 -1.3066  0.1805 -1.2521
 9089TIP3    H251463  -1.386   2.643  -5.332  0.7849  0.8236 -0.5228
 9090TIP3   OH251464  -1.283   3.077  -4.299 -0.8063 -0.0643 -0.4903
 9090TIP3    H151465  -1.377   3.075  -4.282 -0.8402 -0.2545 -0.6971
 9090TIP3    H251466  -1.247   3.009  -4.243 -0.7340  0.3115 -0.0730
 9091TIP3   OH251467  -1.460  -2.487  -5.415  0.0653 -0.4429 -0.3571
 9091TIP3    H151468  -1.539  -2.498  -5.362 -1.0230 -1.9151 -2.1551
 9091TIP3    H251469  -1.467  -2.399  -5.452  0.0181 -0.0336  0.5945
 9092TIP3   OH251470  -3.318   1.077  -4.151 -0.3593  0.1431 -0.0678
 9092TIP3    H151471  -3.321   0.984  -4.174  0.1515  0.2797 -0.7298
 9092TIP3    H251472  -3.226   1.100  -4.155 -0.4708  0.6550  0.2021
 9093TIP3   OH251473  -0.233   3.187  -3.679  0.1721 -0.6674 -0.3811
 9093TIP3    H151474  -0.147   3.204  -3.717  0.0095 -0.0483 -0.4792
 9093TIP3    H251475  -0.290   3.255  -3.716 -0.6253 -1.7469 -1.2092
 9094TIP3   OH251476  -0.785  -1.727  -2.855 -0.0764  0.6732 -0.5794
 9094TIP3    H151477  -0.774  -1.822  -2.854 -1.3080  0.4823  1.9076
 9094TIP3    H251478  -0.847  -1.711  -2.927  0.1221 -0.3859 -1.0065
 9095TIP3   OH251479  -2.209   0.053  -3.743  0.0794 -0.5870 -0.1239
 9095TIP3    H151480  -2.226   0.077  -3.834  0.9529 -1.0108 -0.4026
 9095TIP3    H251481  -2.282   0.093  -3.694 -0.8192 -1.0061 -1.0886
 9096TIP3   OH251482  -0.350  -1.024  -4.332  0.1028  0.2071 -0.4613
 9096TIP3    H151483  -0.332  -0.983  -4.247  0.4188 -0.3542 -0.2511
 9096TIP3    H251484  -0.359  -0.950  -4.393  1.7411  0.5743 -0.3032
 9097TIP3   OH251485   1.582   3.273  -2.803  0.0767  0.0378  0.1956
 9097TIP3    H151486   1.525   3.285  -2.879  1.4433  1.2512 -0.6883
 9097TIP3    H251487   1.647   3.342  -2.810  1.0020 -0.6081  1.7895
 9098TIP3   OH251488  -1.530  -1.897  -4.902 -0.1802 -0.6123  0.3183
 9098TIP3    H151489  -1.470  -1.878  -4.973 -0.4787  1.8288  0.6200
 9098TIP3    H251490  -1.617  -1.886  -4.940 -0.3472  0.1985  0.8942
 9099TIP3   OH251491  -2.026   1.422  -5.129 -0.2186 -0.6087  0.2452
 9099TIP3    H151492  -2.057   1.512  -5.141 -0.8098 -0.8859 -0.3903
 9099TIP3    H251493  -1.969   1.426  -5.052  0.3747  0.4525 -0.2314
 9100TIP3   OH251494   1.912   2.662  -5.783  0.1498  0.0659  0.0665
 9100TIP3    H151495   1.911   2.604  -5.860  0.0401  0.7347 -0.4418
 9100TIP3    H251496   1.980   2.625  -5.726  0.6310 -0.1079 -0.6048
 9101TIP3   OH251497   2.506  -2.012  -4.685 -0.0782  0.0598 -0.5966
 9101TIP3    H151498   2.436  -2.053  -4.736  0.1826 -3.1626  1.3645
 9101TIP3    H251499   2.564  -2.085  -4.661  0.7096  1.6350  2.7952
 9102TIP3   OH251500   0.914   2.908  -4.922 -0.5248  0.2422  0.1940
 9102TIP3    H151501   0.837   2.927  -4.869  1.4094 -0.4039  3.4805
 9102TIP3    H251502   0.915   2.977  -4.989 -3.9034  0.2189 -0.0583
 9103TIP3   OH251503  -0.487   0.525  -5.281  0.4318  0.2053 -0.4415
 9103TIP3    H151504  -0.395   0.521  -5.257  0.5051  0.7815 -0.6334
 9103TIP3    H251505  -0.531   0.471  -5.215  0.9407 -0.3413 -0.5453
 9104TIP3   OH251506  -1.951   1.052  -4.037 -0.1426 -0.1934  0.1236
 9104TIP3    H151507  -1.937   1.147  -4.032  1.6624 -0.4319  0.2820
 9104TIP3    H251508  -1.894   1.023  -4.108 -1.3880 -1.0665 -0.5483
 9105TIP3   OH251509   0.967   2.629  -3.707 -0.0817 -0.0412  0.5771
 9105TIP3    H151510   1.006   2.634  -3.620  0.0492 -0.7891  0.5631
 9105TIP3    H251511   1.041   2.627  -3.767 -0.1438  2.8095  0.2731
 9106TIP3   OH251512   2.655  -1.383  -5.722  0.3967  0.4861  0.3314
 9106TIP3    H151513   2.716  -1.318  -5.686  1.8733  0.0131 -1.1847
 9106TIP3    H251514   2.609  -1.337  -5.792 -0.3943  0.5847  0.8982
 9107TIP3   OH251515  -1.631  -0.508  -5.461  0.5969  0.0572  0.4693
 9107TIP3    H151516  -1.545  -0.543  -5.439 -0.2335 -1.3356  1.6456
 9107TIP3    H251517  -1.654  -0.452  -5.387  0.2829  0.0815  0.3562
 9108TIP3   OH251518   2.067   0.780  -3.920 -0.0316  0.0784 -0.4217
 9108TIP3    H151519   2.078   0.821  -4.006 -1.7591 -0.8032 -1.1142
 9108TIP3    H251520   1.976   0.800  -3.896  0.5929  0.8520  1.5321
 9109TIP3   OH251521  -2.124   1.848  -2.504  0.1078  0.7517  0.1707
 9109TIP3    H151522  -2.126   1.766  -2.553 -2.9850  0.2452  0.9314
 9109TIP3    H251523  -2.056   1.835  -2.438  0.9371 -0.4342 -0.8811
 9110TIP3   OH251524   0.117   1.955  -4.670  0.0341 -0.3113  0.0940
 9110TIP3    H151525   0.069   1.978  -4.590  0.2995  1.1207 -0.1160
 9110TIP3    H251526   0.059   1.984  -4.740 -0.4727 -2.1252 -0.2819
 9111TIP3   OH251527  -2.320  -0.848  -3.799  0.0104  1.2071  0.6968
 9111TIP3    H151528  -2.249  -0.797  -3.761  0.0781  1.3778  0.3464
 9111TIP3    H251529  -2.322  -0.821  -3.891  0.1408  0.4774  0.4745
 9112TIP3   OH251530   2.956   0.612  -5.805  0.4001  0.8095  0.1916
 9112TIP3    H151531   2.946   0.549  -5.876 -1.6909  1.6877 -0.3761
 9112TIP3    H251532   2.898   0.580  -5.736  2.1088  0.1804  1.4305
 9113TIP3   OH251533  -2.391  -1.076  -5.681 -0.2439  0.7656 -0.1951
 9113TIP3    H151534  -2.389  -1.099  -5.773  1.5764  0.4464 -0.1223
 9113TIP3    H251535  -2.384  -0.980  -5.680  1.9824  0.6547 -0.4107
 9114TIP3   OH251536  -1.821   2.657  -2.788 -0.4776 -0.2475 -0.0782
 9114TIP3    H151537  -1.815   2.637  -2.694 -1.5951 -1.0526 -0.1559
 9114TIP3    H251538  -1.752   2.721  -2.803  1.6114 -2.1484  0.7439
 9115TIP3   OH251539   1.451   3.234  -4.932  0.2883  0.2384  0.2581
 9115TIP3    H151540   1.492   3.289  -4.865  0.8530  1.0863 -0.7589
 9115TIP3    H251541   1.374   3.283  -4.960 -0.7313 -0.7541  1.2426
 9116TIP3   OH251542  -1.420   1.133  -3.230  0.2707 -0.3652  0.2909
 9116TIP3    H151543  -1.502   1.155  -3.274  0.8952 -0.6185 -1.0493
 9116TIP3    H251544  -1.410   1.039  -3.243  2.3695  0.1247 -2.5175
 9117TIP3   OH251545   2.274   1.659  -3.142  0.0615 -0.0799 -0.0065
 9117TIP3    H151546   2.286   1.739  -3.092 -1.8609 -0.0120  0.4337
 9117TIP3    H251547   2.272   1.589  -3.076 -1.5120 -0.0945 -0.0256
 9118TIP3   OH251548  -0.076  -1.652  -3.468  0.8749 -0.9777 -0.3747
 9118TIP3    H151549  -0.050  -1.576  -3.520 -1.2637  0.7735  0.9590
 9118TIP3    H251550  -0.001  -1.711  -3.474  1.3378 -0.2593 -4.1256
 9119TIP3   OH251551   1.090   2.372  -3.645 -0.0169  0.8208  0.4267
 9119TIP3    H151552   1.039   2.373  -3.726  1.0260 -1.3745 -0.3436
 9119TIP3    H251553   1.178   2.346  -3.673  0.7436  1.4558  2.1101
 9120TIP3   OH251554   2.266  -0.459  -5.410  0.1862 -0.1929 -0.5780
 9120TIP3    H151555   2.341  -0.497  -5.365  1.2157  1.3999 -0.8536
 9120TIP3    H251556   2.286  -0.365  -5.414 -1.2034  0.0876 -1.8338
 9121TIP3   OH251557   0.824  -0.004  -5.646 -0.5126 -0.6495  0.2464
 9121TIP3    H151558   0.853  -0.068  -5.711 -0.2176 -1.1605  0.8661
 9121TIP3    H251559   0.729  -0.008  -5.650 -0.5035 -0.0874 -0.7159
 9122TIP3   OH251560   3.347  -0.706  -5.437  0.8511  0.3667 -0.4885
 9122TIP3    H151561   3.401  -0.657  -5.499 -0.5895 -1.5449 -3.5054
 9122TIP3    H251562   3.367  -0.798  -5.455 -1.2834 -0.3202  0.2710
 9123TIP3   OH251563  -0.342   2.728  -4.441 -0.1638 -0.0852  0.0724
 9123TIP3    H151564  -0.296   2.690  -4.366 -0.8844 -0.2458  0.4361
 9123TIP3    H251565  -0.285   2.708  -4.516 -0.5947 -2.0653  0.2135
 9124TIP3   OH251566   1.502  -2.401  -5.329 -0.6833 -0.8656  0.8739
 9124TIP3    H151567   1.426  -2.377  -5.277 -1.6779  0.3589 -1.0497
 9124TIP3    H251568   1.481  -2.488  -5.363 -1.4164 -0.4006  0.0872
 9125TIP3   OH251569  -0.090   3.371  -5.310 -0.0655  0.3234  0.2338
 9125TIP3    H151570  -0.186   3.372  -5.305 -0.0496 -0.4464  1.0859
 9125TIP3    H251571  -0.061   3.381  -5.219  0.6463  0.0692  0.0431
 9126TIP3   OH251572  -2.483   0.584  -2.777 -0.0255  0.5435 -0.3040
 9126TIP3    H151573  -2.434   0.502  -2.766  0.3464  0.6838 -0.8788
 9126TIP3    H251574  -2.419   0.653  -2.762 -0.2156  0.7294 -0.3448
 9127TIP3   OH251575   3.172   0.642  -4.029 -0.4952  0.1197  0.3505
 9127TIP3    H151576   3.238   0.587  -4.070 -0.6117 -0.8175  1.3786
 9127TIP3    H251577   3.160   0.605  -3.942 -0.0038  2.2439  1.3998
 9128TIP3   OH251578  -2.834  -2.523  -4.486 -0.3290 -0.2822 -0.3292
 9128TIP3    H151579  -2.860  -2.432  -4.471 -0.8598 -0.3418 -0.8453
 9128TIP3    H251580  -2.831  -2.562  -4.398 -0.7324  0.0664 -0.1568
 9129TIP3   OH251581  -0.529   2.482  -3.285  0.2913 -0.0737  0.5820
 9129TIP3    H151582  -0.562   2.556  -3.235 -3.6363  0.2144 -2.0297
 9129TIP3    H251583  -0.574   2.405  -3.249 -0.4817 -0.2293 -0.6336
 9130TIP3   OH251584   2.204   2.656  -4.190 -0.1547  0.0560 -0.1937
 9130TIP3    H151585   2.213   2.580  -4.133 -2.8974 -0.2572 -0.0497
 9130TIP3    H251586   2.226   2.730  -4.135 -0.9135 -0.3946  0.7403
 9131TIP3   OH251587  -3.131  -1.487  -4.698 -0.3055 -0.4447 -0.2820
 9131TIP3    H151588  -3.064  -1.425  -4.670 -1.7345  0.3314  1.6586
 9131TIP3    H251589  -3.090  -1.537  -4.769  2.2818  0.0012  0.8020
 9132TIP3   OH251590  -1.641   0.055  -4.726 -0.7511 -0.2360 -0.3296
 9132TIP3    H151591  -1.677  -0.011  -4.666 -2.0968 -0.8584 -1.7227
 9132TIP3    H251592  -1.563   0.014  -4.763 -0.6600 -0.3798  0.0175
 9133TIP3   OH251593   0.014   0.019  -4.257 -0.0046  0.3638  0.3045
 9133TIP3    H151594   0.061  -0.044  -4.312 -0.0028 -0.3820  1.1390
 9133TIP3    H251595   0.018  -0.018  -4.169 -1.4614  0.6916  0.5344
 9134TIP3   OH251596  -3.030   1.543  -4.049 -0.2376  0.3205 -0.2649
 9134TIP3    H151597  -3.024   1.607  -3.978 -0.8130  0.1096 -0.0279
 9134TIP3    H251598  -3.009   1.459  -4.008 -0.8369  0.1585 -0.2823
 9135TIP3   OH251599   0.764   2.674  -3.059 -0.5347  0.4572 -0.1086
 9135TIP3    H151600   0.833   2.715  -3.008 -1.1279  2.3426 -0.7377
 9135TIP3    H251601   0.809   2.607  -3.110  0.2326 -0.7076  1.9984
 9136TIP3   OH251602  -0.751   2.492  -4.710  0.0646  0.3057  0.4217
 9136TIP3    H151603  -0.795   2.414  -4.676 -1.2723  0.5283 -0.7404
 9136TIP3    H251604  -0.688   2.515  -4.641 -2.6001  0.8397  2.8687
 9137TIP3   OH251605   3.326   2.260  -3.169 -0.1954 -0.2156 -0.2882
 9137TIP3    H151606   3.304   2.268  -3.076  1.4945  0.7713  0.0794
 9137TIP3    H251607   3.246   2.287  -3.215 -0.3218  1.6735  0.9218
 9138TIP3   OH251608  -0.483   2.017  -4.960 -0.4691  0.2797  0.0960
 9138TIP3    H151609  -0.535   2.096  -4.979 -1.5841 -0.2451  0.8641
 9138TIP3    H251610  -0.508   1.993  -4.871 -0.5087 -1.2140 -0.3008
 9139TIP3   OH251611   1.455  -0.178  -4.206  0.3161  0.2763 -0.8334
 9139TIP3    H151612   1.406  -0.173  -4.124 -0.5251  0.3667 -1.3267
 9139TIP3    H251613   1.529  -0.236  -4.187  0.3552  0.6188  0.0921
 9140TIP3   OH251614   1.142  -0.123  -4.290  0.0209  0.0565  0.1993
 9140TIP3    H151615   1.145  -0.198  -4.350  0.6932 -1.0452  1.5490
 9140TIP3    H251616   1.227  -0.124  -4.247  0.1769  1.8377  0.0107
 9141TIP3   OH251617  -2.508  -1.159  -2.028  0.1599 -0.2318 -0.0892
 9141TIP3    H151618  -2.491  -1.076  -2.072 -1.4706 -1.0109 -2.3960
 9141TIP3    H251619  -2.587  -1.143  -1.976  0.1500 -0.1968 -0.1152
 9142TIP3   OH251620   2.828   0.984  -3.398 -0.3527  0.2202 -1.3124
 9142TIP3    H151621   2.910   1.023  -3.366 -0.9842  1.0259 -0.6469
 9142TIP3    H251622   2.829   0.896  -3.360 -0.6890  0.8795  0.3186
 9143TIP3   OH251623   1.690  -0.861  -3.857  0.4002 -0.2046 -0.5934
 9143TIP3    H151624   1.764  -0.909  -3.820  0.7138  0.6958 -0.0213
 9143TIP3    H251625   1.717  -0.769  -3.854  0.4551 -0.0535 -3.0485
 9144TIP3   OH251626   2.139   2.467  -3.578  0.5746  0.7783 -0.0687
 9144TIP3    H151627   2.136   2.514  -3.661  2.6544  1.1942  0.0374
 9144TIP3    H251628   2.048   2.450  -3.557  0.0107  0.1409 -2.7077
 9145TIP3   OH251629   0.855  -0.543  -5.160 -0.1152 -0.1662  0.2313
 9145TIP3    H151630   0.769  -0.530  -5.120 -0.0778 -0.5591  0.4424
 9145TIP3    H251631   0.901  -0.461  -5.144 -0.5520  0.1600 -0.1444
 9146TIP3   OH251632   1.817  -0.426  -4.415 -0.3046 -0.5807  0.0181
 9146TIP3    H151633   1.785  -0.510  -4.448 -0.3934 -0.8779  0.8357
 9146TIP3    H251634   1.912  -0.434  -4.415 -0.1227  0.5544 -3.0751
 9147TIP3   OH251635   0.393  -0.919  -5.054 -0.3735  0.3839 -0.5067
 9147TIP3    H151636   0.425  -0.879  -5.135 -2.5552 -0.8492 -2.0894
 9147TIP3    H251637   0.316  -0.970  -5.081  0.5025 -2.4776  1.8338
 9148TIP3   OH251638  -2.565   1.929  -5.580  0.4126  0.6407 -0.6117
 9148TIP3    H151639  -2.547   2.018  -5.549 -0.4118  1.1828 -1.6278
 9148TIP3    H251640  -2.659   1.919  -5.572  0.6110 -0.5549  0.4971
 9149TIP3   OH251641   2.799  -2.171  -3.003 -0.1187  0.0547 -0.1272
 9149TIP3    H151642   2.713  -2.178  -3.044  0.3458 -1.5953 -0.9263
 9149TIP3    H251643   2.789  -2.216  -2.919 -0.3810  1.0920  0.4080
 9150TIP3   OH251644   2.904   2.878  -4.541  0.6973  0.3864  0.0541
 9150TIP3    H151645   2.967   2.950  -4.529 -0.6197  1.9858 -2.0090
 9150TIP3    H251646   2.906   2.859  -4.634 -1.4457  0.1009  0.0078
 9151TIP3   OH251647   3.031  -1.945  -4.490 -0.0137  0.3035  0.0213
 9151TIP3    H151648   3.062  -1.880  -4.426  0.0522 -0.3988  0.7123
 9151TIP3    H251649   3.098  -2.014  -4.488 -0.5589 -0.2342 -0.0063
 9152TIP3   OH251650  -0.990   1.575  -4.922  0.5730  0.1638  0.1368
 9152TIP3    H151651  -0.957   1.592  -4.834  2.0776 -0.5039 -0.2680
 9152TIP3    H251652  -0.996   1.480  -4.928 -1.2194  0.2398  0.0748
 9153TIP3   OH251653  -2.570  -0.235  -2.664 -0.4778 -0.5377  0.2133
 9153TIP3    H151654  -2.489  -0.203  -2.704 -0.1049 -0.2131  1.2038
 9153TIP3    H251655  -2.596  -0.308  -2.719 -0.8663  0.8838 -1.5844
 9154TIP3   OH251656  -2.835  -3.039  -3.174  0.7120  0.5532  0.0189
 9154TIP3    H151657  -2.890  -3.077  -3.243  0.9288  0.0112  0.1442
 9154TIP3    H251658  -2.746  -3.066  -3.196  0.9693  1.5892 -0.2900
 9155TIP3   OH251659  -1.590  -2.526  -2.444 -0.2735 -0.1610 -0.1318
 9155TIP3    H151660  -1.529  -2.595  -2.470 -0.9522 -1.2253  1.0166
 9155TIP3    H251661  -1.665  -2.538  -2.502 -0.7674 -0.9894  0.6521
 9156TIP3   OH251662  -0.806  -2.556  -4.924  0.0105  0.2156  0.4304
 9156TIP3    H151663  -0.890  -2.519  -4.952 -0.0613 -0.2104  0.0560
 9156TIP3    H251664  -0.816  -2.650  -4.939  0.7409  0.2135 -0.1239
 9157TIP3   OH251665   1.421  -2.771  -4.174  0.4422  0.0413 -0.0234
 9157TIP3    H151666   1.386  -2.756  -4.262  0.1176 -0.2689  0.0531
 9157TIP3    H251667   1.510  -2.736  -4.178  0.7528 -0.7800 -0.7450
 9158TIP3   OH251668  -0.257  -2.939  -3.265  0.1162  0.2338  0.7276
 9158TIP3    H151669  -0.224  -2.931  -3.354 -0.3461 -2.0783  0.2720
 9158TIP3    H251670  -0.283  -2.850  -3.240  1.0495  1.0645 -1.1036
 9159TIP3   OH251671   0.490   1.189  -5.220 -0.0992 -0.1747 -0.2804
 9159TIP3    H151672   0.566   1.175  -5.163  0.5772 -0.8911 -1.3186
 9159TIP3    H251673   0.466   1.102  -5.250  0.6076  0.2957 -2.3873
 9160TIP3   OH251674   3.144  -2.711  -5.639 -0.3971  0.3662  0.8873
 9160TIP3    H151675   3.127  -2.650  -5.711 -1.4521 -0.8340  0.0673
 9160TIP3    H251676   3.064  -2.763  -5.633  0.3234 -0.6746  1.8164
 9161TIP3   OH251677   2.142   3.268  -2.061  0.2663 -0.3693 -0.0190
 9161TIP3    H151678   2.110   3.186  -2.023 -0.6686 -0.4248 -0.8894
 9161TIP3    H251679   2.069   3.300  -2.113  0.0994  1.7506  1.4155
 9162TIP3   OH251680   0.645   0.758  -3.890 -0.3419  0.2164 -0.0040
 9162TIP3    H151681   0.738   0.740  -3.872  0.0604  2.1857  0.1227
 9162TIP3    H251682   0.640   0.768  -3.985 -0.4043  0.2744  0.0050
 9163TIP3   OH251683  -1.600  -0.401  -4.291 -0.0735  0.3790 -0.8271
 9163TIP3    H151684  -1.674  -0.450  -4.254 -1.1603  1.9260 -0.8175
 9163TIP3    H251685  -1.602  -0.317  -4.246  0.2550  1.3115 -2.4476
 9164TIP3   OH251686  -3.307  -2.706  -5.530  0.1686  0.2103 -0.2976
 9164TIP3    H151687  -3.394  -2.710  -5.568 -0.2393 -0.4628  0.6673
 9164TIP3    H251688  -3.250  -2.677  -5.602 -0.4895 -1.4228 -1.5191
 9165TIP3   OH251689  -2.246   0.932  -3.044  0.4114 -0.2731 -0.0943
 9165TIP3    H151690  -2.238   0.984  -2.965 -0.9106 -0.0870 -0.0612
 9165TIP3    H251691  -2.204   0.849  -3.023 -0.7340 -0.5613  1.1217
 9166TIP3   OH251692  -0.819  -1.246  -3.580  0.2620 -0.1406  0.1173
 9166TIP3    H151693  -0.730  -1.282  -3.583  0.2856 -0.0529 -0.2598
 9166TIP3    H251694  -0.826  -1.193  -3.659 -0.3893 -0.7616 -0.2552
 9167TIP3   OH251695   2.043   2.538  -4.698 -0.5559  0.2197 -0.6010
 9167TIP3    H151696   1.958   2.498  -4.677  0.0140 -0.1164  1.2772
 9167TIP3    H251697   2.059   2.513  -4.789 -1.7421 -1.0484 -0.5018
 9168TIP3   OH251698  -2.101   0.465  -4.102 -0.5180 -0.2221 -0.6172
 9168TIP3    H151699  -2.058   0.421  -4.174 -1.7273 -1.3463 -0.6957
 9168TIP3    H251700  -2.171   0.516  -4.143 -0.8155 -0.3663 -0.2989
 9169TIP3   OH251701   3.038   1.934  -3.686 -0.3619 -0.6671  0.3135
 9169TIP3    H151702   3.085   1.866  -3.735  0.1544  0.4767 -0.8531
 9169TIP3    H251703   2.977   1.886  -3.630  1.2545 -2.1524  0.8889
 9170TIP3   OH251704  -2.680  -1.424  -4.930 -0.0886 -0.1635 -0.9006
 9170TIP3    H151705  -2.640  -1.337  -4.934  0.6771 -0.3387  1.5781
 9170TIP3    H251706  -2.718  -1.436  -5.017 -1.4501  3.2069 -0.9353
 9171TIP3   OH251707   0.582  -3.033  -2.437 -0.1380 -0.1881  0.3048
 9171TIP3    H151708   0.563  -2.940  -2.422  1.1463 -0.0141  1.0458
 9171TIP3    H251709   0.560  -3.076  -2.354  1.3331 -0.1760  0.7311
 9172TIP3   OH251710   0.919   2.332  -4.976 -0.1429  0.1002  0.4248
 9172TIP3    H151711   0.841   2.377  -5.009 -0.1679  0.2776  0.7267
 9172TIP3    H251712   0.924   2.252  -5.029 -0.5966  0.0281  0.4801
 9173TIP3   OH251713   1.868  -1.025  -5.757  0.1156  0.2419 -0.3532
 9173TIP3    H151714   1.791  -0.970  -5.743 -0.6772 -0.6511 -1.1729
 9173TIP3    H251715   1.923  -1.008  -5.679 -0.6371  1.2882 -0.0245
 9174TIP3   OH251716   0.458   2.788  -3.873  0.1341 -0.2587  0.6417
 9174TIP3    H151717   0.402   2.847  -3.822  1.8006  0.1315  2.1539
 9174TIP3    H251718   0.443   2.812  -3.964 -1.2408  0.6212  1.0719
 9175TIP3   OH251719  -3.124  -0.581  -2.512 -0.2714 -0.0501  0.3822
 9175TIP3    H151720  -3.098  -0.655  -2.567 -0.5037 -0.6086  1.0055
 9175TIP3    H251721  -3.049  -0.522  -2.514 -0.7697  0.5717 -1.5766
 9176TIP3   OH251722  -2.385   1.463  -3.518 -0.5952  0.5329 -0.8210
 9176TIP3    H151723  -2.359   1.372  -3.502  0.7829  1.2215  1.3697
 9176TIP3    H251724  -2.319   1.496  -3.579 -0.7696  0.2218 -1.1799
 9177TIP3   OH251725   2.433   3.127  -2.307  0.5111 -0.2527 -0.3215
 9177TIP3    H151726   2.447   3.055  -2.369  0.0348 -1.7879  1.2514
 9177TIP3    H251727   2.418   3.083  -2.223  1.8667  1.7458  1.0574
 9178TIP3   OH251728   0.961   1.304  -5.520  0.5434 -0.1024 -0.2107
 9178TIP3    H151729   1.044   1.264  -5.492  0.7825  1.2509  1.2084
 9178TIP3    H251730   0.894   1.257  -5.470  0.1613 -2.5250 -2.7886
 9179TIP3   OH251731   3.282  -1.492  -5.765  0.3397  0.3570  0.5214
 9179TIP3    H151732   3.359  -1.482  -5.709  0.8541  1.7458 -0.4011
 9179TIP3    H251733   3.312  -1.468  -5.852 -1.1060  0.8213  0.1235
 9180TIP3   OH251734  -3.031   0.413  -5.087  0.3872  0.1692  0.6997
 9180TIP3    H151735  -3.062   0.486  -5.034  1.7663  0.7761  0.7083
 9180TIP3    H251736  -3.021   0.340  -5.025 -0.8480 -0.0209  0.7143
 9181TIP3   OH251737  -3.125   3.262  -3.143  0.2278 -0.4311  0.4626
 9181TIP3    H151738  -3.087   3.262  -3.231 -0.9405  0.8789 -0.0871
 9181TIP3    H251739  -3.203   3.206  -3.151 -0.7913  0.9790  0.1999
 9182TIP3   OH251740   3.172   2.741  -3.900 -0.0836  0.2002 -0.0435
 9182TIP3    H151741   3.214   2.806  -3.956 -0.8442  1.6262  0.9520
 9182TIP3    H251742   3.215   2.659  -3.921  1.0376  1.0518 -1.2362
 9183TIP3   OH251743   2.056   0.508  -5.229 -0.2842 -0.1635 -0.4441
 9183TIP3    H151744   2.139   0.483  -5.269 -0.7679 -1.7393 -0.5321
 9183TIP3    H251745   2.075   0.514  -5.136  0.2572  0.9842 -0.6139
 9184TIP3   OH251746  -3.067  -1.688  -4.182  0.3555 -0.3822 -0.4755
 9184TIP3    H151747  -2.992  -1.703  -4.239 -0.5259  4.3415 -3.3694
 9184TIP3    H251748  -3.051  -1.602  -4.143 -2.1982 -0.5671  1.2213
 9185TIP3   OH251749  -0.205   0.941  -4.953  0.8860  0.3332  0.2237
 9185TIP3    H151750  -0.144   1.007  -4.986  1.5321 -1.0454 -1.5140
 9185TIP3    H251751  -0.267   0.927  -5.025  0.9577 -1.1489  0.4039
 9186TIP3   OH251752   1.226  -0.442  -4.206 -0.1371 -0.4126  0.1290
 9186TIP3    H151753   1.256  -0.373  -4.147  0.5933 -0.8143  0.2410
 9186TIP3    H251754   1.252  -0.413  -4.294 -1.0976  0.1169 -0.0021
 9187TIP3   OH251755   3.024   1.144  -3.764  0.2606  0.5535 -0.6194
 9187TIP3    H151756   3.005   1.105  -3.679 -0.4573  1.1968 -0.4625
 9187TIP3    H251757   3.001   1.237  -3.752  0.7712  0.7719 -1.3217
 9188TIP3   OH251758   0.073  -0.616  -4.199 -0.1976 -0.0575 -0.5078
 9188TIP3    H151759   0.136  -0.544  -4.193 -0.0776 -0.1937 -0.0484
 9188TIP3    H251760   0.001  -0.582  -4.251 -0.6743  0.7830  0.6595
 9189TIP3   OH251761  -2.934  -2.234  -3.928  0.7287 -0.0687 -0.0783
 9189TIP3    H151762  -2.995  -2.259  -3.858  1.0958 -0.5036  0.0928
 9189TIP3    H251763  -2.940  -2.139  -3.933 -1.6989 -0.2036 -1.6171
 9190TIP3   OH251764  -3.264   0.152  -4.706  0.1480  0.1674  0.5358
 9190TIP3    H151765  -3.303   0.065  -4.712  0.2555 -0.0004  1.9513
 9190TIP3    H251766  -3.170   0.136  -4.715  0.1530  0.1604  0.6002
 9191TIP3   OH251767   0.944  -3.198  -4.622  0.1182 -0.1024 -0.1658
 9191TIP3    H151768   0.977  -3.247  -4.547  2.9634  1.4937 -0.2695
 9191TIP3    H251769   0.994  -3.117  -4.623 -0.2084  0.1973 -3.4560
 9192TIP3   OH251770   1.796   0.335  -2.407  0.4534  0.1093  0.5797
 9192TIP3    H151771   1.741   0.411  -2.428  1.2532  0.9887  1.5350
 9192TIP3    H251772   1.735   0.262  -2.399 -0.6389  1.1152  1.9143
 9193TIP3   OH251773   3.187   2.324  -5.484 -0.2962  0.5535  0.0971
 9193TIP3    H151774   3.094   2.340  -5.501 -0.4640  1.7526  1.8486
 9193TIP3    H251775   3.214   2.398  -5.429  1.3929 -0.3968  0.6105
 9194TIP3   OH251776   1.345   2.876  -3.761 -0.3095 -0.1386 -0.4006
 9194TIP3    H151777   1.350   2.826  -3.680 -0.9261  0.9032  0.2976
 9194TIP3    H251778   1.275   2.834  -3.811 -0.2309 -0.5040 -0.2093
 9195TIP3   OH251779   0.594  -2.641  -4.407 -0.4809  0.4217  0.7244
 9195TIP3    H151780   0.649  -2.691  -4.348  0.7216 -0.3551 -0.9714
 9195TIP3    H251781   0.647  -2.564  -4.430  0.1678 -0.5714 -1.2928
 9196TIP3   OH251782   3.189  -0.024  -4.896 -0.0140 -0.0438 -0.2727
 9196TIP3    H151783   3.171  -0.095  -4.958 -0.5591 -0.9996  0.9358
 9196TIP3    H251784   3.238   0.041  -4.947  1.6677 -1.8633 -1.0958
 9197TIP3   OH251785   1.617   0.670  -3.437 -0.3752 -0.1325 -0.0797
 9197TIP3    H151786   1.575   0.587  -3.416 -1.0426  0.4589  1.0162
 9197TIP3    H251787   1.598   0.683  -3.530  0.6615 -1.7000 -0.5487
 9198TIP3   OH251788   2.951   1.942  -4.627 -0.5809  0.7954 -0.1025
 9198TIP3    H151789   2.911   1.888  -4.696  0.8186 -0.6282  0.1527
 9198TIP3    H251790   2.886   1.943  -4.557  0.2984 -2.8709  0.9947
 9199TIP3   OH251791   1.343   2.637  -2.893 -0.4343 -0.2597 -0.1807
 9199TIP3    H151792   1.413   2.668  -2.949  1.2020 -2.4067  0.5223
 9199TIP3    H251793   1.380   2.639  -2.805 -1.0112 -1.9727  0.1438
 9200TIP3   OH251794   2.661   2.923  -4.041  0.5053 -0.0215 -0.3032
 9200TIP3    H151795   2.646   2.863  -4.114  1.4251 -1.4112  0.6064
 9200TIP3    H251796   2.668   3.009  -4.082 -1.7387 -0.3492 -1.5700
 9201TIP3   OH251797   2.829  -1.882  -3.058 -0.1942  0.1605  0.4110
 9201TIP3    H151798   2.793  -1.970  -3.046 -2.0566  0.6048 -1.4210
 9201TIP3    H251799   2.758  -1.824  -3.033  0.9740  1.1873  1.4676
 9202TIP3   OH251800  -2.943  -2.415  -2.902  0.1405 -0.1990 -0.1688
 9202TIP3    H151801  -2.985  -2.391  -2.819 -0.3982 -1.5159 -0.0334
 9202TIP3    H251802  -2.907  -2.333  -2.935 -1.8568  0.8494  0.1082
 9203TIP3   OH251803  -1.321  -2.971  -2.535 -0.5035 -0.3466 -0.0140
 9203TIP3    H151804  -1.344  -3.052  -2.489  0.2329 -1.7898 -2.0340
 9203TIP3    H251805  -1.397  -2.915  -2.524 -0.7897 -1.0487  1.9699
 9204TIP3   OH251806   0.276  -0.155  -3.897  0.6786  0.3576  0.0136
 9204TIP3    H151807   0.318  -0.160  -3.810 -0.9788  0.7358  0.8775
 9204TIP3    H251808   0.316  -0.078  -3.938 -0.5980  2.0217  1.6836
 9205TIP3   OH251809   1.204   1.665  -3.964  0.0036 -0.3487 -0.3921
 9205TIP3    H151810   1.238   1.754  -3.969 -1.1451  0.1366  0.0316
 9205TIP3    H251811   1.180   1.653  -3.872 -2.0451 -0.2168 -0.8579
 9206TIP3   OH251812   3.212   0.758  -5.342  0.4018  0.4951 -0.8868
 9206TIP3    H151813   3.190   0.732  -5.253  2.1753  0.8490 -0.3046
 9206TIP3    H251814   3.137   0.729  -5.395  0.5577 -2.3143  0.2726
 9207TIP3   OH251815   0.563  -1.209  -5.307 -0.4603 -0.6628 -0.1342
 9207TIP3    H151816   0.602  -1.175  -5.227 -4.2192  2.6125  0.6448
 9207TIP3    H251817   0.584  -1.144  -5.374 -0.9690 -1.0585 -0.6946
 9208TIP3   OH251818  -1.345   1.648  -2.593 -0.3046  0.2783 -0.8211
 9208TIP3    H151819  -1.306   1.598  -2.522 -0.5794 -1.9619 -2.1605
 9208TIP3    H251820  -1.431   1.674  -2.560  0.4785  1.2867  0.4742
 9209TIP3   OH251821  -3.295   0.443  -3.654 -0.1988 -0.6757  0.0987
 9209TIP3    H151822  -3.339   0.373  -3.701 -2.8266  0.9667 -0.1101
 9209TIP3    H251823  -3.279   0.510  -3.720  0.1750 -0.1698  0.6862
 9210TIP3   OH251824  -1.864   2.285  -2.506 -0.5728  0.0752  0.2421
 9210TIP3    H151825  -1.958   2.264  -2.508 -0.2096 -1.7873  0.7743
 9210TIP3    H251826  -1.821   2.201  -2.488  1.3915  0.3689 -2.4544
 9211TIP3   OH251827   1.547   1.514  -3.041 -0.9056  0.6384 -0.1162
 9211TIP3    H151828   1.470   1.545  -2.993 -0.3815  3.0971 -0.7234
 9211TIP3    H251829   1.611   1.494  -2.974 -2.1443 -1.8548  0.4218
 9212TIP3   OH251830  -2.703  -0.734  -5.658 -0.2166  0.1491  0.2316
 9212TIP3    H151831  -2.667  -0.700  -5.576  0.9586  1.8050 -0.9058
 9212TIP3    H251832  -2.653  -0.690  -5.726 -1.8756 -0.3791 -1.4077
 9213TIP3   OH251833  -2.477  -2.159  -3.372 -0.6548 -0.1617  0.0008
 9213TIP3    H151834  -2.387  -2.185  -3.354 -0.7602 -0.9947 -0.6333
 9213TIP3    H251835  -2.470  -2.068  -3.402 -0.0866 -0.0485  0.4706
 9214TIP3   OH251836   1.438   0.349  -4.086 -0.0438 -0.2544  0.5366
 9214TIP3    H151837   1.508   0.336  -4.150 -1.2008 -2.2188 -0.4155
 9214TIP3    H251838   1.433   0.266  -4.038 -0.1094  0.7147  2.2979
 9215TIP3   OH251839  -0.209  -1.907  -3.537  0.2493 -0.5971  0.0711
 9215TIP3    H151840  -0.250  -1.839  -3.591  1.1118 -0.2512 -0.1632
 9215TIP3    H251841  -0.117  -1.882  -3.534  0.2717 -0.7748  1.4613
 9216TIP3   OH251842   2.021   1.548  -3.255 -0.3642 -0.5787 -0.1387
 9216TIP3    H151843   2.108   1.567  -3.222 -0.0848 -0.4168 -0.9358
 9216TIP3    H251844   2.023   1.455  -3.277 -0.4387 -0.6080 -0.0220
 9217TIP3   OH251845   3.188   2.631  -4.229 -0.5974  0.0249  0.0032
 9217TIP3    H151846   3.280   2.604  -4.221 -0.4636  0.8765  1.4966
 9217TIP3    H251847   3.192   2.717  -4.270 -0.6982  0.3657  0.7155
 9218TIP3   OH251848  -0.304  -1.110  -3.371 -0.4668  0.7714 -0.1147
 9218TIP3    H151849  -0.301  -1.180  -3.436  0.2286  1.3966 -0.7724
 9218TIP3    H251850  -0.299  -1.156  -3.287 -1.7845 -0.0679 -0.4625
 9219TIP3   OH251851  -2.093   0.442  -4.901  0.2315 -0.0135  0.4279
 9219TIP3    H151852  -2.093   0.421  -4.807 -1.9617  0.4750  0.5878
 9219TIP3    H251853  -2.010   0.489  -4.915  0.9164 -0.6939  1.9599
 9220TIP3   OH251854   1.295  -2.348  -3.382 -0.2437  0.0270  0.3233
 9220TIP3    H151855   1.254  -2.313  -3.461 -0.1173 -1.9788 -0.6923
 9220TIP3    H251856   1.285  -2.443  -3.390  1.3861 -0.3192  1.8408
 9221TIP3   OH251857  -1.620   1.774  -3.861 -0.1926 -0.2472 -0.6362
 9221TIP3    H151858  -1.565   1.719  -3.806  2.0548  1.2706 -1.2379
 9221TIP3    H251859  -1.635   1.722  -3.940  1.0608 -0.3799 -0.7939
 9222TIP3   OH251860  -1.547   2.311  -3.170  0.4925  0.4722 -0.5679
 9222TIP3    H151861  -1.594   2.281  -3.248 -0.3303  0.6095 -0.1340
 9222TIP3    H251862  -1.570   2.247  -3.103 -0.9186  1.7708  0.2500
 9223TIP3   OH251863  -1.325   0.898  -4.733  0.1441 -0.0673  0.5418
 9223TIP3    H151864  -1.280   0.940  -4.660  2.5135 -2.0516  0.3693
 9223TIP3    H251865  -1.393   0.845  -4.692 -0.0748  0.6361  1.1004
 9224TIP3   OH251866   0.204   0.279  -5.056 -0.7594  0.0945  0.2570
 9224TIP3    H151867   0.256   0.313  -5.128 -3.5460  2.4138 -0.8839
 9224TIP3    H251868   0.212   0.345  -4.987 -0.6022 -0.5337  0.8510
 9225TIP3   OH251869   1.423   1.924  -5.813 -0.2940  0.6063 -0.3193
 9225TIP3    H151870   1.373   1.996  -5.850 -0.2898 -0.9273 -3.6480
 9225TIP3    H251871   1.357   1.864  -5.778 -0.3034  1.9394  2.2537
 9226TIP3   OH251872  -2.768   2.602  -2.977 -0.3218  0.0029 -0.2538
 9226TIP3    H151873  -2.728   2.520  -3.008 -1.6885 -0.7066 -0.2045
 9226TIP3    H251874  -2.702   2.668  -2.994 -0.0374 -0.7481 -2.4073
 9227TIP3   OH251875   0.103   3.055  -2.337  0.5220  0.8314 -0.1476
 9227TIP3    H151876   0.180   3.060  -2.393  0.1491  0.7168 -0.6858
 9227TIP3    H251877   0.137   3.049  -2.248  1.2531 -3.1366 -0.5522
 9228TIP3   OH251878   0.929   0.596  -4.119  0.4186  0.2283 -0.4910
 9228TIP3    H151879   0.946   0.626  -4.030 -0.9427 -0.2821 -0.0446
 9228TIP3    H251880   0.994   0.642  -4.172  0.8039  1.0654  0.6632
 9229TIP3   OH251881  -2.581   1.254  -5.489  0.4447 -0.1906  0.0926
 9229TIP3    H151882  -2.556   1.244  -5.581 -2.9907 -1.0995 -0.8935
 9229TIP3    H251883  -2.591   1.164  -5.457 -0.7742  0.0963  0.5683
 9230TIP3   OH251884  -2.558  -3.102  -3.187 -0.0040 -0.2304  0.3685
 9230TIP3    H151885  -2.544  -3.146  -3.270  0.3012  0.2449  0.1607
 9230TIP3    H251886  -2.489  -3.135  -3.130  0.8364  0.7015 -0.0847
 9231TIP3   OH251887  -2.255  -2.010  -3.210 -0.3869  0.5766  0.4104
 9231TIP3    H151888  -2.212  -1.935  -3.169  0.2528 -1.5420  4.0257
 9231TIP3    H251889  -2.344  -2.010  -3.174 -0.3592 -0.4167  0.4982
 9232TIP3   OH251890  -2.959  -0.131  -4.578  0.1366 -0.0617  0.4352
 9232TIP3    H151891  -3.005  -0.061  -4.532  0.2471  0.5045 -0.2891
 9232TIP3    H251892  -2.917  -0.183  -4.509 -0.6283  0.0898  1.0310
 9233TIP3   OH251893   1.260  -1.219  -5.039  0.0043  0.3987  0.0106
 9233TIP3    H151894   1.281  -1.136  -4.994  0.1333 -0.1941  1.0831
 9233TIP3    H251895   1.290  -1.287  -4.978 -0.8467 -0.4430 -0.4907
 9234TIP3   OH251896   2.377   2.452  -4.035 -0.2523  0.5587 -0.7554
 9234TIP3    H151897   2.468   2.433  -4.011 -0.4255  1.3968  0.6532
 9234TIP3    H251898   2.352   2.379  -4.092  1.0713 -0.0549 -0.5980
 9235TIP3   OH251899   3.204  -0.657  -3.831  0.4040  0.3547  0.1913
 9235TIP3    H151900   3.298  -0.640  -3.829  0.9887 -2.4610  0.6902
 9235TIP3    H251901   3.187  -0.687  -3.920 -0.0464  0.7774  0.1272
 9236TIP3   OH251902  -0.362   0.883  -4.463 -0.4505  0.3965 -0.0082
 9236TIP3    H151903  -0.375   0.836  -4.381  0.2896  0.1864  0.0049
 9236TIP3    H251904  -0.437   0.859  -4.517 -1.4396  1.2758  0.9235
 9237TIP3   OH251905  -3.013   2.331  -3.554  0.3769 -0.5741  0.1096
 9237TIP3    H151906  -2.985   2.290  -3.636  0.5959  0.5743 -0.4212
 9237TIP3    H251907  -2.935   2.374  -3.520 -0.3551  1.6491 -0.7660
 9238TIP3   OH251908  -2.872  -1.021  -3.049  0.3138  0.0158  0.1957
 9238TIP3    H151909  -2.811  -1.009  -2.976  1.3522 -3.3170  0.0181
 9238TIP3    H251910  -2.959  -1.017  -3.009  0.7580  0.7362  1.1366
 9239TIP3   OH251911  -2.799  -1.279  -3.697  0.2692  0.4723  0.4298
 9239TIP3    H151912  -2.816  -1.354  -3.754  0.3355 -0.1508  1.2045
 9239TIP3    H251913  -2.810  -1.314  -3.609  0.8316  1.2501  0.8185
 9240TIP3   OH251914  -1.527  -2.364  -3.363  0.5196 -0.3240 -0.7540
 9240TIP3    H151915  -1.554  -2.276  -3.338  1.6117 -0.7585  2.4524
 9240TIP3    H251916  -1.500  -2.356  -3.455  0.5826  2.6523 -0.5648
 9241TIP3   OH251917  -3.231   2.866  -3.684 -0.0715 -0.2404  0.1003
 9241TIP3    H151918  -3.228   2.825  -3.598  0.2582  1.7591  1.0978
 9241TIP3    H251919  -3.319   2.901  -3.692  0.4868  1.3573  0.5443
 9242TIP3   OH251920   2.333   0.213  -3.751  0.0474  0.5285 -0.5241
 9242TIP3    H151921   2.310   0.128  -3.789 -1.5942  0.6996  0.0124
 9242TIP3    H251922   2.428   0.209  -3.738  0.0898 -0.9471 -1.1526
 9243TIP3   OH251923   2.886   2.574  -4.154 -0.2000  0.3936  0.2994
 9243TIP3    H151924   2.840   2.604  -4.233  1.1053  0.6009 -0.4185
 9243TIP3    H251925   2.968   2.623  -4.154 -0.1406  0.3375  1.7702
 9244TIP3   OH251926  -0.241   2.751  -4.148 -0.4946 -0.6401  0.3155
 9244TIP3    H151927  -0.257   2.843  -4.167  2.7083  0.0538  0.5209
 9244TIP3    H251928  -0.247   2.744  -4.053 -0.1743 -0.5073  0.3469
 9245TIP3   OH251929   0.930   1.526  -3.577 -0.6846  0.4145 -0.0769
 9245TIP3    H151930   0.975   1.445  -3.554 -2.3499 -0.0701  1.7103
 9245TIP3    H251931   0.935   1.579  -3.497 -1.0749  1.3988 -0.6836
 9246TIP3   OH251932  -3.067   2.096  -5.505  0.0721 -0.0516  0.6154
 9246TIP3    H151933  -3.124   2.104  -5.430 -1.2648 -0.9260 -0.2757
 9246TIP3    H251934  -3.050   2.187  -5.532  0.5205  0.2635  1.8960
 9247TIP3   OH251935   2.199   0.046  -4.159 -0.1557 -0.2648  0.3764
 9247TIP3    H151936   2.235   0.133  -4.147  1.0757 -0.6461 -0.3937
 9247TIP3    H251937   2.106   0.060  -4.176  0.2018  0.9478 -0.6544
 9248TIP3   OH251938   1.518   0.172  -5.041  0.6864  0.3397  0.1640
 9248TIP3    H151939   1.559   0.256  -5.020  1.0205  0.2663 -0.2091
 9248TIP3    H251940   1.425   0.185  -5.019  0.6743  0.9161 -0.2180
 9249TIP3   OH251941  -1.427   1.973  -3.847  0.1795 -0.3851  0.7299
 9249TIP3    H151942  -1.376   1.922  -3.785  0.2153 -2.0994 -0.6441
 9249TIP3    H251943  -1.514   1.934  -3.844  0.3433 -0.9087 -0.7190
 9250TIP3   OH251944  -1.052   0.416  -2.979  0.1585  0.6118  0.0229
 9250TIP3    H151945  -1.077   0.324  -2.964  1.5877  0.2557  0.3225
 9250TIP3    H251946  -1.022   0.446  -2.893  0.3087  1.1721 -0.2264
 9251TIP3   OH251947   2.064   1.411  -5.366 -0.2131 -0.3874  0.5879
 9251TIP3    H151948   1.991   1.438  -5.420 -0.2062 -2.3149 -0.4849
 9251TIP3    H251949   2.126   1.484  -5.371 -1.4014  0.6365  0.3057
 9252TIP3   OH251950   2.303   2.279  -3.464  0.0254 -0.1798  0.2967
 9252TIP3    H151951   2.392   2.305  -3.486 -0.0035 -0.5522 -0.2979
 9252TIP3    H251952   2.248   2.321  -3.531  0.0656 -2.4456 -1.3043
 9253TIP3   OH251953   3.123  -1.071  -3.885  0.0938  0.0585  0.2395
 9253TIP3    H151954   3.101  -1.021  -3.964  2.2082  0.5614 -0.1153
 9253TIP3    H251955   3.040  -1.103  -3.852 -1.0614  1.6074 -1.0286
 9254TIP3   OH251956  -0.726   3.268  -4.792  0.1144  0.3791 -0.1068
 9254TIP3    H151957  -0.735   3.186  -4.841 -1.3174 -1.0223  2.3219
 9254TIP3    H251958  -0.778   3.331  -4.842 -1.4532 -1.0327 -0.3328
 9255TIP3   OH251959  -0.861  -2.585  -3.335 -0.1551 -0.3041 -0.1676
 9255TIP3    H151960  -0.814  -2.619  -3.412 -0.2411 -1.7609  0.3990
 9255TIP3    H251961  -0.952  -2.580  -3.363 -0.2949 -1.5020  0.0448
 9256TIP3   OH251962  -1.445  -3.038  -3.962  0.2086 -0.1915  0.3161
 9256TIP3    H151963  -1.376  -3.025  -4.027  1.6127  1.3085  2.0147
 9256TIP3    H251964  -1.501  -2.961  -3.971  0.5001  0.1010  0.9833
 9257TIP3   OH251965   1.704  -0.601  -3.453 -0.6065 -0.2505 -0.1076
 9257TIP3    H151966   1.790  -0.644  -3.454 -0.3309  0.2697  0.3484
 9257TIP3    H251967   1.708  -0.538  -3.525 -0.9005 -0.7699 -0.5857
 9258TIP3   OH251968  -1.604   1.711  -4.627 -0.5378 -0.1603 -0.2354
 9258TIP3    H151969  -1.697   1.719  -4.607 -0.0739  1.0089  1.7748
 9258TIP3    H251970  -1.574   1.801  -4.641  0.3045 -0.5160 -0.8448
 9259TIP3   OH251971   1.071   2.421  -4.757  0.1822  0.1409  0.1761
 9259TIP3    H151972   0.995   2.476  -4.739  1.4966  2.5268 -0.9883
 9259TIP3    H251973   1.041   2.358  -4.823 -1.3247 -0.4549  1.3898
 9260TIP3   OH251974   1.411   3.215  -4.276  0.2291 -0.3761  0.0884
 9260TIP3    H151975   1.345   3.184  -4.338  0.4641 -0.1276 -0.2923
 9260TIP3    H251976   1.457   3.285  -4.323 -0.5640  0.8453  1.0733
 9261TIP3   OH251977  -1.919   2.496  -3.205 -0.2232  0.1669  0.5008
 9261TIP3    H151978  -1.877   2.567  -3.254  1.5854 -0.8501  0.4877
 9261TIP3    H251979  -1.853   2.468  -3.142  0.4411 -3.5738 -1.5599
 9262TIP3   OH251980   2.877   0.192  -3.305  0.5086 -0.1946  0.1901
 9262TIP3    H151981   2.969   0.197  -3.329  0.4696 -0.6314 -0.0616
 9262TIP3    H251982   2.834   0.257  -3.361  0.0974 -2.6202 -2.5736
 9263TIP3   OH251983   1.875   3.230  -5.462  0.1859  0.6245 -0.5020
 9263TIP3    H151984   1.800   3.241  -5.522 -0.6274 -0.5755  0.2375
 9263TIP3    H251985   1.835   3.223  -5.375  1.1517 -0.0499 -0.0955
 9264TIP3   OH251986  -2.588  -2.917  -4.514  0.3973  0.1475 -0.3091
 9264TIP3    H151987  -2.658  -2.859  -4.544 -0.9555 -1.3557 -0.2170
 9264TIP3    H251988  -2.567  -2.971  -4.591  0.2140 -0.5762  0.1359
 9265TIP3   OH251989  -1.096  -2.781  -4.859  0.3811 -0.1841 -0.1316
 9265TIP3    H151990  -1.144  -2.864  -4.866 -2.7049  1.3813  0.4596
 9265TIP3    H251991  -1.014  -2.796  -4.906 -0.5079 -3.2244 -0.9334
 9266TIP3   OH251992  -2.414  -1.545  -5.469 -0.4106 -0.5663  0.1983
 9266TIP3    H151993  -2.410  -1.455  -5.501 -2.0816 -0.2605  0.8013
 9266TIP3    H251994  -2.505  -1.571  -5.480 -0.2185 -1.7535  1.2116
 9267TIP3   OH251995   0.718   2.430  -2.287 -0.4808 -0.9279  0.4076
 9267TIP3    H151996   0.638   2.481  -2.274  0.0741 -0.3578  1.9217
 9267TIP3    H251997   0.748   2.453  -2.374 -2.2838 -1.6445 -0.4496
 9268TIP3   OH251998  -1.730   2.011  -5.287  0.2113  0.0693 -0.1821
 9268TIP3    H151999  -1.682   2.027  -5.206  1.2094 -1.0781 -0.5211
 9268TIP3    H252000  -1.744   1.917  -5.289 -0.7668  0.2099 -0.8199
 9269TIP3   OH252001  -1.097  -0.235  -4.357  0.6985  0.0799 -0.3638
 9269TIP3    H152002  -1.027  -0.300  -4.362  0.8204  0.0396  1.4093
 9269TIP3    H252003  -1.149  -0.260  -4.280  1.2182  2.4781  0.8632
 9270TIP3   OH252004  -2.253   3.190  -5.282  0.3639  0.2172 -0.2149
 9270TIP3    H152005  -2.253   3.285  -5.291  0.8744  0.2094 -0.3300
 9270TIP3    H252006  -2.161   3.166  -5.274  0.1620 -0.0828  1.8667
 9271TIP3   OH252007   0.672  -0.427  -4.855 -0.2796  0.3430 -0.3623
 9271TIP3    H152008   0.633  -0.340  -4.862  0.9421  0.9263 -0.1795
 9271TIP3    H252009   0.634  -0.476  -4.927  1.5522  2.0541 -2.6677
 9272TIP3   OH252010  -1.999   2.213  -5.669 -0.5436  0.0621 -0.3282
 9272TIP3    H152011  -2.041   2.298  -5.683 -0.6770  0.0286 -0.1403
 9272TIP3    H252012  -2.070   2.149  -5.676 -0.3520 -0.0871 -1.0308
 9273TIP3   OH252013   0.522  -3.275  -2.836  0.3011  0.3857  0.1403
 9273TIP3    H152014   0.461  -3.346  -2.857 -0.0088  0.5660  0.4202
 9273TIP3    H252015   0.595  -3.288  -2.897  0.6311 -0.6499  0.7260
 9274TIP3   OH252016  -0.564   0.733  -4.972 -0.0655  0.3156  0.0248
 9274TIP3    H152017  -0.499   0.789  -5.015  0.3037  1.6298  2.1582
 9274TIP3    H252018  -0.631   0.794  -4.941 -1.3507 -0.8171 -0.4220
 9275TIP3   OH252019  -3.078   2.478  -5.885  0.3069  0.5099  0.0695
 9275TIP3    H152020  -3.032   2.543  -5.938  2.2655 -1.6073 -1.0035
 9275TIP3    H252021  -3.092   2.405  -5.944  2.0041 -1.7245  2.2283
 9276TIP3   OH252022  -2.708   1.716  -3.555 -0.1033  0.9558 -0.4329
 9276TIP3    H152023  -2.621   1.687  -3.530  0.6036  0.7410 -2.9344
 9276TIP3    H252024  -2.695   1.805  -3.588 -0.8516  0.9542 -0.7433
 9277TIP3   OH252025  -1.887   2.917  -4.348  0.5124  0.3330 -0.0254
 9277TIP3    H152026  -1.919   2.827  -4.346  0.0856  0.4596 -0.7130
 9277TIP3    H252027  -1.793   2.909  -4.327  0.5585 -0.3094 -0.4331
 9278TIP3   OH252028   0.954  -2.319  -2.583  0.5895  0.0972  0.2558
 9278TIP3    H152029   1.009  -2.253  -2.624 -0.9993  0.2173 -1.8831
 9278TIP3    H252030   1.001  -2.401  -2.595  1.8148  0.5885  1.4758
 9279TIP3   OH252031   2.515  -1.026  -2.289 -0.1947  0.1562 -0.0223
 9279TIP3    H152032   2.490  -0.944  -2.332  0.6832  1.0986  1.1878
 9279TIP3    H252033   2.450  -1.038  -2.221  1.0435  1.2282  1.4297
 9280TIP3   OH252034  -1.272   2.871  -3.482 -0.7150  0.1711 -0.4353
 9280TIP3    H152035  -1.256   2.880  -3.388 -2.9428 -0.2862  0.0366
 9280TIP3    H252036  -1.208   2.805  -3.510  0.8508  1.2545  0.4605
 9281TIP3   OH252037  -0.337  -2.030  -4.359 -0.2023 -0.0643  0.1528
 9281TIP3    H152038  -0.391  -2.104  -4.332 -1.1169 -0.3002 -2.0257
 9281TIP3    H252039  -0.332  -2.039  -4.455 -1.7735  3.5323 -0.4388
 9282TIP3   OH252040  -2.692   2.286  -5.704 -0.0930 -0.2203 -0.3859
 9282TIP3    H152041  -2.653   2.371  -5.726  0.9627 -1.0634 -1.9643
 9282TIP3    H252042  -2.677   2.276  -5.610  0.9771  0.7423 -0.4306
 9283TIP3   OH252043  -0.481  -2.330  -3.257 -0.3939 -0.0048 -0.5416
 9283TIP3    H152044  -0.533  -2.282  -3.193 -2.1079  0.0942 -1.9505
 9283TIP3    H252045  -0.393  -2.335  -3.218 -1.7307 -1.5187  2.6597
 9284TIP3   OH252046  -0.088   1.406  -3.945 -0.0842 -0.2443 -0.2674
 9284TIP3    H152047  -0.156   1.450  -3.996  0.4080 -0.2193 -0.9142
 9284TIP3    H252048  -0.041   1.352  -4.009  1.0268  0.3655  0.0086
 9285TIP3   OH252049  -1.474  -1.939  -5.585  0.5374  0.0293 -0.0425
 9285TIP3    H152050  -1.481  -1.862  -5.528 -0.5973  0.3340 -0.5728
 9285TIP3    H252051  -1.522  -1.915  -5.664 -1.0334 -1.7157  0.3167
 9286TIP3   OH252052  -2.822  -0.520  -5.184  0.0331 -0.1822  0.2979
 9286TIP3    H152053  -2.906  -0.551  -5.150 -0.5662 -1.2627 -1.9238
 9286TIP3    H252054  -2.830  -0.425  -5.187  0.2153  0.0175  3.1555
 9287TIP3   OH252055  -1.187  -2.466  -2.864  0.6540  0.5934 -0.4151
 9287TIP3    H152056  -1.134  -2.494  -2.789  0.5919  1.5110 -0.0218
 9287TIP3    H252057  -1.258  -2.415  -2.826 -1.1488 -1.4621 -0.8396
 9288TIP3   OH252058  -1.438   2.247  -2.750  0.2132  0.2015  0.4384
 9288TIP3    H152059  -1.381   2.322  -2.734 -0.9188  0.8332  1.7970
 9288TIP3    H252060  -1.525   2.279  -2.726 -0.4301 -1.2727  0.1387
 9289TIP3   OH252061  -2.946  -2.594  -3.643  0.1633 -0.2261  0.1335
 9289TIP3    H152062  -2.960  -2.557  -3.556 -0.5074 -1.0166  0.3737
 9289TIP3    H252063  -2.883  -2.535  -3.684 -1.5316  1.7274  0.1526
 9290TIP3   OH252064  -1.353   0.901  -3.887  0.5694 -0.1760 -0.7719
 9290TIP3    H152065  -1.342   0.945  -3.971  1.8867  0.0506 -0.4998
 9290TIP3    H252066  -1.299   0.823  -3.892  0.8666 -0.0332 -0.0576
 9291TIP3   OH252067   2.750  -2.046  -3.647 -0.1380 -0.0768 -0.0916
 9291TIP3    H152068   2.743  -2.012  -3.558 -1.7169 -0.6904  0.0481
 9291TIP3    H252069   2.674  -2.011  -3.693 -0.8868 -1.9866 -0.4044
 9292TIP3   OH252070   1.020   1.280  -4.108  0.1715 -0.0155  0.4537
 9292TIP3    H152071   0.968   1.270  -4.029 -2.5603 -0.0939 -1.2217
 9292TIP3    H252072   1.039   1.190  -4.136  0.3825 -0.0034  0.5573
 9293TIP3   OH252073   2.448  -1.795  -3.161  0.7026 -0.5106 -0.0066
 9293TIP3    H152074   2.364  -1.788  -3.206  0.2910 -2.0151  0.4536
 9293TIP3    H252075   2.463  -1.889  -3.153  2.9227 -0.3008 -0.9320
 9294TIP3   OH252076   2.896   1.742  -4.404  0.7013  0.5550 -0.2324
 9294TIP3    H152077   2.968   1.797  -4.434  1.4016 -0.4300 -0.3857
 9294TIP3    H252078   2.905   1.739  -4.309  2.3561 -1.5128 -0.3863
 9295TIP3   OH252079  -0.996  -1.699  -5.272 -0.1124 -0.1792 -0.2451
 9295TIP3    H152080  -1.067  -1.720  -5.332  0.0307 -0.4911 -0.3082
 9295TIP3    H252081  -0.961  -1.784  -5.245 -0.4323 -0.0544  0.5926
 9296TIP3   OH252082  -2.068  -1.714  -5.550 -0.0725  0.3300 -0.2974
 9296TIP3    H152083  -2.057  -1.784  -5.614 -2.0854 -1.5734  1.2956
 9296TIP3    H252084  -1.988  -1.718  -5.497 -0.6041 -1.5265  0.4249
 9297TIP3   OH252085  -1.960  -0.787  -5.569  0.0278 -0.7959 -0.2034
 9297TIP3    H152086  -2.036  -0.769  -5.624 -0.4476 -2.3580 -0.1084
 9297TIP3    H252087  -1.892  -0.726  -5.600 -1.8068  2.0593  1.0235
 9298TIP3   OH252088   0.987  -0.029  -5.286  0.4722  0.0943  0.4868
 9298TIP3    H152089   0.961   0.040  -5.346  0.7443 -0.4880 -0.3162
 9298TIP3    H252090   0.907  -0.081  -5.273  0.4862  0.0516  0.4008
 9299TIP3   OH252091  -1.191  -2.546  -5.626  0.2097  0.1143  0.0035
 9299TIP3    H152092  -1.263  -2.582  -5.677  0.1995  0.9842 -0.6147
 9299TIP3    H252093  -1.112  -2.578  -5.670  0.2059 -0.1039  0.1519
 9300TIP3   OH252094  -1.772   0.300  -4.672  0.7073 -0.6905 -0.3297
 9300TIP3    H152095  -1.702   0.238  -4.687  1.3858 -0.3306  1.1237
 9300TIP3    H252096  -1.815   0.269  -4.592 -0.3601 -0.5333 -0.8267
 9301TIP3   OH252097  -3.164  -1.729  -4.979 -0.5932 -0.2884 -0.8493
 9301TIP3    H152098  -3.144  -1.806  -4.926 -0.7609  0.7314  0.7753
 9301TIP3    H252099  -3.126  -1.747  -5.065  1.4193 -1.1939  0.1722
 9302TIP3   OH252100   1.161  -1.931  -3.427 -0.0312 -0.2154  0.5722
 9302TIP3    H152101   1.114  -2.011  -3.450  1.1874 -0.2943 -2.1167
 9302TIP3    H252102   1.196  -1.947  -3.339 -1.6231 -1.7224  0.9796
 9303TIP3   OH252103  -1.737  -2.669  -3.869 -0.0845 -0.1070  0.0217
 9303TIP3    H152104  -1.718  -2.628  -3.784  0.6560 -0.8370  0.2196
 9303TIP3    H252105  -1.826  -2.704  -3.859  0.6192 -1.7311  1.1510
 9304TIP3   OH252106   2.371  -1.052  -4.770  0.5771 -0.5351 -0.1129
 9304TIP3    H152107   2.424  -1.101  -4.707 -1.4939 -3.2364 -0.2690
 9304TIP3    H252108   2.422  -0.973  -4.788  3.6108 -2.0321  1.1137
 9305TIP3   OH252109  -1.207   0.421  -4.471 -0.1187 -0.0430  0.1850
 9305TIP3    H152110  -1.193   0.348  -4.531 -1.8947  0.3113 -0.7442
 9305TIP3    H252111  -1.218   0.380  -4.385  0.1511 -0.7609 -0.1175
 9306TIP3   OH252112   0.859   1.798  -4.905 -0.8085 -0.0665  0.2134
 9306TIP3    H152113   0.929   1.740  -4.878  0.7650  1.2926 -0.7573
 9306TIP3    H252114   0.790   1.784  -4.840  0.0653 -1.9312  0.8074
 9307TIP3   OH252115  -1.559   1.159  -5.068  0.1319  0.3271 -0.3513
 9307TIP3    H152116  -1.640   1.203  -5.097  0.7158  1.2505 -0.6240
 9307TIP3    H252117  -1.588   1.073  -5.038 -0.8472  0.3075 -1.2768
 9308TIP3   OH252118  -0.959  -2.528  -3.869  0.5492 -0.3363 -0.6728
 9308TIP3    H152119  -0.884  -2.505  -3.923 -0.1473  0.9914 -1.1192
 9308TIP3    H252120  -1.035  -2.510  -3.925 -0.1298 -1.0909 -0.0251
 9309TIP3   OH252121   3.113   2.089  -3.409 -0.0481  0.3841 -0.3609
 9309TIP3    H152122   3.126   2.168  -3.357  0.1166 -0.8742  1.5880
 9309TIP3    H252123   3.034   2.108  -3.461  0.9188  2.4126 -1.1826
 9310TIP3   OH252124  -0.081  -1.964  -2.906  1.1518 -0.1024  0.0376
 9310TIP3    H152125  -0.088  -1.942  -2.999 -0.6659 -1.1291 -0.1213
 9310TIP3    H252126  -0.044  -2.052  -2.904 -0.4486 -0.8192  0.1383
 9311TIP3   OH252127  -3.249   0.907  -4.429 -0.1385  0.0276  0.1415
 9311TIP3    H152128  -3.208   0.981  -4.474 -0.2547  0.5290  0.8594
 9311TIP3    H252129  -3.316   0.876  -4.491  0.0733  0.3661 -0.2615
 9312TIP3   OH252130   2.751   0.656  -5.302  0.2620 -0.4207  0.2335
 9312TIP3    H152131   2.804   0.719  -5.253 -1.0990  0.5100  0.5893
 9312TIP3    H252132   2.689   0.710  -5.351 -1.0534 -1.4615  0.6711
 9313TIP3   OH252133  -2.787  -0.260  -4.413  0.2123 -0.1328 -0.1008
 9313TIP3    H152134  -2.701  -0.227  -4.438 -0.6766  0.5753 -2.5002
 9313TIP3    H252135  -2.770  -0.321  -4.341  2.4379  1.6964  1.0317
 9314TIP3   OH252136  -0.594  -2.938  -2.544 -0.4007 -0.2953  0.3877
 9314TIP3    H152137  -0.549  -2.969  -2.622 -0.8887 -1.3617  0.5186
 9314TIP3    H252138  -0.635  -3.016  -2.507 -0.2993  0.2145  1.6297
 9315TIP3   OH252139   0.561  -1.230  -3.927  0.3088  0.0424 -0.1650
 9315TIP3    H152140   0.501  -1.251  -3.998 -1.1954  1.0172  0.7541
 9315TIP3    H252141   0.648  -1.249  -3.962 -0.4084  0.1693 -2.1128
 9316TIP3   OH252142  -2.169   0.180  -4.864 -0.6036 -0.0331  0.9739
 9316TIP3    H152143  -2.256   0.179  -4.825 -0.3705 -0.8903  1.4986
 9316TIP3    H252144  -2.152   0.273  -4.881 -2.1188  0.0372 -0.3262
 9317TIP3   OH252145  -1.174   1.083  -5.450  0.1480  0.4744  0.2013
 9317TIP3    H152146  -1.243   1.148  -5.435  0.7999  0.8610  1.6463
 9317TIP3    H252147  -1.119   1.088  -5.372  1.1740 -0.6295 -0.4278
 9318TIP3   OH252148   1.486  -2.873  -3.792 -0.5354  0.0830 -0.2077
 9318TIP3    H152149   1.553  -2.847  -3.730 -0.1464  0.8630 -0.9276
 9318TIP3    H252150   1.418  -2.806  -3.784 -1.0298 -0.4569  0.1985
 9319TIP3   OH252151  -1.889  -1.824  -3.901  0.8169 -0.5842  0.4960
 9319TIP3    H152152  -1.819  -1.849  -3.961  0.3109 -0.7668 -0.0261
 9319TIP3    H252153  -1.929  -1.907  -3.875  0.3598 -0.4402  0.2564
 9320TIP3   OH252154   1.147  -3.252  -5.289 -0.0636 -0.0979  0.3278
 9320TIP3    H152155   1.081  -3.244  -5.220  1.4133 -0.3648  1.8433
 9320TIP3    H252156   1.139  -3.171  -5.340 -1.5764 -0.1588  0.4421
 9321TIP3   OH252157   1.020   0.991  -4.210 -0.1869 -0.2534 -0.5513
 9321TIP3    H152158   0.952   0.991  -4.276  0.9855 -1.0248 -1.8057
 9321TIP3    H252159   1.100   0.967  -4.257  0.8061 -0.1925  1.0168
 9322TIP3   OH252160  -2.516  -1.039  -3.747 -0.1538 -0.1416  0.3374
 9322TIP3    H152161  -2.457  -0.963  -3.739 -1.0325  0.6335 -0.2746
 9322TIP3    H252162  -2.603  -1.000  -3.758 -0.4420 -1.2093 -1.4819
 9323TIP3   OH252163   1.485  -1.369  -3.489 -0.1851 -0.1375  0.0327
 9323TIP3    H152164   1.417  -1.349  -3.425 -0.0973 -1.0015  0.4067
 9323TIP3    H252165   1.519  -1.283  -3.516 -0.4149  0.2430  0.9358
 9324TIP3   OH252166  -2.277  -1.293  -4.998 -0.2891  0.0638 -0.0336
 9324TIP3    H152167  -2.198  -1.259  -5.039 -0.7942  1.0712 -0.1953
 9324TIP3    H252168  -2.340  -1.221  -5.003 -0.4476  0.1828  2.3300
 9325TIP3   OH252169  -3.062   0.579  -5.598  0.1304  0.4657  0.4959
 9325TIP3    H152170  -2.985   0.637  -5.599 -1.0881  2.1645  0.0233
 9325TIP3    H252171  -3.028   0.494  -5.570  2.3077  0.9662 -0.4226
 9326TIP3   OH252172  -1.732  -0.268  -4.746  0.2041 -0.2857  0.2546
 9326TIP3    H152173  -1.712  -0.226  -4.663  1.0905  0.3219 -0.2554
 9326TIP3    H252174  -1.664  -0.335  -4.757  0.7540  0.3740 -0.4878
 9327TIP3   OH252175  -2.051   2.219  -4.371  0.7259  0.3012  0.6791
 9327TIP3    H152176  -2.064   2.167  -4.292 -0.5174 -1.1845 -0.4377
 9327TIP3    H252177  -1.981   2.174  -4.419  0.0190 -0.0772 -0.0354
 9328TIP3   OH252178  -0.898  -0.703  -4.618  0.3529 -0.4308  0.2734
 9328TIP3    H152179  -0.822  -0.699  -4.676 -0.9759  0.0578 -1.5274
 9328TIP3    H252180  -0.882  -0.635  -4.552  0.9500  0.4892 -0.7940
 9329TIP3   OH252181  -0.632   1.186  -2.193  0.0301  0.1389 -0.0406
 9329TIP3    H152182  -0.559   1.162  -2.136 -0.0262  0.6117  0.2436
 9329TIP3    H252183  -0.707   1.194  -2.133 -0.2110 -0.1654 -0.3029
 9330TIP3   OH252184   3.300   1.508  -3.017  0.1492  0.0275  0.0987
 9330TIP3    H152185   3.349   1.545  -3.091 -0.7923  1.3728  0.0982
 9330TIP3    H252186   3.208   1.521  -3.041 -0.1727  0.6244  1.5649
 9331TIP3   OH252187  -0.238  -2.389  -5.059  0.6202  0.4256 -0.2927
 9331TIP3    H152188  -0.170  -2.330  -5.026  0.8844  0.7909 -1.4583
 9331TIP3    H252189  -0.261  -2.355  -5.145 -0.7880  0.0880 -0.0870
 9332TIP3   OH252190  -1.035   1.306  -4.890  0.8734  0.1510  0.1103
 9332TIP3    H152191  -1.122   1.285  -4.855  0.6646  2.3149  1.0582
 9332TIP3    H252192  -0.977   1.298  -4.814  1.5854 -1.4408 -0.5526
 9333TIP3   OH252193  -1.889   3.206  -4.540 -0.2992  0.4500 -0.6491
 9333TIP3    H152194  -1.825   3.275  -4.524  0.2797  0.0723 -1.2519
 9333TIP3    H252195  -1.937   3.197  -4.458  0.1847  0.9900 -0.3027
 9334TIP3   OH252196   1.515   0.994  -2.758  0.0141 -0.2571  0.2935
 9334TIP3    H152197   1.541   1.084  -2.777 -0.7131  0.3318  1.8485
 9334TIP3    H252198   1.582   0.962  -2.698  1.5549 -1.6127 -2.0051
 9335TIP3   OH252199   2.548  -2.581  -5.275  0.6796  0.3043  0.1966
 9335TIP3    H152200   2.605  -2.604  -5.347  1.4240  0.8611  0.5997
 9335TIP3    H252201   2.474  -2.642  -5.283  1.1186 -0.1441 -0.5689
 9336TIP3   OH252202  -0.137  -2.579  -3.420  0.3145  0.4122  0.9525
 9336TIP3    H152203  -0.046  -2.609  -3.417 -0.2558 -1.8578  6.1499
 9336TIP3    H252204  -0.185  -2.653  -3.457  0.2142  0.1309  1.6447
 9337TIP3   OH252205  -2.549   2.465  -3.444  0.2708  0.0676  0.0745
 9337TIP3    H152206  -2.469   2.422  -3.474  0.5992  0.6370  0.1095
 9337TIP3    H252207  -2.522   2.556  -3.426 -0.0482 -0.0798  1.4617
 9338TIP3   OH252208   2.931  -1.687  -4.269 -0.2841  0.6073  1.2582
 9338TIP3    H152209   2.901  -1.776  -4.254  1.3625 -0.1873  0.0728
 9338TIP3    H252210   2.929  -1.676  -4.364  4.2599 -0.0411  0.8397
 9339TIP3   OH252211  -0.466   1.923  -3.836 -0.1887  0.8427 -0.4366
 9339TIP3    H152212  -0.400   1.879  -3.783 -0.4787 -0.1762 -0.9058
 9339TIP3    H252213  -0.481   1.865  -3.911 -0.4774  1.8065 -1.1466
 9340TIP3   OH252214  -2.735   1.361  -4.222 -0.1611  0.5438  0.1637
 9340TIP3    H152215  -2.657   1.397  -4.179  0.6098  0.5652 -1.2097
 9340TIP3    H252216  -2.761   1.429  -4.284 -0.5041 -0.0255 -0.3182
 9341TIP3   OH252217  -2.800   0.949  -3.138  0.1674 -0.0018 -0.1828
 9341TIP3    H152218  -2.725   0.894  -3.116 -1.3853 -1.5693  1.5549
 9341TIP3    H252219  -2.804   1.013  -3.067  0.0297  0.2557 -0.4221
 9342TIP3   OH252220  -2.300   0.988  -4.992 -0.0468 -0.1860 -0.0303
 9342TIP3    H152221  -2.346   1.004  -5.075 -1.1299 -0.6381  0.4570
 9342TIP3    H252222  -2.318   1.065  -4.939  1.2175  0.4137 -0.4362
 9343TIP3   OH252223  -1.365  -1.471  -3.975 -0.2589 -0.1717 -0.2240
 9343TIP3    H152224  -1.340  -1.437  -3.889  0.2917 -0.3163 -0.3197
 9343TIP3    H252225  -1.448  -1.428  -3.995  0.8200  1.8291 -0.7374
 9344TIP3   OH252226  -2.842   3.011  -5.361  0.2727  0.0484  0.0966
 9344TIP3    H152227  -2.774   3.063  -5.318  1.1726 -1.3394  0.3850
 9344TIP3    H252228  -2.884   2.963  -5.290 -0.3333  0.1136 -0.2116
 9345TIP3   OH252229   0.408   3.237  -3.155 -1.0223 -0.0911  0.2784
 9345TIP3    H152230   0.370   3.172  -3.096  1.9428 -1.1746  1.1962
 9345TIP3    H252231   0.491   3.199  -3.183  0.2249  2.7103 -0.2383
 9346TIP3   OH252232   2.099   2.124  -4.497 -0.3699  0.1354  0.8167
 9346TIP3    H152233   2.064   2.200  -4.450 -0.3761  0.5634  0.1378
 9346TIP3    H252234   2.181   2.104  -4.452 -0.4755  0.4120  1.1394
 9347TIP3   OH252235   0.081   3.157  -4.697  0.0229 -0.2891  0.3643
 9347TIP3    H152236   0.005   3.121  -4.652  0.2556 -0.9574  0.2270
 9347TIP3    H252237   0.156   3.135  -4.641  0.1422  0.1954  0.4034
 9348TIP3   OH252238  -0.664   1.304  -4.593 -0.0800  0.1963  0.5160
 9348TIP3    H152239  -0.664   1.388  -4.547 -0.6615 -0.8192  2.5034
 9348TIP3    H252240  -0.575   1.271  -4.583 -0.3997 -0.3722  1.6620
 9349TIP3   OH252241   2.358   1.827  -4.032 -0.0239  0.1432 -0.3246
 9349TIP3    H152242   2.413   1.786  -4.099  0.5763  0.6402 -0.1393
 9349TIP3    H252243   2.269   1.801  -4.056  0.3660 -1.9017  0.2024
 9350TIP3   OH252244   2.974   0.879  -2.342  0.2037 -0.0911  0.1602
 9350TIP3    H152245   2.977   0.803  -2.285 -0.7368  0.0912  0.4615
 9350TIP3    H252246   2.899   0.930  -2.311  0.2549  0.4853 -0.6300
 9351TIP3   OH252247  -0.537   1.349  -3.512 -0.1507 -0.1340 -0.1701
 9351TIP3    H152248  -0.462   1.400  -3.481 -0.5817  0.9195 -0.8159
 9351TIP3    H252249  -0.499   1.267  -3.542  0.7407  0.3437 -0.3872
 9352TIP3   OH252250   1.169  -0.649  -3.271  0.0163 -0.1529 -0.1815
 9352TIP3    H152251   1.249  -0.641  -3.323  0.7903 -0.1521  0.9643
 9352TIP3    H252252   1.165  -0.567  -3.221  0.1065 -0.7503  0.8389
 9353TIP3   OH252253  -3.245   2.523  -3.668 -0.2658 -0.0526 -0.3651
 9353TIP3    H152254  -3.266   2.458  -3.601  3.2189 -0.5030  0.4882
 9353TIP3    H252255  -3.220   2.601  -3.619 -1.7224  1.0988 -1.3374
 9354TIP3   OH252256   2.077   2.413  -4.941 -0.3740  0.4548 -0.6556
 9354TIP3    H152257   2.121   2.451  -5.017 -1.0674 -0.9851 -1.8306
 9354TIP3    H252258   2.009   2.358  -4.978 -1.3261  0.4069  1.0576
 9355TIP3   OH252259  -1.769   0.462  -3.268  0.2128 -0.3593  0.8891
 9355TIP3    H152260  -1.739   0.527  -3.332 -0.3500 -1.1829 -0.2496
 9355TIP3    H252261  -1.689   0.419  -3.238  0.8248  2.1143  3.1425
 9356TIP3   OH252262  -2.890   1.788  -3.022  0.0085  0.0436 -0.2262
 9356TIP3    H152263  -2.846   1.741  -3.092 -0.8832 -0.1988 -0.6355
 9356TIP3    H252264  -2.977   1.809  -3.057 -0.7583 -0.8048  1.0764
 9357TIP3   OH252265   2.490  -0.094  -3.699 -0.0440  0.2769 -0.4489
 9357TIP3    H152266   2.408  -0.088  -3.650  0.8059 -1.0920  1.2421
 9357TIP3    H252267   2.489  -0.182  -3.736  2.1522 -1.1390  2.5270
 9358TIP3   OH252268  -2.551   2.530  -4.848  0.4001  0.5866  0.0281
 9358TIP3    H152269  -2.474   2.472  -4.853  1.0289  1.4621 -0.8640
 9358TIP3    H252270  -2.514   2.618  -4.842 -0.5470  0.9086  1.6869
 9359TIP3   OH252271   0.556  -3.042  -3.144  0.1881  0.2224 -0.7995
 9359TIP3    H152272   0.546  -2.959  -3.097 -0.4508 -1.5150  2.4628
 9359TIP3    H252273   0.651  -3.050  -3.158  0.2358  1.5810 -1.4650
 9360TIP3   OH252274  -0.749   1.126  -3.809  0.7118 -0.1395  0.2302
 9360TIP3    H152275  -0.757   1.049  -3.752  1.1118 -0.5776 -0.2855
 9360TIP3    H252276  -0.663   1.116  -3.850 -0.0851 -0.5324 -1.4308
 9361TIP3   OH252277   0.960   0.328  -4.138  0.1576 -0.5911  0.3961
 9361TIP3    H152278   0.867   0.306  -4.145  0.4900 -1.5397 -1.9531
 9361TIP3    H252279   0.961   0.421  -4.114 -1.3480 -0.7670  1.2846
 9362TIP3   OH252280  -0.616  -3.116  -5.883 -0.1263  0.2035  0.0861
 9362TIP3    H152281  -0.683  -3.180  -5.906 -0.7793  0.4163  1.2875
 9362TIP3    H252282  -0.537  -3.168  -5.869 -0.6722 -0.3726  1.1323
 9363TIP3   OH252283   0.948   3.258  -3.402  0.1949 -0.1553 -0.3616
 9363TIP3    H152284   0.898   3.339  -3.404 -0.7712 -0.7132  0.2823
 9363TIP3    H252285   0.987   3.256  -3.314  0.7967 -0.0568 -0.6205
 9364TIP3   OH252286   3.022   3.230  -3.590  0.1509  0.2896  0.4079
 9364TIP3    H152287   3.089   3.191  -3.646 -2.6316 -1.7009 -1.8214
 9364TIP3    H252288   2.985   3.301  -3.642 -0.2544  0.6161  1.1225
 9365TIP3   OH252289  -1.401  -2.883  -5.463  0.1173  0.3760 -0.3670
 9365TIP3    H152290  -1.393  -2.841  -5.378  1.7342 -1.5594  0.5155
 9365TIP3    H252291  -1.493  -2.871  -5.488 -0.7296 -0.1254  2.2567
 9366TIP3   OH252292   0.954  -0.185  -3.307 -0.1180  0.0754 -0.3800
 9366TIP3    H152293   0.989  -0.248  -3.244 -0.9969 -0.6222 -0.5659
 9366TIP3    H252294   0.865  -0.166  -3.276 -0.6449 -0.4288 -1.4775
 9367TIP3   OH252295   0.266  -2.958  -4.022 -0.2737  0.5022  0.2655
 9367TIP3    H152296   0.313  -3.014  -4.084 -1.2416  0.0340 -0.0821
 9367TIP3    H252297   0.317  -2.962  -3.942  0.8331  0.8593 -0.4001
 9368TIP3   OH252298  -2.436   1.725  -4.310  0.4519 -0.4171  0.5195
 9368TIP3    H152299  -2.507   1.751  -4.369  1.1058  1.5047  0.5261
 9368TIP3    H252300  -2.361   1.709  -4.367  1.5014  2.8455  0.8052
 9369TIP3   OH252301  -2.156  -2.562  -3.617  0.0218  0.3997  0.3160
 9369TIP3    H152302  -2.114  -2.476  -3.612  1.4147 -0.2652  0.3740
 9369TIP3    H252303  -2.249  -2.542  -3.625  0.5226  2.0795 -4.4722
 9370TIP3   OH252304  -3.075  -0.133  -4.944  0.0763 -0.1583  0.4424
 9370TIP3    H152305  -2.987  -0.169  -4.934 -0.0522  0.0268  2.8214
 9370TIP3    H252306  -3.116  -0.145  -4.858 -2.7199 -1.4209 -0.9372
 9371TIP3   OH252307   0.695   2.204  -5.340 -0.0530  0.7007  0.1970
 9371TIP3    H152308   0.710   2.179  -5.249 -0.7018 -0.9940 -0.1190
 9371TIP3    H252309   0.777   2.184  -5.385 -0.3079 -0.1558  0.0973
 9372TIP3   OH252310   1.023   1.838  -5.198  0.3440 -0.2635 -0.2018
 9372TIP3    H152311   0.964   1.856  -5.271 -0.9623  0.3821  0.9499
 9372TIP3    H252312   1.108   1.871  -5.226 -0.5610  1.7623 -0.6983
 9373TIP3   OH252313   2.576  -3.234  -3.343  0.5907 -0.5386 -0.3466
 9373TIP3    H152314   2.583  -3.202  -3.253  1.4429 -1.7890  0.0675
 9373TIP3    H252315   2.653  -3.198  -3.387  0.2839 -0.0960 -0.5251
 9374TIP3   OH252316   3.247   2.905  -5.580  0.5176  0.5203 -0.1648
 9374TIP3    H152317   3.238   2.929  -5.488 -1.7834  1.9037 -0.6559
 9374TIP3    H252318   3.333   2.938  -5.605  1.6840 -0.8832  1.7036
 9375TIP3   OH252319  -3.342   1.286  -5.754 -0.3944  0.0897 -0.1454
 9375TIP3    H152320  -3.354   1.207  -5.701 -1.2997 -2.1494 -3.3303
 9375TIP3    H252321  -3.250   1.281  -5.782 -0.3036  0.4639  0.0919
 9376TIP3   OH252322  -0.978   2.214  -5.423  0.2474 -0.4677  0.6754
 9376TIP3    H152323  -0.955   2.304  -5.446  0.0238 -0.3043  1.0882
 9376TIP3    H252324  -0.898   2.178  -5.385  0.2567 -0.3586  0.7593
 9377TIP3   OH252325  -0.380  -1.573  -3.056  0.1319  0.1379  0.4922
 9377TIP3    H152326  -0.313  -1.573  -2.988 -0.2652 -0.8197  0.9047
 9377TIP3    H252327  -0.463  -1.565  -3.008 -0.0514  1.6897 -0.0295
 9378TIP3   OH252328   2.780   3.255  -2.353  0.1611 -0.7478  0.5963
 9378TIP3    H152329   2.807   3.335  -2.310  3.3728 -0.9235 -0.8388
 9378TIP3    H252330   2.824   3.185  -2.306 -2.5863 -1.8223  1.8231
 9379TIP3   OH252331   2.815  -1.163  -5.755 -0.5420  0.1520  0.7446
 9379TIP3    H152332   2.743  -1.168  -5.818 -1.5812 -1.5176  1.9888
 9379TIP3    H252333   2.894  -1.168  -5.808 -1.3821 -2.5846 -0.4126
 9380TIP3   OH252334  -2.671  -0.328  -4.119 -0.1843 -0.6592 -0.4819
 9380TIP3    H152335  -2.729  -0.266  -4.075 -1.0614 -1.0496 -1.0638
 9380TIP3    H252336  -2.598  -0.274  -4.150 -0.6287 -0.0229 -0.4448
 9381TIP3   OH252337   0.811  -2.818  -4.248  0.2890 -0.7558 -0.1802
 9381TIP3    H152338   0.835  -2.777  -4.331  1.0109  2.3854  1.4060
 9381TIP3    H252339   0.843  -2.908  -4.255  1.5154 -0.2012 -2.7911
 9382TIP3   OH252340  -2.424  -2.491  -4.286 -0.0300 -0.5416 -0.1356
 9382TIP3    H152341  -2.472  -2.483  -4.204 -1.4743 -0.2085 -0.9787
 9382TIP3    H252342  -2.434  -2.583  -4.311 -0.5721 -0.3898 -0.4978
 9383TIP3   OH252343   1.291  -0.998  -3.014  0.2763  0.0085 -0.6031
 9383TIP3    H152344   1.243  -0.967  -2.937  0.2665 -1.2375 -0.0776
 9383TIP3    H252345   1.383  -0.994  -2.987  0.3791  0.9055 -1.0473
 9384TIP3   OH252346   2.432   1.363  -5.466 -0.1461 -0.4978  0.3394
 9384TIP3    H152347   2.487   1.327  -5.397  1.7823  1.3294 -0.1387
 9384TIP3    H252348   2.479   1.441  -5.496 -2.2358  0.2611 -1.2167
 9385TIP3   OH252349  -1.074  -2.184  -1.831 -0.3797  0.3334  0.0887
 9385TIP3    H152350  -1.032  -2.099  -1.823 -4.0594  2.2798  1.4517
 9385TIP3    H252351  -1.018  -2.243  -1.781  1.3854  2.3344  0.6280
 9386TIP3   OH252352   2.214   2.392  -5.440  0.2638 -0.6849  1.0795
 9386TIP3    H152353   2.277   2.325  -5.465 -0.7071 -1.0578 -0.5419
 9386TIP3    H252354   2.146   2.344  -5.392 -0.1110 -0.7539  0.4826
 9387TIP3   OH252355  -1.097  -0.807  -5.625  0.0682 -0.0836 -0.4419
 9387TIP3    H152356  -1.057  -0.789  -5.710  0.8392 -0.1463 -0.0951
 9387TIP3    H252357  -1.085  -0.900  -5.611  1.3546  0.1917  0.4369
 9388TIP3   OH252358  -1.825  -2.557  -2.597  0.4645  0.0334  0.4767
 9388TIP3    H152359  -1.855  -2.632  -2.545  0.1179  0.1608  0.4656
 9388TIP3    H252360  -1.899  -2.496  -2.596 -0.0724 -0.5277 -1.2729
 9389TIP3   OH252361  -1.675  -1.960  -3.568  0.5073  0.7995  0.2600
 9389TIP3    H152362  -1.729  -2.013  -3.626 -0.3349 -0.6606  2.2769
 9389TIP3    H252363  -1.598  -2.015  -3.549 -1.0062 -0.4784  3.4509
 9390TIP3   OH252364  -1.492   0.067  -5.456 -0.5275  0.8620 -0.3538
 9390TIP3    H152365  -1.514  -0.014  -5.503 -0.2661 -0.1016  1.0975
 9390TIP3    H252366  -1.553   0.067  -5.381  2.3720 -0.4275  2.2275
 9391TIP3   OH252367   1.079  -0.970  -3.539  1.0471 -0.7080  0.2208
 9391TIP3    H152368   0.997  -1.004  -3.575  1.1211  0.3179 -0.9551
 9391TIP3    H252369   1.065  -0.972  -3.444 -1.2662  1.5160  0.0496
 9392TIP3   OH252370  -1.000  -2.404  -5.033 -0.1285 -0.1191 -0.2630
 9392TIP3    H152371  -0.976  -2.426  -5.123  1.4542  2.0337 -0.4414
 9392TIP3    H252372  -1.090  -2.372  -5.039 -0.6931 -1.7027 -0.7422
 9393TIP3   OH252373   0.983  -0.575  -3.511  0.1691  0.0151  0.2686
 9393TIP3    H152374   1.069  -0.617  -3.510 -1.0850 -2.8243 -0.8049
 9393TIP3    H252375   0.938  -0.610  -3.434 -0.6472  0.0335 -0.1900
 9394TIP3   OH252376  -0.734   0.420  -4.020  0.3494 -0.4874  1.1597
 9394TIP3    H152377  -0.704   0.508  -4.042  3.3910 -1.9260 -1.4326
 9394TIP3    H252378  -0.699   0.404  -3.933  0.5457  0.5570  1.2869
 9395TIP3   OH252379   1.436  -0.359  -2.531  0.0332  0.4623 -0.6892
 9395TIP3    H152380   1.426  -0.340  -2.624 -0.2872  1.7226 -0.4151
 9395TIP3    H252381   1.520  -0.320  -2.507 -0.6861  1.7103 -0.0891
 9396TIP3   OH252382  -2.353  -3.184  -3.028 -0.8651 -0.2115  0.2515
 9396TIP3    H152383  -2.317  -3.113  -2.975 -0.8698  1.8401 -2.2840
 9396TIP3    H252384  -2.277  -3.230  -3.063 -0.8416 -0.4225  0.5754
 9397TIP3   OH252385   3.227  -0.198  -4.687 -0.2043  0.3601 -0.1227
 9397TIP3    H152386   3.137  -0.230  -4.684 -0.0601 -0.0059  0.8071
 9397TIP3    H252387   3.222  -0.115  -4.734 -1.2079  0.8732  0.8367
 9398TIP3   OH252388  -0.454  -2.665  -5.247 -0.0074 -0.0754 -0.2979
 9398TIP3    H152389  -0.417  -2.639  -5.162 -2.4214  2.5320  0.1050
 9398TIP3    H252390  -0.462  -2.760  -5.241  1.0409 -0.1099  1.8894
 9399TIP3   OH252391   2.097   2.112  -4.778 -0.0477 -0.2057 -0.0684
 9399TIP3    H152392   2.114   2.088  -4.687 -0.0620 -0.1742 -0.0577
 9399TIP3    H252393   2.160   2.182  -4.796  0.2142 -0.4659 -0.1947
 9400TIP3   OH252394   2.398  -0.949  -5.972 -0.1604 -0.1076  0.2386
 9400TIP3    H152395   2.411  -0.854  -5.964 -0.0964 -0.1026  0.0681
 9400TIP3    H252396   2.319  -0.967  -5.921 -1.8368  0.4375 -2.0481
 9401TIP3   OH252397   1.499  -0.132  -5.587 -0.1875 -0.2053 -0.2671
 9401TIP3    H152398   1.421  -0.179  -5.617 -0.0227  0.3192 -1.5693
 9401TIP3    H252399   1.494  -0.046  -5.628  0.8524 -0.0052 -0.0216
 9402TIP3   OH252400   1.933  -2.294  -2.291  0.0465 -1.0762 -0.5411
 9402TIP3    H152401   1.872  -2.351  -2.244 -0.8346 -1.4196 -2.0474
 9402TIP3    H252402   1.878  -2.239  -2.346  0.8865  1.2219  0.7932
 9403TIP3   OH252403   1.341   2.694  -5.387 -0.1471 -0.5467  0.2507
 9403TIP3    H152404   1.267   2.633  -5.380  0.0018 -0.6370  1.1436
 9403TIP3    H252405   1.330   2.753  -5.313  1.1066 -1.0336  0.8371
 9404TIP3   OH252406   1.764   0.883  -3.285  0.1725 -0.4646 -0.3404
 9404TIP3    H152407   1.824   0.941  -3.331 -0.5678 -1.1746 -2.3110
 9404TIP3    H252408   1.739   0.818  -3.351  0.3250 -2.5485  1.5227
 9405TIP3   OH252409  -3.042   1.220  -5.519 -0.4329  0.1230 -0.0093
 9405TIP3    H152410  -3.058   1.189  -5.608 -2.6231 -0.0723  0.3815
 9405TIP3    H252411  -2.992   1.149  -5.478 -0.8913 -0.5587 -0.6014
 9406TIP3   OH252412  -0.452  -2.577  -4.059 -0.1824  0.3435  0.2158
 9406TIP3    H152413  -0.447  -2.627  -4.141 -3.2136 -0.6580  0.5203
 9406TIP3    H252414  -0.481  -2.490  -4.085  0.3769  0.5021  0.1105
 9407TIP3   OH252415   2.098   0.152  -3.638 -0.2825 -0.4316 -0.2086
 9407TIP3    H152416   2.016   0.196  -3.662 -1.5067 -1.8692  1.1265
 9407TIP3    H252417   2.162   0.184  -3.702 -1.3978  2.2153 -0.1462
 9408TIP3   OH252418  -0.146  -1.304  -4.758 -0.2097 -0.5361  0.1500
 9408TIP3    H152419  -0.227  -1.355  -4.760 -0.7804  0.3786 -0.7738
 9408TIP3    H252420  -0.170  -1.221  -4.717 -0.3794  0.7215 -2.3194
 9409TIP3   OH252421   0.146  -0.975  -5.624 -0.3342  0.1251  0.4537
 9409TIP3    H152422   0.160  -0.959  -5.531  1.3258  0.8357  0.1249
 9409TIP3    H252423   0.086  -1.049  -5.627  0.9306 -1.0356  2.0994
 9410TIP3   OH252424  -3.310   1.126  -4.701 -0.2695 -0.0540 -0.3020
 9410TIP3    H152425  -3.362   1.184  -4.757  0.3833 -0.4350 -1.3135
 9410TIP3    H252426  -3.248   1.084  -4.760  0.4620 -0.4411  0.7163
 9411TIP3   OH252427   3.048   0.287  -4.624 -0.0951  0.2644 -0.4518
 9411TIP3    H152428   3.106   0.360  -4.603 -0.4953  0.5984 -0.4940
 9411TIP3    H252429   3.060   0.226  -4.551 -0.1032  0.5812 -0.1841
 9412TIP3   OH252430  -1.043   2.384  -4.788 -0.3237  0.0696 -0.5694
 9412TIP3    H152431  -1.091   2.404  -4.869 -0.9057 -0.4251 -0.3540
 9412TIP3    H252432  -1.056   2.290  -4.775 -1.0598  0.3106  0.6222
 9413TIP3   OH252433   0.550  -1.027  -5.552 -0.4636  0.2069 -0.1598
 9413TIP3    H152434   0.488  -1.075  -5.607 -1.4803  0.0875  1.0351
 9413TIP3    H252435   0.636  -1.057  -5.581 -1.0312 -1.2291 -0.4333
 9414TIP3   OH252436   2.006  -0.099  -4.569  0.0001 -0.0367  0.2715
 9414TIP3    H152437   1.957  -0.123  -4.648  1.8644  0.2680 -1.0504
 9414TIP3    H252438   2.009  -0.003  -4.572 -1.4623  0.0996  1.7480
 9415TIP3   OH252439   0.616   3.101  -3.779  0.0286 -0.1127  0.2161
 9415TIP3    H152440   0.685   3.042  -3.810  0.2674  0.3240 -0.0926
 9415TIP3    H252441   0.544   3.043  -3.756  0.7762 -0.6362  1.3134
 9416TIP3   OH252442  -2.783   1.018  -3.576  0.0239 -0.4575  0.1368
 9416TIP3    H152443  -2.835   1.048  -3.501 -2.2300 -0.3686 -1.3610
 9416TIP3    H252444  -2.790   0.923  -3.574  1.7824 -0.6113  1.2046
 9417TIP3   OH252445   1.387   2.887  -4.333 -0.5433 -0.4417  0.0621
 9417TIP3    H152446   1.391   2.935  -4.250  0.5130  0.6025 -0.5627
 9417TIP3    H252447   1.466   2.914  -4.380 -0.1597 -2.4592 -0.5264
 9418TIP3   OH252448   0.064   0.225  -3.460  0.1701  0.2761  0.2794
 9418TIP3    H152449   0.007   0.166  -3.509  1.3251 -1.0494  0.4477
 9418TIP3    H252450   0.089   0.293  -3.523 -0.5181  0.1209 -0.1663
 9419TIP3   OH252451   2.397   2.909  -5.866 -0.0352  0.0655  0.0068
 9419TIP3    H152452   2.430   2.883  -5.952  1.9299  0.9665  0.4309
 9419TIP3    H252453   2.375   3.002  -5.876  2.3613  0.8015  1.0032
 9420TIP3   OH252454  -1.806  -0.675  -5.064 -0.1140 -0.1265 -0.1307
 9420TIP3    H152455  -1.717  -0.684  -5.029 -0.1123  0.2942 -0.0209
 9420TIP3    H252456  -1.863  -0.685  -4.987 -0.1923 -1.0256 -0.2997
 9421TIP3   OH252457   0.168   0.795  -4.627 -0.0485  0.3584  0.1498
 9421TIP3    H152458   0.174   0.813  -4.721 -2.1355 -3.1568 -0.8712
 9421TIP3    H252459   0.233   0.727  -4.612  0.7236  1.3496  1.4656
 9422TIP3   OH252460  -1.407  -0.617  -3.488  0.0329 -0.1383  0.7496
 9422TIP3    H152461  -1.332  -0.605  -3.429  0.1332 -1.2301  0.8596
 9422TIP3    H252462  -1.449  -0.531  -3.490  0.8752  0.3020  1.2524
 9423TIP3   OH252463  -1.754  -2.518  -3.649 -0.1772 -0.3468 -0.2328
 9423TIP3    H152464  -1.811  -2.455  -3.604  1.0455 -0.2567  1.2772
 9423TIP3    H252465  -1.700  -2.464  -3.707 -0.5541 -0.2507 -0.4952
 9424TIP3   OH252466  -1.317   2.162  -4.825  0.5747  0.6143  0.5256
 9424TIP3    H152467  -1.343   2.254  -4.811 -0.5814  0.7413 -1.8553
 9424TIP3    H252468  -1.321   2.123  -4.738  0.5095  2.6784  1.5268
 9425TIP3   OH252469  -2.559   3.207  -4.757  0.5727  0.2619 -0.5010
 9425TIP3    H152470  -2.594   3.295  -4.771  2.7435  1.4444  0.8678
 9425TIP3    H252471  -2.607   3.152  -4.819 -2.7156  1.8780  0.3663
 9426TIP3   OH252472  -2.660   2.368  -5.399 -0.1679 -0.6610  0.2010
 9426TIP3    H152473  -2.717   2.299  -5.365  0.9245 -1.4711  0.4252
 9426TIP3    H252474  -2.626   2.411  -5.321  0.1039 -0.6630  0.0845
 9427TIP3   OH252475  -2.961   3.067  -2.665  0.1132  0.2095  0.3781
 9427TIP3    H152476  -2.911   3.017  -2.730  0.2198  0.6997  0.0734
 9427TIP3    H252477  -2.899   3.084  -2.595  0.2793  0.5197  0.1581
 9428TIP3   OH252478  -3.147  -3.105  -2.345  0.0345 -0.0669 -0.2294
 9428TIP3    H152479  -3.131  -3.081  -2.254  1.2112  1.4740 -0.8155
 9428TIP3    H252480  -3.234  -3.071  -2.364  0.7576  1.8047 -0.3638
 9429TIP3   OH252481  -0.291  -2.038  -4.644  0.2482  0.3059 -0.5613
 9429TIP3    H152482  -0.327  -2.078  -4.723 -0.9397  2.0529 -0.9806
 9429TIP3    H252483  -0.282  -1.945  -4.666  1.1188  0.6149  0.9412
 9430TIP3   OH252484   0.623  -0.467  -5.975  0.2804 -0.5080 -0.6747
 9430TIP3    H152485   0.688  -0.537  -5.966  0.3909 -0.6264 -2.1605
 9430TIP3    H252486   0.631  -0.439  -6.066 -0.8543  0.3763 -0.5192
 9431TIP3   OH252487   0.340  -2.024  -4.392 -0.1050  0.0221  0.1713
 9431TIP3    H152488   0.293  -2.069  -4.462 -0.3139  0.4176  0.0550
 9431TIP3    H252489   0.430  -2.055  -4.399 -0.6923 -2.1889  1.5752
 9432TIP3   OH252490  -1.512  -0.168  -5.072 -0.2240  0.3757  0.3539
 9432TIP3    H152491  -1.462  -0.110  -5.015  0.5851 -0.8023  0.8627
 9432TIP3    H252492  -1.584  -0.199  -5.018  1.0141 -1.4042  1.0514
 9433TIP3   OH252493   0.778   1.182  -3.654 -0.0955  0.1845  0.0275
 9433TIP3    H152494   0.816   1.234  -3.583  0.4796 -0.8195  0.4749
 9433TIP3    H252495   0.806   1.093  -3.636 -1.4590 -0.3699 -0.4750
 9434TIP3   OH252496   2.220  -3.169  -2.102  0.0660  0.4429 -0.2476
 9434TIP3    H152497   2.206  -3.262  -2.083  0.6242  0.0126 -1.8100
 9434TIP3    H252498   2.197  -3.124  -2.020  2.5268 -1.2656  1.5573
 9435TIP3   OH252499   0.491   2.322  -4.472  0.1612  0.3678 -0.1026
 9435TIP3    H152500   0.556   2.342  -4.405 -0.4752  0.0034  0.6460
 9435TIP3    H252501   0.416   2.289  -4.423 -0.8445  1.4123 -0.8851
 9436TIP3   OH252502   1.893  -1.342  -5.665 -0.0349  0.0662 -0.2768
 9436TIP3    H152503   1.882  -1.352  -5.570  1.3313 -1.4083 -0.2457
 9436TIP3    H252504   1.851  -1.258  -5.685  1.8652  1.7174  2.0515
 9437TIP3   OH252505   0.102  -0.050  -2.939  0.2885 -0.6083  0.4575
 9437TIP3    H152506   0.069   0.039  -2.955  1.2278 -0.5105 -1.2310
 9437TIP3    H252507   0.041  -0.087  -2.876 -0.5865  0.9732  0.5979
 9438TIP3   OH252508  -0.158  -3.136  -2.765  0.4557 -0.0205 -0.2205
 9438TIP3    H152509  -0.137  -3.212  -2.820  2.5135 -0.2743  0.8073
 9438TIP3    H252510  -0.170  -3.064  -2.827  1.4490 -0.5638 -1.0855
 9439TIP3   OH252511  -0.642   2.286  -4.995 -0.5779 -0.1371  0.3608
 9439TIP3    H152512  -0.589   2.336  -4.933 -0.3656 -0.3238  0.3310
 9439TIP3    H252513  -0.614   2.316  -5.081 -1.8566  1.1466  0.3532
 9440TIP3   OH252514  -1.510  -1.344  -4.874 -0.0540 -0.1572 -0.5791
 9440TIP3    H152515  -1.538  -1.312  -4.789  1.1745 -0.6361  0.0335
 9440TIP3    H252516  -1.445  -1.411  -4.854 -0.4535 -0.9716 -1.8817
 9441TIP3   OH252517   0.809   2.102  -3.069  0.5279  0.6934  0.2781
 9441TIP3    H152518   0.823   2.104  -3.163  1.0338 -0.2920  0.3169
 9441TIP3    H252519   0.896   2.089  -3.032  0.3744  1.3598  0.9015
 9442TIP3   OH252520   1.032   1.176  -3.030  0.3736 -0.1095 -0.1369
 9442TIP3    H152521   1.112   1.158  -2.980  0.1573  2.5259  1.3049
 9442TIP3    H252522   0.961   1.150  -2.971  0.1404  1.9481  0.5540
 9443TIP3   OH252523  -2.815  -1.089  -2.701  0.7395  0.0843  0.2047
 9443TIP3    H152524  -2.865  -1.028  -2.648  2.5533  1.6738  0.1985
 9443TIP3    H252525  -2.842  -1.176  -2.670 -1.0500  0.8962  1.0123
 9444TIP3   OH252526  -2.120  -1.923  -2.656 -1.0128 -0.2083  0.1455
 9444TIP3    H152527  -2.149  -1.859  -2.721  0.6304  0.9947  0.5501
 9444TIP3    H252528  -2.025  -1.921  -2.659 -0.9076 -1.5546  1.2389
 9445TIP3   OH252529   2.452   1.925  -3.598  0.4108  0.0890  0.3444
 9445TIP3    H152530   2.395   1.969  -3.660 -0.2914  0.2796  1.1065
 9445TIP3    H252531   2.395   1.902  -3.524  1.4642  1.0638  1.5149
 9446TIP3   OH252532   1.833  -0.715  -4.993  0.1614 -0.2657  0.0983
 9446TIP3    H152533   1.874  -0.691  -5.076  0.5198 -0.0649  0.3353
 9446TIP3    H252534   1.864  -0.651  -4.930  2.0126 -1.9237  0.9892
 9447TIP3   OH252535   2.696  -3.146  -5.409 -0.2031  0.3299  0.0627
 9447TIP3    H152536   2.731  -3.066  -5.370 -0.2622  0.8172 -0.8530
 9447TIP3    H252537   2.602  -3.133  -5.411 -0.5315 -1.0559  2.6850
 9448TIP3   OH252538  -1.256   1.361  -4.518 -1.1060 -0.4204 -0.1488
 9448TIP3    H152539  -1.252   1.453  -4.541 -0.1941 -0.6716 -1.0368
 9448TIP3    H252540  -1.332   1.327  -4.567 -1.4358 -0.1576  0.1731
 9449TIP3   OH252541   1.411  -1.906  -4.231  0.2955  0.8870  0.0048
 9449TIP3    H152542   1.503  -1.912  -4.205  1.6420  1.8550 -3.8892
 9449TIP3    H252543   1.382  -1.821  -4.197  0.6818  0.4556  1.4994
 9450TIP3   OH252544   0.916   2.097  -4.614  0.2365  0.4184  0.3106
 9450TIP3    H152545   0.849   2.157  -4.645 -0.3797  0.3486  1.4825
 9450TIP3    H252546   0.972   2.151  -4.558 -0.1740 -0.0401  1.1651
 9451TIP3   OH252547  -0.547  -1.287  -3.562 -1.0285 -0.2348  0.0742
 9451TIP3    H152548  -0.539  -1.351  -3.491  3.1771  1.7517  1.7712
 9451TIP3    H252549  -0.485  -1.318  -3.629 -1.3756  0.3803 -0.5365
 9452TIP3   OH252550  -2.191   1.145  -4.218 -0.3776  0.8017 -0.2848
 9452TIP3    H152551  -2.182   1.237  -4.243  1.5402  1.0930  1.2556
 9452TIP3    H252552  -2.174   1.143  -4.124 -4.3847 -0.6576  0.5886
 9453TIP3   OH252553  -2.058  -2.167  -4.875  0.0068 -0.5548 -0.0492
 9453TIP3    H152554  -2.045  -2.193  -4.966 -0.8782  0.5351 -0.5171
 9453TIP3    H252555  -2.152  -2.178  -4.861 -0.1855  1.0692  0.1228
 9454TIP3   OH252556  -2.877  -2.653  -4.918 -0.1159 -0.0114 -0.1750
 9454TIP3    H152557  -2.796  -2.694  -4.949  0.5945 -1.1904  2.8768
 9454TIP3    H252558  -2.852  -2.561  -4.904  0.3227 -0.0740 -0.5086
 9455TIP3   OH252559  -0.872  -2.967  -5.455 -0.5225 -0.2336  0.0063
 9455TIP3    H152560  -0.792  -2.934  -5.496 -0.5637  0.8148  0.7547
 9455TIP3    H252561  -0.943  -2.916  -5.496 -0.8768 -1.4086 -0.9276
 9456TIP3   OH252562  -0.281   1.812  -3.688  0.3533  0.5250  0.0083
 9456TIP3    H152563  -0.192   1.780  -3.673 -0.1126 -2.7162 -2.8696
 9456TIP3    H252564  -0.337   1.750  -3.640 -0.4019  0.5155 -0.8427
 9457TIP3   OH252565   1.422  -3.258  -3.372 -0.0028  0.3810  0.3587
 9457TIP3    H152566   1.377  -3.243  -3.455  0.2395  0.3245  0.2175
 9457TIP3    H252567   1.429  -3.354  -3.366 -2.4405  0.1991  1.7247
 9458TIP3   OH252568  -0.498   2.515  -4.851  0.6794 -0.0165 -0.1486
 9458TIP3    H152569  -0.440   2.454  -4.806 -0.0049 -0.5084  0.0801
 9458TIP3    H252570  -0.576   2.520  -4.796  0.1199 -0.0853 -0.9139
 9459TIP3   OH252571  -2.266   0.593  -5.504  0.6824  0.3534 -0.3712
 9459TIP3    H152572  -2.182   0.619  -5.543  1.0695  2.9451  1.8896
 9459TIP3    H252573  -2.257   0.614  -5.411 -1.6605 -1.5825  0.3806
 9460TIP3   OH252574  -2.378  -3.016  -3.748  0.0986  0.4051  0.0857
 9460TIP3    H152575  -2.301  -2.959  -3.753 -0.0756  0.7250  0.8680
 9460TIP3    H252576  -2.343  -3.104  -3.742  0.3915  0.5047 -0.1477
 9461TIP3   OH252577  -0.254  -1.991  -6.031  0.1552 -0.0226  0.2755
 9461TIP3    H152578  -0.294  -1.992  -5.944 -1.7870  1.4165 -0.5251
 9461TIP3    H252579  -0.264  -2.081  -6.062 -0.7103 -0.1501  0.8794
 9462TIP3   OH252580   0.174   2.095  -2.907 -0.4119 -0.0950  0.1078
 9462TIP3    H152581   0.203   2.150  -2.980  1.4074  0.2879  1.0443
 9462TIP3    H252582   0.081   2.114  -2.897 -0.1320  1.7338 -0.5052
 9463TIP3   OH252583   1.192  -2.730  -3.110 -0.0094  0.4873  0.9507
 9463TIP3    H152584   1.261  -2.794  -3.127  0.2522  0.3584  2.3495
 9463TIP3    H252585   1.112  -2.771  -3.143  0.5347  0.5930 -0.5966
 9464TIP3   OH252586  -1.750  -1.103  -4.063 -0.4947 -0.2631  0.2868
 9464TIP3    H152587  -1.739  -1.010  -4.084  0.6421 -0.3100  0.6598
 9464TIP3    H252588  -1.741  -1.108  -3.968  0.6808 -0.9096  0.1554
 9465TIP3   OH252589  -3.096  -0.970  -2.902 -0.2755  0.5406 -0.3555
 9465TIP3    H152590  -3.180  -1.013  -2.890 -1.1304  1.6622 -1.8908
 9465TIP3    H252591  -3.109  -0.881  -2.869  0.7794  0.3240  0.7284
 9466TIP3   OH252592   1.700   2.896  -3.156 -0.2295  0.2190  0.4363
 9466TIP3    H152593   1.719   2.990  -3.151 -1.9416  0.5508  1.8059
 9466TIP3    H252594   1.786   2.855  -3.165  0.4518  1.9730 -2.4644
 9467TIP3   OH252595   1.362  -1.867  -4.986  0.0368  0.0809  0.0655
 9467TIP3    H152596   1.397  -1.783  -5.015 -0.8109  0.6524  0.6433
 9467TIP3    H252597   1.434  -1.908  -4.939  0.7014  0.1397 -0.8861
 9468TIP3   OH252598  -1.602  -1.409  -3.091 -0.1907  0.4719  0.2096
 9468TIP3    H152599  -1.627  -1.494  -3.055  0.7918  0.2305  0.3632
 9468TIP3    H252600  -1.557  -1.365  -3.019  0.6499  0.5069 -0.3214
 9469TIP3   OH252601   0.180   2.216  -3.154  0.0495 -0.2642 -0.0760
 9469TIP3    H152602   0.251   2.192  -3.213 -0.4187 -0.3339 -0.6211
 9469TIP3    H252603   0.113   2.254  -3.211 -0.6327 -0.8162  0.3290
 9470TIP3   OH252604   2.718   3.196  -3.758 -0.0274  0.1864 -0.2713
 9470TIP3    H152605   2.739   3.191  -3.851  1.3711 -1.1382  0.0716
 9470TIP3    H252606   2.731   3.288  -3.734  0.7868  0.2973 -1.1258
 9471TIP3   OH252607   2.339   2.028  -4.337  0.0966 -0.3094  0.0145
 9471TIP3    H152608   2.396   2.062  -4.406  0.4259  1.8086  1.2437
 9471TIP3    H252609   2.368   1.938  -4.324  1.2689 -0.1575 -1.3118
 9472TIP3   OH252610   2.203  -3.191  -5.355 -0.3314 -0.5228 -0.6982
 9472TIP3    H152611   2.258  -3.258  -5.315 -1.5996 -0.9740  0.3855
 9472TIP3    H252612   2.175  -3.136  -5.281  0.5213  1.0935 -1.5414
 9473TIP3   OH252613  -2.431  -3.036  -3.440  0.0245  0.3867  0.5101
 9473TIP3    H152614  -2.387  -2.963  -3.483  0.8173  0.1178  0.8445
 9473TIP3    H252615  -2.383  -3.113  -3.470 -1.0292 -0.0385 -0.1230
 9474TIP3   OH252616   2.525  -2.468  -4.654  0.5105 -0.2232  0.3129
 9474TIP3    H152617   2.610  -2.496  -4.620  0.2469 -0.5487  0.7265
 9474TIP3    H252618   2.495  -2.543  -4.706  3.0532  1.8804 -4.9336
 9475TIP3   OH252619   3.124  -3.278  -4.869 -0.0217 -0.1229 -0.4136
 9475TIP3    H152620   3.203  -3.242  -4.909 -0.2687  0.9604  0.0482
 9475TIP3    H252621   3.066  -3.295  -4.943 -0.6784  2.3425 -0.5547
 9476TIP3   OH252622   0.776  -2.618  -4.682 -0.5271  0.0615  0.6187
 9476TIP3    H152623   0.838  -2.551  -4.711 -0.2792  0.1018  1.2307
 9476TIP3    H252624   0.699  -2.604  -4.736  0.3157 -0.5680 -0.8123
 9477TIP3   OH252625   3.328   1.489  -4.551  0.4607  0.3377  0.1386
 9477TIP3    H152626   3.260   1.502  -4.485 -0.2987 -0.3958 -0.4638
 9477TIP3    H252627   3.362   1.576  -4.569 -0.8360  0.8201 -0.0618
 9478TIP3   OH252628  -3.002  -0.384  -5.401 -0.4161  0.1951  0.1642
 9478TIP3    H152629  -2.972  -0.470  -5.427 -0.1369  0.8666 -1.9071
 9478TIP3    H252630  -3.000  -0.385  -5.305  0.5485 -1.7282  0.1549
 9479TIP3   OH252631  -1.433   1.589  -5.717 -0.1611 -0.1902 -0.2059
 9479TIP3    H152632  -1.355   1.540  -5.690 -1.1929 -1.3496  0.7774
 9479TIP3    H252633  -1.432   1.667  -5.663  0.4134 -0.0958 -0.3410
 9480TIP3   OH252634  -0.230   1.040  -3.274 -0.1209 -0.5413  0.1530
 9480TIP3    H152635  -0.157   1.094  -3.303 -1.6830  0.9634 -1.1874
 9480TIP3    H252636  -0.194   0.952  -3.266  1.5402 -0.0796 -1.7013
 9481TIP3   OH252637  -0.487  -0.989  -5.729 -0.0720  0.1617 -0.1048
 9481TIP3    H152638  -0.518  -0.950  -5.811  0.2235  0.3820 -0.1150
 9481TIP3    H252639  -0.517  -0.930  -5.661  0.2587  0.3341 -0.1087
 9482TIP3   OH252640   2.550  -0.830  -5.400  0.1157  0.3788  0.1829
 9482TIP3    H152641   2.635  -0.835  -5.356 -0.8724  0.3591  2.2106
 9482TIP3    H252642   2.563  -0.876  -5.483  1.9248 -0.1106  0.6986
 9483TIP3   OH252643   0.886  -1.584  -4.585 -0.6019 -0.3970  0.5187
 9483TIP3    H152644   0.819  -1.528  -4.623  0.2279  0.2025 -0.0836
 9483TIP3    H252645   0.846  -1.671  -4.584 -0.8944 -0.3244 -1.1542
 9484TIP3   OH252646  -2.353  -1.518  -4.680 -0.6975 -0.3128  0.2768
 9484TIP3    H152647  -2.429  -1.460  -4.679 -2.3267 -2.2947 -1.0119
 9484TIP3    H252648  -2.282  -1.462  -4.712 -1.9644  1.2145 -0.0108
 9485TIP3   OH252649  -1.984   2.651  -4.322 -0.0542  0.1347  0.1000
 9485TIP3    H152650  -1.947   2.601  -4.250  0.5664 -0.8310 -0.8619
 9485TIP3    H252651  -2.078   2.655  -4.304  0.3289  1.8104  2.0861
 9486TIP3   OH252652  -0.282  -1.207  -3.118  0.4536  0.6774 -0.2705
 9486TIP3    H152653  -0.273  -1.291  -3.162  2.5036  1.5370 -1.6586
 9486TIP3    H252654  -0.260  -1.225  -3.027  0.8143 -0.3209 -0.5416
 9487TIP3   OH252655  -1.471   1.770  -3.432 -0.1280  0.5516 -0.2981
 9487TIP3    H152656  -1.539   1.706  -3.453 -0.7222  1.4873 -1.3600
 9487TIP3    H252657  -1.517   1.854  -3.427  0.8762  1.1437 -0.6025
 9488TIP3   OH252658  -1.109   1.701  -2.714 -1.1729 -0.4415 -0.1031
 9488TIP3    H152659  -1.198   1.668  -2.701 -0.8839 -0.6972  1.5184
 9488TIP3    H252660  -1.054   1.642  -2.662 -0.1506  0.1360 -0.5063
 9489TIP3   OH252661   0.360   2.298  -5.137 -0.1422  0.2983 -0.4705
 9489TIP3    H152662   0.445   2.340  -5.124 -0.3643  0.6656 -0.2061
 9489TIP3    H252663   0.369   2.214  -5.092 -0.0156  0.4589 -0.1902
 9490TIP3   OH252664   0.229  -1.556  -4.802 -0.7244 -0.7537 -0.3935
 9490TIP3    H152665   0.140  -1.564  -4.835 -0.8143 -0.6478 -0.1746
 9490TIP3    H252666   0.283  -1.596  -4.870 -0.9982 -1.4710 -0.1944
 9491TIP3   OH252667  -0.709  -1.537  -2.135  0.5335  0.2756  0.1108
 9491TIP3    H152668  -0.621  -1.511  -2.107 -0.0342 -1.0073  3.5199
 9491TIP3    H252669  -0.749  -1.456  -2.167  3.4255  0.5751 -3.2810
 9492TIP3   OH252670   0.153   3.295  -4.183  0.9277 -0.4930  0.3824
 9492TIP3    H152671   0.247   3.299  -4.167  0.8099 -0.2402  1.0328
 9492TIP3    H252672   0.114   3.347  -4.113  0.3455  0.0042 -0.2950
 9493TIP3   OH252673   0.169   3.241  -5.205 -0.1066 -0.3344  0.1604
 9493TIP3    H152674   0.142   3.163  -5.254 -1.0846 -0.5104  0.9426
 9493TIP3    H252675   0.144   3.222  -5.115  2.5197 -0.4054  0.9415
 9494TIP3   OH252676  -0.072  -1.562  -3.836  0.3175 -0.3516  0.1934
 9494TIP3    H152677  -0.010  -1.572  -3.764  2.9442 -1.2653 -2.0062
 9494TIP3    H252678  -0.030  -1.500  -3.896 -0.6271 -1.3720 -1.6251
 9495TIP3   OH252679  -1.208  -1.654  -5.519  0.0101  0.2400 -0.1842
 9495TIP3    H152680  -1.177  -1.683  -5.605 -1.5406 -1.1224 -0.3377
 9495TIP3    H252681  -1.205  -1.559  -5.523 -0.1597  0.2008 -1.7937
 9496TIP3   OH252682   2.556   1.917  -5.083  0.1164 -0.9763 -0.2959
 9496TIP3    H152683   2.612   1.960  -5.147 -1.2695 -0.6354 -1.3163
 9496TIP3    H252684   2.575   1.962  -5.000  0.5807 -0.1625 -0.8318
 9497TIP3   OH252685  -2.178   1.672  -4.930 -0.2118 -0.0323  0.0803
 9497TIP3    H152686  -2.230   1.600  -4.894  0.7932 -0.3222  1.0315
 9497TIP3    H252687  -2.155   1.725  -4.854  0.3951  0.3915 -0.3900
 9498TIP3   OH252688  -0.148  -1.043  -3.737 -0.2413 -0.0233 -0.3895
 9498TIP3    H152689  -0.065  -1.016  -3.698  0.4292 -1.9402 -0.4026
 9498TIP3    H252690  -0.214  -0.990  -3.692  0.7230 -0.5788  1.7828
 9499TIP3   OH252691   2.607  -1.602  -4.221  0.1122  0.3944 -0.1474
 9499TIP3    H152692   2.563  -1.684  -4.244  1.6636 -0.2155 -1.1312
 9499TIP3    H252693   2.659  -1.624  -4.143  1.0910  0.2183 -0.8348
 9500TIP3   OH252694   2.550   2.360  -3.525  0.2046 -0.6672  0.1447
 9500TIP3    H152695   2.640   2.330  -3.534  0.2811 -0.0222 -1.5916
 9500TIP3    H252696   2.544   2.435  -3.584 -1.7691 -1.3920 -0.6682
 9501TIP3   OH252697   0.665  -0.892  -3.302 -0.3299 -0.5736 -0.0536
 9501TIP3    H152698   0.748  -0.848  -3.291 -0.5598 -0.1538  0.0217
 9501TIP3    H252699   0.652  -0.896  -3.397 -1.9092  2.6284 -0.1099
 9502TIP3   OH252700  -2.505  -3.246  -4.487  0.0080 -0.0295  0.2175
 9502TIP3    H152701  -2.429  -3.190  -4.503  0.8586 -1.1139  0.3499
 9502TIP3    H252702  -2.545  -3.257  -4.573 -0.2785  0.9096  0.2174
 9503TIP3   OH252703   1.813   1.168  -5.510  0.1567 -0.0376 -0.4458
 9503TIP3    H152704   1.843   1.105  -5.575  0.1535  0.8292 -1.3077
 9503TIP3    H252705   1.867   1.149  -5.432  0.8467 -0.4541 -1.0088
 9504TIP3   OH252706   0.800  -0.616  -4.057  0.1024  0.0430 -0.4470
 9504TIP3    H152707   0.751  -0.587  -4.134  0.0185  0.5136 -0.2192
 9504TIP3    H252708   0.779  -0.709  -4.048 -1.4533  0.4310  0.1820
 9505TIP3   OH252709  -2.850   2.262  -4.982 -0.6715  0.5489  0.0073
 9505TIP3    H152710  -2.808   2.299  -4.905  0.2036  0.6066 -0.4924
 9505TIP3    H252711  -2.939   2.242  -4.953  0.0228 -0.6683  1.4192
 9506TIP3   OH252712  -0.262  -0.013  -3.833 -0.0641  0.8745 -0.1581
 9506TIP3    H152713  -0.297   0.062  -3.881 -0.1545  0.7837 -0.2330
 9506TIP3    H252714  -0.181   0.021  -3.794 -0.8981  1.4687  1.1250
 9507TIP3   OH252715  -1.525  -1.848  -4.588 -0.5186  0.1935  0.6064
 9507TIP3    H152716  -1.570  -1.930  -4.569  2.2428 -1.3752  0.7579
 9507TIP3    H252717  -1.541  -1.834  -4.682  2.1330 -2.7175 -0.4482
 9508TIP3   OH252718  -0.586  -3.106  -4.501  0.0969  0.2086  0.0288
 9508TIP3    H152719  -0.640  -3.110  -4.580 -0.3810 -2.5941  0.3943
 9508TIP3    H252720  -0.511  -3.053  -4.526 -1.0688  1.1932 -1.6165
 9509TIP3   OH252721  -2.276   1.756  -3.466 -0.6104  0.2339 -0.4889
 9509TIP3    H152722  -2.262   1.712  -3.550  0.5395 -1.1981  0.3912
 9509TIP3    H252723  -2.188   1.775  -3.435 -1.0711  2.3885 -0.4046
 9510TIP3   OH252724  -0.159  -2.756  -4.302  0.2772  0.0515  0.5682
 9510TIP3    H152725  -0.253  -2.736  -4.301  0.2464 -0.1038  1.0111
 9510TIP3    H252726  -0.148  -2.818  -4.374 -0.0254 -0.2275  0.7580
 9511TIP3   OH252727  -1.220  -1.038  -4.272 -0.1290 -0.3195  1.1536
 9511TIP3    H152728  -1.138  -0.992  -4.249  0.6257 -1.2425  0.3818
 9511TIP3    H252729  -1.231  -1.103  -4.202  1.2018 -1.9121 -0.0369
 9512TIP3   OH252730   1.477   0.787  -4.392 -0.5057 -0.1194  0.0036
 9512TIP3    H152731   1.553   0.808  -4.446  0.2934  0.3321  1.2582
 9512TIP3    H252732   1.439   0.873  -4.371 -0.8504 -0.2939  0.0966
 9513TIP3   OH252733   3.075  -0.037  -2.987 -0.0341  0.0836  0.3249
 9513TIP3    H152734   3.060   0.057  -2.990  2.3213  0.5140  0.1374
 9513TIP3    H252735   3.054  -0.068  -3.075 -1.0915  0.3530  0.4647
 9514TIP3   OH252736  -2.715   0.473  -3.074 -0.2229  0.4476  0.3359
 9514TIP3    H152737  -2.710   0.405  -3.007 -1.7372  0.6738  0.7185
 9514TIP3    H252738  -2.625   0.483  -3.105  0.4397  0.0522  2.0377
 9515TIP3   OH252739   2.138  -0.563  -4.340  0.2008 -0.2523  0.1601
 9515TIP3    H152740   2.223  -0.590  -4.305  0.1231 -1.0782 -0.2738
 9515TIP3    H252741   2.156  -0.480  -4.385  1.1401 -1.2107 -1.3327
 9516TIP3   OH252742  -0.873   2.933  -2.342  0.0040  0.2376 -0.0622
 9516TIP3    H152743  -0.816   2.919  -2.266 -0.0855  1.1117  0.1800
 9516TIP3    H252744  -0.813   2.950  -2.414  0.0963 -0.8138 -0.2453
 9517TIP3   OH252745  -0.132  -2.565  -2.380 -0.0512 -0.0230 -0.2393
 9517TIP3    H152746  -0.167  -2.487  -2.423 -0.2677  0.5546  0.9502
 9517TIP3    H252747  -0.174  -2.566  -2.294 -1.1827 -2.2703 -0.7591
 9518TIP3   OH252748  -1.552  -3.261  -5.005  0.3707 -0.4140 -0.1735
 9518TIP3    H152749  -1.614  -3.320  -4.964  0.0119  0.4678  0.6069
 9518TIP3    H252750  -1.574  -3.262  -5.098  1.5727 -2.9050 -0.4891
 9519TIP3   OH252751  -1.910   1.066  -3.144 -0.5570 -0.1887 -0.1263
 9519TIP3    H152752  -1.951   1.089  -3.061 -2.1830  0.7318 -1.1440
 9519TIP3    H252753  -1.925   1.142  -3.200  3.1318  0.5200 -0.4187
 9520TIP3   OH252754   2.225  -0.810  -5.174 -0.0842 -0.0577 -0.4131
 9520TIP3    H152755   2.315  -0.789  -5.150 -0.1040  0.0665 -0.4463
 9520TIP3    H252756   2.229  -0.828  -5.268 -0.3212  1.2619 -0.6922
 9521TIP3   OH252757  -3.155  -1.086  -2.253 -0.4742  0.0572  0.2256
 9521TIP3    H152758  -3.241  -1.120  -2.275 -0.6244  1.0732 -0.8392
 9521TIP3    H252759  -3.100  -1.109  -2.328 -0.4552  1.6174 -0.2861
 9522TIP3   OH252760  -1.219  -0.596  -3.260  0.1489  0.0127  0.1681
 9522TIP3    H152761  -1.258  -0.509  -3.262 -0.5984 -0.3038  0.6660
 9522TIP3    H252762  -1.284  -0.651  -3.216  0.7388 -0.7355  0.1297
 9523TIP3   OH252763   1.607   3.011  -5.555  0.1432 -0.3025 -0.0302
 9523TIP3    H152764   1.561   3.095  -5.551 -0.9254 -0.8949  0.7493
 9523TIP3    H252765   1.536   2.946  -5.562  0.8253 -1.2821  1.6925
 9524TIP3   OH252766  -1.147  -2.120  -4.332 -0.1644  0.1152  0.0599
 9524TIP3    H152767  -1.228  -2.068  -4.337 -0.4278 -0.2769  0.1327
 9524TIP3    H252768  -1.124  -2.119  -4.239  0.8448  1.6034 -0.1811
 9525TIP3   OH252769  -2.136   0.411  -5.225  0.0029 -0.3092  0.6274
 9525TIP3    H152770  -2.213   0.386  -5.173 -0.1163  0.2755  0.7448
 9525TIP3    H252771  -2.065   0.356  -5.192 -0.1928 -0.3094  1.0538
 9526TIP3   OH252772  -2.392  -0.511  -5.705  0.6266  0.3800 -0.4234
 9526TIP3    H152773  -2.352  -0.432  -5.740  0.8859  0.7776  0.7569
 9526TIP3    H252774  -2.470  -0.481  -5.658  1.0062  0.0028  0.4732
 9527TIP3   OH252775  -1.528  -2.108  -2.132 -0.9512 -0.1725 -0.0896
 9527TIP3    H152776  -1.487  -2.101  -2.046  0.0791 -1.1589 -0.4761
 9527TIP3    H252777  -1.585  -2.031  -2.138 -0.1788  0.5139  1.0122
 9528TIP3   OH252778   0.054  -3.233  -4.606 -0.2515 -0.5363  0.0794
 9528TIP3    H152779   0.136  -3.216  -4.561  0.3241 -0.2313 -1.0451
 9528TIP3    H252780   0.015  -3.307  -4.559  0.0310  0.1335  1.4123
 9529TIP3   OH252781  -2.924   0.860  -3.375 -0.2008  0.2060 -0.3752
 9529TIP3    H152782  -2.882   0.898  -3.298 -0.3679  0.8306 -0.5872
 9529TIP3    H252783  -2.990   0.801  -3.340 -0.0243  0.2051 -0.0396
 9530TIP3   OH252784   1.956  -2.406  -5.948 -0.3532  0.0944 -0.4718
 9530TIP3    H152785   1.929  -2.360  -6.027 -0.4269  0.9885  0.0600
 9530TIP3    H252786   1.994  -2.338  -5.892 -0.5207 -0.4779  0.3610
 9531TIP3   OH252787   0.727   0.288  -2.893  0.0435 -0.0559  0.6306
 9531TIP3    H152788   0.676   0.221  -2.848 -1.1352 -0.7825 -1.6144
 9531TIP3    H252789   0.797   0.240  -2.937  0.1905  0.4064  0.3467
 9532TIP3   OH252790  -3.037   2.794  -4.123  0.0146  0.4977  0.3951
 9532TIP3    H152791  -3.061   2.769  -4.034 -0.2233 -0.5941  0.0433
 9532TIP3    H252792  -3.027   2.889  -4.120 -1.9600  0.7278  1.1294
 9533TIP3   OH252793  -0.614   1.535  -4.935  0.0166 -0.6698  0.1788
 9533TIP3    H152794  -0.663   1.515  -5.014  1.3035 -0.2809 -0.7551
 9533TIP3    H252795  -0.566   1.615  -4.956 -0.8991  0.4160  1.9523
 9534TIP3   OH252796   1.296  -2.973  -5.382  0.0885 -0.1490  0.4257
 9534TIP3    H152797   1.390  -2.986  -5.392  0.3404  2.1359 -0.7275
 9534TIP3    H252798   1.273  -3.025  -5.305  1.9983 -1.9029 -0.1156
 9535TIP3   OH252799  -3.216   1.322  -5.267 -0.6522  0.2281  0.1670
 9535TIP3    H152800  -3.300   1.359  -5.293 -0.8292 -0.0196  0.3745
 9535TIP3    H252801  -3.174   1.296  -5.349 -1.9595 -2.1771  0.1818
 9536TIP3   OH252802   1.775  -3.253  -2.468 -0.6969 -0.2815 -0.0731
 9536TIP3    H152803   1.703  -3.265  -2.530 -1.4979 -1.3447  1.0177
 9536TIP3    H252804   1.763  -3.323  -2.405  0.4020  0.4722  0.9956
 9537TIP3   OH252805   2.956   0.304  -4.069 -0.1483  0.2389  0.1556
 9537TIP3    H152806   2.899   0.279  -3.997  0.1083  1.1800  0.7070
 9537TIP3    H252807   2.898   0.308  -4.145 -1.0160  1.9320  0.8516
 9538TIP3   OH252808  -0.499  -2.854  -3.432  0.1542 -0.1730 -0.4284
 9538TIP3    H152809  -0.490  -2.880  -3.340 -0.6036  0.9146 -0.0249
 9538TIP3    H252810  -0.562  -2.783  -3.430  0.1376 -0.1340 -1.8075
 9539TIP3   OH252811   2.357  -1.063  -5.304 -0.1970 -0.3473  0.1728
 9539TIP3    H152812   2.432  -1.028  -5.257 -1.3191  0.9109  1.1040
 9539TIP3    H252813   2.298  -1.095  -5.236 -0.3312 -1.7342 -0.5616
 9540TIP3   OH252814   0.784   3.034  -4.515  0.2349 -0.1333 -0.5012
 9540TIP3    H152815   0.808   3.100  -4.450 -0.5523 -0.3191 -0.0111
 9540TIP3    H252816   0.694   3.057  -4.540  0.2216 -0.5854 -0.8807
 9541TIP3   OH252817   2.995   1.788  -4.119  0.1668 -0.1678  0.2750
 9541TIP3    H152818   3.074   1.767  -4.168 -0.1017  0.5181 -0.4743
 9541TIP3    H252819   3.008   1.878  -4.088  0.4310 -0.6683  1.6835
 9542TIP3   OH252820  -2.443   2.794  -4.520 -0.1439 -0.5077 -0.3902
 9542TIP3    H152821  -2.365   2.769  -4.569  1.5182  1.1025  1.2710
 9542TIP3    H252822  -2.503   2.830  -4.586  0.9135 -0.8472 -1.5640
 9543TIP3   OH252823  -2.770  -0.571  -4.606 -0.0865  0.2993  0.4296
 9543TIP3    H152824  -2.806  -0.531  -4.685  1.0717  0.2166 -0.1617
 9543TIP3    H252825  -2.744  -0.659  -4.632 -1.5184 -0.4519  1.4252
 9544TIP3   OH252826  -1.981   1.600  -3.623  0.0749  0.1487  0.6408
 9544TIP3    H152827  -2.000   1.616  -3.715  3.4702  0.9040 -0.0803
 9544TIP3    H252828  -1.988   1.505  -3.613  0.8626 -0.0852 -0.7591
 9545TIP3   OH252829  -0.692  -2.176  -3.177  0.3188  0.1171  0.2794
 9545TIP3    H152830  -0.708  -2.100  -3.233  0.6575  0.4742  0.6537
 9545TIP3    H252831  -0.735  -2.249  -3.221  2.3939 -0.0707 -1.6207
 9546TIP3   OH252832   0.329  -2.547  -3.010  0.4453  0.2261 -0.6378
 9546TIP3    H152833   0.311  -2.507  -3.095 -0.5756  1.4576  0.1219
 9546TIP3    H252834   0.417  -2.516  -2.987 -0.4375  2.3963  0.0676
 9547TIP3   OH252835  -0.262  -0.908  -4.091  0.0566 -0.3773 -0.6211
 9547TIP3    H152836  -0.167  -0.909  -4.104  0.2356  0.4454  0.4002
 9547TIP3    H252837  -0.287  -0.817  -4.109 -0.2425 -0.1548  0.7508
 9548TIP3   OH252838  -1.513  -2.865  -5.016  0.6372  0.6187  0.1936
 9548TIP3    H152839  -1.533  -2.885  -4.925  2.3576 -2.4877  0.0299
 9548TIP3    H252840  -1.451  -2.793  -5.012  0.0940  1.0484  1.3999
 9549TIP3   OH252841  -0.911   0.519  -3.605  0.4633  0.4866  0.4168
 9549TIP3    H152842  -0.866   0.596  -3.571  0.9637  0.7654 -0.8172
 9549TIP3    H252843  -0.849   0.481  -3.667 -0.0788 -0.4916  0.4515
 9550TIP3   OH252844  -1.435   1.506  -4.199  0.0423  0.1311  0.7531
 9550TIP3    H152845  -1.383   1.585  -4.189  1.2781 -0.6692  0.8114
 9550TIP3    H252846  -1.451   1.476  -4.109 -1.4376  0.9318  0.7861
 9551TIP3   OH252847   0.162  -2.515  -3.789  0.6533  0.5735  0.0371
 9551TIP3    H152848   0.162  -2.476  -3.702 -0.8604  1.1333 -0.1801
 9551TIP3    H252849   0.186  -2.443  -3.848  0.5256  0.4904 -0.1165
 9552TIP3   OH252850  -2.268  -3.082  -4.261  0.3746  0.5256  0.4835
 9552TIP3    H152851  -2.200  -3.125  -4.311  1.2924  0.9247  1.3550
 9552TIP3    H252852  -2.229  -3.000  -4.232 -0.9477  1.4221 -0.1676
 9553TIP3   OH252853   1.203   2.848  -4.032 -0.4229 -0.9700  0.2208
 9553TIP3    H152854   1.186   2.860  -4.126 -2.7588  0.5846  0.7641
 9553TIP3    H252855   1.274   2.909  -4.013 -0.7833 -0.3778 -0.3040
 9554TIP3   OH252856  -0.167   2.195  -4.183 -0.2594  0.4525 -0.6031
 9554TIP3    H152857  -0.241   2.144  -4.214  0.6399 -1.8139  0.7657
 9554TIP3    H252858  -0.205   2.253  -4.116 -1.0583  0.6463 -1.2023
 9555TIP3   OH252859   1.852  -2.944  -3.897  0.2057 -0.3188  0.0572
 9555TIP3    H152860   1.791  -2.929  -3.825 -0.1474 -0.1444 -0.2735
 9555TIP3    H252861   1.868  -2.857  -3.933  0.1751 -0.4359 -0.2385
 9556TIP3   OH252862   0.197   1.426  -3.804  0.1617 -0.6364  0.0315
 9556TIP3    H152863   0.169   1.450  -3.716 -2.9533 -0.0515 -1.0281
 9556TIP3    H252864   0.164   1.495  -3.860  2.2421 -0.9013 -1.6670
 9557TIP3   OH252865  -0.414  -2.272  -3.508 -0.1422 -0.1915 -0.4322
 9557TIP3    H152866  -0.463  -2.304  -3.433 -0.7929 -0.8356 -1.1271
 9557TIP3    H252867  -0.462  -2.303  -3.585  1.0256 -0.3629 -1.1302
 9558TIP3   OH252868   0.064   3.074  -3.726 -0.1459 -0.3923 -0.2632
 9558TIP3    H152869   0.006   2.999  -3.741  0.3678 -0.7309 -0.5963
 9558TIP3    H252870   0.032   3.141  -3.785 -0.7054 -0.2936  0.1472
 9559TIP3   OH252871  -0.214   1.426  -4.248 -0.4461 -0.0927  0.5758
 9559TIP3    H152872  -0.232   1.402  -4.338  3.2808 -1.0486 -0.0808
 9559TIP3    H252873  -0.163   1.507  -4.254  1.2750 -1.0303  1.6257
 9560TIP3   OH252874   2.211  -3.209  -2.718  0.3899  0.4390  0.2790
 9560TIP3    H152875   2.144  -3.193  -2.652  1.9549 -0.7376  2.2494
 9560TIP3    H252876   2.233  -3.301  -2.708  1.7593  0.6102 -0.8698
 9561TIP3   OH252877   0.574   2.154  -4.114 -0.1649  0.1937  0.1781
 9561TIP3    H152878   0.482   2.170  -4.136 -0.4766 -2.3581 -0.7713
 9561TIP3    H252879   0.623   2.208  -4.176 -1.0481  0.0378 -0.6777
 9562TIP3   OH252880  -1.238  -3.025  -4.888 -0.1713  0.4123  0.2647
 9562TIP3    H152881  -1.239  -3.115  -4.855 -0.6815  0.1530 -0.4288
 9562TIP3    H252882  -1.321  -3.016  -4.935 -1.1001  1.9267  2.0859
 9563TIP3   OH252883   3.287   1.350  -4.897 -0.0030 -0.4902 -0.3631
 9563TIP3    H152884   3.356   1.413  -4.878 -0.6018 -0.2705  1.2900
 9563TIP3    H252885   3.327   1.287  -4.957  1.4899 -0.1268  0.2215
 9564TIP3   OH252886   1.685   1.010  -4.752  0.2764  0.1926 -0.2250
 9564TIP3    H152887   1.700   1.044  -4.663  1.4230  0.6654 -0.5766
 9564TIP3    H252888   1.705   1.085  -4.809 -0.4368 -0.1118 -0.8854
 9565TIP3   OH252889   1.431   0.891  -5.641 -0.3582  0.4101 -0.1510
 9565TIP3    H152890   1.509   0.848  -5.675 -1.6405 -1.0646 -1.3554
 9565TIP3    H252891   1.464   0.972  -5.601  1.6946  0.1337 -1.1577
 9566TIP3   OH252892  -2.011   1.145  -3.476  0.0184  0.2447 -0.5632
 9566TIP3    H152893  -1.968   1.193  -3.405  0.4024 -1.4009  0.3879
 9566TIP3    H252894  -1.955   1.068  -3.490 -0.9532 -0.3237 -1.4994
 9567TIP3   OH252895  -1.480  -3.255  -1.889  0.3667 -0.2604 -0.3769
 9567TIP3    H152896  -1.542  -3.196  -1.933  2.5298  0.7585 -2.2300
 9567TIP3    H252897  -1.420  -3.197  -1.843  0.1207 -1.2335  1.2435
 9568TIP3   OH252898  -1.552  -2.248  -5.549 -0.1720 -0.0633 -0.3306
 9568TIP3    H152899  -1.502  -2.167  -5.539 -0.6771  0.2486 -0.3200
 9568TIP3    H252900  -1.534  -2.277  -5.638 -0.4075  0.3420 -0.5115
 9569TIP3   OH252901  -2.374  -2.612  -5.568  0.5728  0.1211 -0.2381
 9569TIP3    H152902  -2.375  -2.706  -5.547  1.7306 -0.2431 -1.6273
 9569TIP3    H252903  -2.321  -2.606  -5.648  0.3780  1.9514 -0.2740
 9570TIP3   OH252904  -2.298  -0.934  -4.092 -0.5362  0.1454  0.0524
 9570TIP3    H152905  -2.321  -1.027  -4.096  0.4303 -0.0812 -0.6755
 9570TIP3    H252906  -2.346  -0.894  -4.164 -0.9959  0.2324  0.3998
 9571TIP3   OH252907   3.056   1.103  -5.054 -0.2370  0.2128  0.5132
 9571TIP3    H152908   3.150   1.091  -5.039 -0.4487 -0.5252  1.3818
 9571TIP3    H252909   3.047   1.113  -5.148  0.7949  1.0858  0.4947
 9572TIP3   OH252910  -2.963   1.942  -4.121 -0.2175  0.1513  0.4196
 9572TIP3    H152911  -2.920   1.866  -4.158 -0.4901  0.4585 -0.5910
 9572TIP3    H252912  -3.045   1.908  -4.084 -0.2259 -0.0817  0.1891
 9573TIP3   OH252913   2.453   2.816  -2.741  0.6655  0.0984 -0.5965
 9573TIP3    H152914   2.493   2.895  -2.778 -0.0308  0.8181  0.1472
 9573TIP3    H252915   2.522   2.751  -2.745  0.7579  0.2369 -2.7786
 9574TIP3   OH252916   0.163   2.558  -3.139 -0.2147 -0.1061 -0.5693
 9574TIP3    H152917   0.070   2.541  -3.151 -0.1882 -0.7374  0.0520
 9574TIP3    H252918   0.205   2.473  -3.151  0.1080 -0.1609  0.7745
 9575TIP3   OH252919   1.361  -2.971  -3.082  0.6250  0.5946 -0.3948
 9575TIP3    H152920   1.306  -3.022  -3.140 -0.1373  1.1466 -0.1731
 9575TIP3    H252921   1.449  -2.977  -3.120  0.9604 -2.3597  0.6022
 9576TIP3   OH252922   3.328   0.139  -4.196 -0.7878  0.2700  0.0647
 9576TIP3    H152923   3.331   0.088  -4.277 -0.8715 -0.2778  0.3999
 9576TIP3    H252924   3.336   0.074  -4.126  0.6802  0.8544  0.4753
 9577TIP3   OH252925  -1.614   0.842  -4.384  0.3939 -0.3648  0.1578
 9577TIP3    H152926  -1.538   0.788  -4.364 -0.6748 -2.5025 -1.1560
 9577TIP3    H252927  -1.595   0.879  -4.470 -0.0557 -1.0065 -0.2321
 9578TIP3   OH252928   2.308   2.153  -5.141  0.6979  0.0971 -1.1857
 9578TIP3    H152929   2.314   2.124  -5.050  0.5172 -0.1504 -1.2511
 9578TIP3    H252930   2.398   2.152  -5.172  0.7301 -0.0832 -1.0895
 9579TIP3   OH252931  -3.012   1.241  -3.983  0.0939 -0.5005  0.0748
 9579TIP3    H152932  -3.066   1.208  -3.911 -0.8954 -0.1205 -0.4715
 9579TIP3    H252933  -3.063   1.220  -4.062  0.8134 -0.2470 -0.4599
 9580TIP3   OH252934   2.369   0.077  -5.646  0.5731 -0.5138  0.6132
 9580TIP3    H152935   2.311   0.002  -5.631  0.3974 -0.3633  0.6852
 9580TIP3    H252936   2.356   0.134  -5.570  1.2775 -0.7736  0.9428
 9581TIP3   OH252937  -1.015  -1.996  -4.791  0.2425 -0.3257  0.1417
 9581TIP3    H152938  -0.987  -1.916  -4.837  0.5202  0.4038  1.5213
 9581TIP3    H252939  -0.956  -2.064  -4.824 -0.7349 -0.2685 -1.9160
 9582TIP3   OH252940  -1.138   1.339  -5.166 -0.0539 -0.4671  0.1415
 9582TIP3    H152941  -1.114   1.331  -5.074  0.5059  1.0561  0.1449
 9582TIP3    H252942  -1.223   1.382  -5.166 -0.5703 -1.4442 -0.0425
 9583TIP3   OH252943   0.140  -3.013  -3.104  0.1490 -0.3301  0.5027
 9583TIP3    H152944   0.213  -3.070  -3.083  1.9507  2.0028  1.0208
 9583TIP3    H252945   0.162  -2.977  -3.191 -1.3495 -0.9885 -0.1850
 9584TIP3   OH252946   3.315  -1.440  -4.663 -0.5668  0.1780  0.2216
 9584TIP3    H152947   3.289  -1.525  -4.697 -0.5191  0.3684 -0.2974
 9584TIP3    H252948   3.409  -1.435  -4.678 -0.0438 -0.7512  2.6213
 9585TIP3   OH252949   0.388   0.786  -5.360  0.1926  0.2481  0.1311
 9585TIP3    H152950   0.319   0.849  -5.340  0.0408  0.1302 -0.0223
 9585TIP3    H252951   0.360   0.745  -5.442  1.1437  1.1964 -0.6934
 9586TIP3   OH252952  -0.827  -1.628  -3.822  0.9267  0.1758 -0.0582
 9586TIP3    H152953  -0.862  -1.600  -3.906 -1.7401 -2.4421 -0.0037
 9586TIP3    H252954  -0.793  -1.716  -3.838 -0.6013 -0.8323  1.7019
 9587TIP3   OH252955  -1.765  -0.923  -4.419 -0.1609  0.2863 -0.1147
 9587TIP3    H152956  -1.695  -0.898  -4.358 -1.7774  2.2684  1.0473
 9587TIP3    H252957  -1.784  -1.014  -4.398  0.4725  0.4248  1.1728
 9588TIP3   OH252958  -1.835  -1.377  -3.935 -0.1560 -0.0303  0.6929
 9588TIP3    H152959  -1.789  -1.404  -4.015  0.6827  1.7533  0.5202
 9588TIP3    H252960  -1.923  -1.356  -3.964 -1.2380 -3.4884  1.0252
 9589TIP3   OH252961  -2.975  -2.799  -4.010  0.8688 -0.2115  0.2472
 9589TIP3    H152962  -2.925  -2.762  -3.938  0.3230  1.8303 -0.3490
 9589TIP3    H252963  -3.066  -2.794  -3.982  0.6131  1.0549 -0.7419
 9590TIP3   OH252964  -2.406   2.116  -4.637  0.3929 -0.1123  0.0573
 9590TIP3    H152965  -2.486   2.122  -4.586 -0.6323  1.7431 -1.6126
 9590TIP3    H252966  -2.349   2.183  -4.601  0.7342 -0.6123  0.4614
 9591TIP3   OH252967  -2.131  -3.264  -5.891 -0.7147  0.0105  0.0311
 9591TIP3    H152968  -2.165  -3.347  -5.857 -0.8381  0.0632  0.0369
 9591TIP3    H252969  -2.208  -3.221  -5.929 -0.8203  0.5136  0.8093
 9592TIP3   OH252970  -2.302   1.220  -2.808  0.6551  0.6284 -0.0698
 9592TIP3    H152971  -2.388   1.180  -2.822  1.2650 -1.3104  1.2866
 9592TIP3    H252972  -2.321   1.312  -2.790 -1.0670  0.3878 -0.4653
 9593TIP3   OH252973   3.011   1.362  -4.553  0.0910  0.0496  0.2253
 9593TIP3    H152974   3.074   1.290  -4.554  0.8086  0.6686  0.0230
 9593TIP3    H252975   3.042   1.421  -4.621  0.1855  1.1307  1.1917
 9594TIP3   OH252976   0.826  -1.446  -2.752  0.1229 -0.1953  0.2051
 9594TIP3    H152977   0.849  -1.431  -2.660  1.6243  2.1237 -0.4742
 9594TIP3    H252978   0.730  -1.440  -2.754  0.1196  0.4912  1.4972
 9595TIP3   OH252979  -3.308  -1.193  -5.919 -0.0823 -0.1291 -0.4721
 9595TIP3    H152980  -3.269  -1.269  -5.961 -0.4321 -2.0322  2.3730
 9595TIP3    H252981  -3.292  -1.206  -5.825 -2.0982  2.1611  0.3079
 9596TIP3   OH252982   1.864   0.342  -4.811  0.2624 -0.5852 -0.2423
 9596TIP3    H152983   1.877   0.268  -4.870  0.8461  0.9870 -2.1746
 9596TIP3    H252984   1.770   0.358  -4.813  0.1850 -1.0227 -0.1298
 9597TIP3   OH252985   0.963  -0.010  -4.119 -0.0158 -0.0480  0.1785
 9597TIP3    H152986   1.027  -0.070  -4.158  0.3210  0.6511 -0.3708
 9597TIP3    H252987   0.988   0.076  -4.153 -0.6309  0.3695  0.7744
 9598TIP3   OH252988  -1.373  -2.897  -2.172  0.2243  0.2124 -0.4310
 9598TIP3    H152989  -1.391  -2.812  -2.212 -2.8255 -1.1139 -2.2831
 9598TIP3    H252990  -1.456  -2.921  -2.130  1.4687 -1.2533  1.3578
 9599TIP3   OH252991   3.170   3.005  -2.930  0.0032 -0.2491 -0.2458
 9599TIP3    H152992   3.098   3.007  -2.867  0.5029  0.3339  0.3088
 9599TIP3    H252993   3.188   3.097  -2.949  2.1419 -0.2581  1.4015
 9600TIP3   OH252994  -1.196   0.733  -5.254 -0.1008 -0.9319 -0.1219
 9600TIP3    H152995  -1.218   0.820  -5.220  0.3450 -0.9408  0.1978
 9600TIP3    H252996  -1.271   0.709  -5.309 -0.2404 -0.3584 -0.1906
 9601TIP3   OH252997  -1.534   1.214  -2.974 -0.2002  0.2069  0.2656
 9601TIP3    H152998  -1.503   1.303  -2.958 -0.3565  0.0356  1.6645
 9601TIP3    H252999  -1.502   1.193  -3.061 -0.7956  1.9085 -0.4122
 9602TIP3   OH253000  -2.897   0.641  -3.884  0.5845  0.2796 -0.1195
 9602TIP3    H153001  -2.870   0.729  -3.856  0.4145  0.0991  0.6268
 9602TIP3    H253002  -2.965   0.657  -3.949  0.1759  0.7017  0.4045
 9603TIP3   OH253003  -0.293  -1.543  -4.025 -0.1712  0.3614  0.2840
 9603TIP3    H153004  -0.213  -1.529  -3.975  0.5299 -1.9606 -0.0647
 9603TIP3    H253005  -0.341  -1.611  -3.976 -1.5989  1.1795  0.0958
 9604TIP3   OH253006  -2.606  -1.951  -2.139 -0.4189 -0.0740  0.0489
 9604TIP3    H153007  -2.640  -1.866  -2.111  0.0091  0.4228 -0.8774
 9604TIP3    H253008  -2.607  -1.947  -2.234 -2.3247 -1.9032 -0.0922
 9605TIP3   OH253009  -1.346   0.613  -3.970 -0.3365 -0.2808 -0.2457
 9605TIP3    H153010  -1.359   0.552  -4.043  1.5927 -0.3634 -0.5475
 9605TIP3    H253011  -1.434   0.621  -3.931 -1.0685 -1.5465 -1.5180
 9606TIP3   OH253012   0.927  -1.638  -5.784 -0.5298 -0.1959  0.0558
 9606TIP3    H153013   1.018  -1.656  -5.758 -0.8206  0.4296  1.6346
 9606TIP3    H253014   0.881  -1.720  -5.765 -0.3907 -0.3449 -0.2489
 9607TIP3   OH253015   2.523  -0.544  -5.330 -0.0709 -0.4280  0.2688
 9607TIP3    H153016   2.503  -0.627  -5.286 -0.1298  0.7985  2.7345
 9607TIP3    H253017   2.614  -0.553  -5.357 -0.3976 -1.6902 -0.5060
 9608TIP3   OH253018   2.470  -3.077  -4.266  0.0511  0.1205  0.0335
 9608TIP3    H153019   2.418  -3.064  -4.345  0.5982  0.4930 -0.2767
 9608TIP3    H253020   2.500  -3.168  -4.271  0.8379  0.4011 -0.6699
 9609TIP3   OH253021  -1.176  -1.662  -3.903  0.1717  0.2438 -0.5414
 9609TIP3    H153022  -1.262  -1.642  -3.867 -0.3504 -1.1513 -0.9412
 9609TIP3    H253023  -1.180  -1.632  -3.993 -0.2815 -0.7278 -0.8638
 9610TIP3   OH253024  -1.712  -3.276  -5.780  0.3867  0.4567 -0.5357
 9610TIP3    H153025  -1.749  -3.327  -5.852 -1.9701 -0.4522  1.2208
 9610TIP3    H253026  -1.689  -3.341  -5.713 -1.5054  1.5211  1.2439
 9611TIP3   OH253027   2.754   3.269  -4.313 -0.4195  0.1582  0.6151
 9611TIP3    H153028   2.810   3.339  -4.282 -1.3736  1.2935 -0.1240
 9611TIP3    H253029   2.773   3.262  -4.407 -0.2667 -0.6413  0.6975
 9612TIP3   OH253030  -3.064  -0.474  -4.290 -0.1946  0.1805  0.3895
 9612TIP3    H153031  -3.122  -0.455  -4.364  0.3620  0.5766  0.0460
 9612TIP3    H253032  -3.054  -0.390  -4.246  0.3774  0.1850  0.2539
 9613TIP3   OH253033  -0.693   0.640  -5.422  0.1519 -0.2746 -1.0608
 9613TIP3    H153034  -0.761   0.697  -5.387 -0.1503  0.2475 -2.4609
 9613TIP3    H253035  -0.633   0.626  -5.348 -0.0548  1.4114 -0.5357
 9614TIP3   OH253036  -1.502   0.359  -3.413  0.4947 -0.5280  0.1023
 9614TIP3    H153037  -1.534   0.433  -3.465 -0.9674 -0.3270  1.2550
 9614TIP3    H253038  -1.427   0.394  -3.365 -0.5214  0.3832  1.0599
 9615TIP3   OH253039   1.018   1.905  -3.478 -0.4115 -0.3342 -0.1598
 9615TIP3    H153040   0.969   1.939  -3.552  0.0500 -0.0445 -0.3339
 9615TIP3    H253041   0.977   1.820  -3.459 -3.0846  1.2186  1.7192
 9616TIP3   OH253042  -0.752  -0.505  -3.757  0.2413 -0.0475 -0.0992
 9616TIP3    H153043  -0.708  -0.426  -3.726 -0.5063  1.0552 -1.6527
 9616TIP3    H253044  -0.837  -0.505  -3.713  0.5094 -0.3787  0.4248
 9617TIP3   OH253045  -0.614   1.216  -2.735  0.4689 -0.0251  0.1296
 9617TIP3    H153046  -0.609   1.258  -2.649 -0.6098 -2.1424  1.2992
 9617TIP3    H253047  -0.540   1.156  -2.736 -1.2186 -2.2258  0.9069
 9618TIP3   OH253048   2.251  -0.088  -3.528  0.0760 -0.1697  0.0451
 9618TIP3    H153049   2.204  -0.158  -3.483  0.8765  0.2053  1.5095
 9618TIP3    H253050   2.182  -0.040  -3.575 -1.4223  1.5734  3.6873
 9619TIP3   OH253051   0.395  -2.521  -5.641 -0.2441 -0.2008 -0.2991
 9619TIP3    H153052   0.454  -2.595  -5.627 -0.5619 -0.5108 -0.5866
 9619TIP3    H253053   0.394  -2.474  -5.558 -1.0211 -1.2270  0.2886
 9620TIP3   OH253054  -1.020   0.398  -3.958  0.8540 -0.0153  0.1008
 9620TIP3    H153055  -1.044   0.490  -3.965  0.2508 -0.1974 -0.3329
 9620TIP3    H253056  -0.925   0.397  -3.971  0.6240  0.3562 -2.0191
 9621TIP3   OH253057   2.198  -1.345  -5.378  0.1408 -0.3326  0.3557
 9621TIP3    H153058   2.196  -1.301  -5.293 -2.2675  0.5710 -0.1243
 9621TIP3    H253059   2.224  -1.278  -5.440  2.8666 -1.2138  0.4019
 9622TIP3   OH253060  -3.219   1.868  -3.996 -0.1288 -0.4147 -0.6401
 9622TIP3    H153061  -3.232   1.861  -3.902  0.3788  1.4046 -0.3945
 9622TIP3    H253062  -3.294   1.822  -4.034 -1.4689  0.5753  0.6745
 9623TIP3   OH253063   0.839   1.581  -5.515 -0.3213  0.3388  0.5892
 9623TIP3    H153064   0.783   1.540  -5.449 -0.1778  0.3025  0.6899
 9623TIP3    H253065   0.898   1.511  -5.542 -0.9154  0.1243 -0.1794
 9624TIP3   OH253066   0.664   1.997  -5.563 -0.3991 -0.3573 -0.3699
 9624TIP3    H153067   0.663   2.083  -5.521 -1.9163 -0.9316  0.8587
 9624TIP3    H253068   0.738   2.001  -5.625  0.7098  1.1726  0.9787
 9625TIP3   OH253069  -0.060  -2.137  -3.176 -0.2970 -0.5767  0.0685
 9625TIP3    H153070  -0.098  -2.050  -3.187  0.8180 -0.0052  0.6028
 9625TIP3    H253071  -0.037  -2.165  -3.265  0.0365  0.0040 -0.0290
 9626TIP3   OH253072  -1.819  -0.649  -4.255 -0.6132  0.2512 -0.2807
 9626TIP3    H153073  -1.862  -0.717  -4.203  0.4887 -0.3421 -0.1044
 9626TIP3    H253074  -1.731  -0.684  -4.271  0.3456  2.0559  0.6967
 9627TIP3   OH253075   0.601   2.914  -2.888  0.1538  0.1864 -0.7151
 9627TIP3    H153076   0.687   2.920  -2.845 -0.3634 -2.6735  0.9454
 9627TIP3    H253077   0.615   2.858  -2.964 -0.1765 -0.0502 -0.6045
 9628TIP3   OH253078   2.310  -3.025  -4.475 -0.5534 -0.7065  0.0706
 9628TIP3    H153079   2.292  -2.946  -4.423 -0.7944 -2.0488  2.1214
 9628TIP3    H253080   2.231  -3.036  -4.529 -0.0472  1.0466 -1.1409
 9629TIP3   OH253081   2.099   1.747  -3.416  0.0737  0.0671 -0.6014
 9629TIP3    H153082   2.122   1.694  -3.492 -1.6417  0.3278 -1.3545
 9629TIP3    H253083   2.052   1.687  -3.358  0.7691  0.0406 -0.0586
 9630TIP3   OH253084  -0.590  -1.398  -4.113  0.2153  0.3197  0.6765
 9630TIP3    H153085  -0.564  -1.346  -4.037 -1.6003  0.0455  1.5213
 9630TIP3    H253086  -0.548  -1.353  -4.187  2.8817 -0.0082  1.8652
 9631TIP3   OH253087  -1.479  -1.098  -4.304  0.1630  0.0722  0.2842
 9631TIP3    H153088  -1.394  -1.059  -4.281 -0.0203 -0.4378  1.9877
 9631TIP3    H253089  -1.480  -1.099  -4.399  0.4116  3.6972  0.0868
 9632TIP3   OH253090  -2.278   1.310  -5.221 -0.5162  0.3651  0.3264
 9632TIP3    H153091  -2.209   1.375  -5.209  0.6190 -0.8104  0.3834
 9632TIP3    H253092  -2.346   1.356  -5.269  1.2316  1.0078 -1.6881
 9633TIP3   OH253093   0.244  -1.353  -5.037 -0.2750  0.3353 -0.0826
 9633TIP3    H153094   0.261  -1.372  -5.129 -1.6563  0.5624 -0.4054
 9633TIP3    H253095   0.286  -1.424  -4.989  1.1258  0.6227 -0.8209
 9634TIP3   OH253096  -0.607   0.726  -4.552  0.4085  0.0976  0.3226
 9634TIP3    H153097  -0.693   0.766  -4.557 -0.5614 -1.5706  2.1556
 9634TIP3    H253098  -0.599   0.675  -4.632 -0.1372  0.5629 -0.0352
 9635TIP3   OH253099   0.349  -0.079  -3.389 -0.2599  0.1490  0.1132
 9635TIP3    H153100   0.301  -0.153  -3.351  1.1584 -1.1438 -0.5158
 9635TIP3    H253101   0.330  -0.006  -3.330 -3.2042 -0.1885 -0.2506
 9636TIP3   OH253102  -2.803   2.304  -3.763 -0.0749 -0.5756 -0.6227
 9636TIP3    H153103  -2.802   2.234  -3.829  0.0766 -0.1338 -1.0922
 9636TIP3    H253104  -2.712   2.313  -3.737  0.3090  1.0394 -2.2839
 9637TIP3   OH253105   2.300   2.944  -4.156 -0.2434 -0.4540 -0.6690
 9637TIP3    H153106   2.367   2.897  -4.206  0.0817 -0.3755 -0.3014
 9637TIP3    H253107   2.298   3.032  -4.195  0.0832 -0.3606 -0.4697
 9638TIP3   OH253108   1.720   0.573  -5.666  0.0683 -0.1159 -0.5148
 9638TIP3    H153109   1.714   0.666  -5.686  0.4379  0.2292  0.9401
 9638TIP3    H253110   1.772   0.568  -5.586  0.2517 -1.5916 -0.6967
 9639TIP3   OH253111  -1.610  -0.274  -3.068  0.2325  0.1892 -0.3552
 9639TIP3    H153112  -1.627  -0.183  -3.044  1.6413  0.6045 -0.8285
 9639TIP3    H253113  -1.593  -0.317  -2.984 -0.4075  0.3590 -0.1313
 9640TIP3   OH253114   1.253   0.979  -4.334 -0.4078  0.1250  0.0970
 9640TIP3    H153115   1.321   0.975  -4.268  1.1756 -0.1875 -1.4808
 9640TIP3    H253116   1.260   1.067  -4.371 -0.1863 -0.2400 -0.7494
 9641TIP3   OH253117   2.732   0.413  -5.192 -0.2169 -0.0328 -0.0580
 9641TIP3    H153118   2.740   0.432  -5.099  0.3751  0.0021 -0.1078
 9641TIP3    H253119   2.716   0.498  -5.233 -0.7187 -0.0808  0.0331
 9642TIP3   OH253120  -1.417  -2.304  -5.190  0.3476  0.4504  0.4831
 9642TIP3    H153121  -1.332  -2.276  -5.155  1.1981  1.2815 -2.0091
 9642TIP3    H253122  -1.396  -2.377  -5.248 -0.9057 -0.4627  1.1395
 9643TIP3   OH253123  -1.240   1.567  -3.758  0.5904 -0.0478  0.5085
 9643TIP3    H153124  -1.321   1.544  -3.712  0.4519 -0.5634  0.0166
 9643TIP3    H253125  -1.261   1.648  -3.803  1.2611  1.4632  2.7313
 9644TIP3   OH253126  -2.396  -2.878  -5.819  0.0618 -0.1871  0.2540
 9644TIP3    H153127  -2.350  -2.802  -5.854 -0.0143  0.1348  0.8488
 9644TIP3    H253128  -2.378  -2.876  -5.725 -1.9188  0.4957  0.6737
 9645TIP3   OH253129   0.783  -1.760  -2.785 -0.6379  0.3185  0.2910
 9645TIP3    H153130   0.696  -1.765  -2.744 -0.9817 -1.2010 -0.5304
 9645TIP3    H253131   0.803  -1.667  -2.787 -1.9625  0.6572  1.0968
 9646TIP3   OH253132   0.323  -1.589  -3.868 -0.1600 -0.0839 -0.4297
 9646TIP3    H153133   0.252  -1.581  -3.932  0.2166 -1.2449 -1.0118
 9646TIP3    H253134   0.344  -1.499  -3.844 -1.6496  0.2911 -0.4425
 9647TIP3   OH253135  -2.695  -0.625  -3.291  0.0288  0.0925  0.3597
 9647TIP3    H153136  -2.747  -0.646  -3.368  0.3660  1.4895 -0.2869
 9647TIP3    H253137  -2.657  -0.708  -3.263  0.6506 -0.3182 -1.5480
 9648TIP3   OH253138   3.048  -1.049  -3.539  0.1047 -0.2129 -0.3492
 9648TIP3    H153139   3.063  -1.110  -3.466 -2.3978  0.1001  0.5500
 9648TIP3    H253140   3.107  -0.976  -3.522 -0.9039  0.1716  1.8365
 9649TIP3   OH253141   3.168  -3.071  -4.267  0.4738 -0.1051  0.0834
 9649TIP3    H153142   3.247  -3.021  -4.290  1.1589 -0.9624  0.5198
 9649TIP3    H253143   3.201  -3.146  -4.217 -0.6073 -0.5832  0.0983
 9650TIP3   OH253144  -0.411  -2.047  -5.785 -0.5287  0.7163  0.2660
 9650TIP3    H153145  -0.453  -2.017  -5.705 -0.8765 -1.7759  1.0876
 9650TIP3    H253146  -0.474  -2.107  -5.825 -0.4784  2.0615 -2.0818
 9651TIP3   OH253147  -0.533  -0.148  -2.640  0.4941 -0.0819  0.0112
 9651TIP3    H153148  -0.556  -0.181  -2.553  0.1673 -3.1460 -1.1072
 9651TIP3    H253149  -0.439  -0.166  -2.648  0.0655 -2.0981 -1.0803
 9652TIP3   OH253150   1.310  -1.581  -4.080  0.2119  0.2986  0.0870
 9652TIP3    H153151   1.317  -1.590  -3.985  1.9572 -1.1964 -0.1428
 9652TIP3    H253152   1.373  -1.512  -4.103 -0.4639  0.9117  0.0198
 9653TIP3   OH253153  -1.661   0.069  -5.191 -0.0518 -0.0834 -0.2599
 9653TIP3    H153154  -1.594   0.019  -5.145  0.0050  1.1466  1.0510
 9653TIP3    H253155  -1.736   0.010  -5.196  0.4598 -0.7743  0.0190
 9654TIP3   OH253156   2.811   0.968  -4.000 -0.0046  0.1400  0.3411
 9654TIP3    H153157   2.789   0.877  -4.019  0.4097 -0.3132  1.9305
 9654TIP3    H253158   2.898   0.964  -3.961  0.0093  1.2270  0.4501
 9655TIP3   OH253159  -1.654   2.877  -1.640 -0.2756 -0.2004 -0.0336
 9655TIP3    H153160  -1.706   2.875  -1.560 -0.9751  0.9900 -0.4399
 9655TIP3    H253161  -1.676   2.961  -1.681  0.2583 -0.6845 -1.3503
 9656TIP3   OH253162   3.302  -1.586  -4.078 -0.0064 -0.6302  0.3932
 9656TIP3    H153163   3.278  -1.674  -4.106 -0.8106 -0.0992 -0.7033
 9656TIP3    H253164   3.328  -1.542  -4.159 -0.0208  0.2620  0.8599
 9657TIP3   OH253165   1.873  -1.445  -5.429 -0.0244  0.2070 -0.3366
 9657TIP3    H153166   1.816  -1.455  -5.353 -0.3646  2.1151 -0.2776
 9657TIP3    H253167   1.955  -1.488  -5.405  0.3215  1.8233  1.6505
 9658TIP3   OH253168  -1.037  -0.046  -3.907  0.3329 -0.4335  0.7101
 9658TIP3    H153169  -1.068  -0.007  -3.825 -1.7723 -1.0298  0.2379
 9658TIP3    H253170  -1.052  -0.140  -3.896  0.1176 -0.5251 -0.3332
 9659TIP3   OH253171  -2.292  -1.395  -3.906  0.0610 -0.0433 -0.4258
 9659TIP3    H153172  -2.211  -1.343  -3.903 -0.0396  0.0777  0.4081
 9659TIP3    H253173  -2.264  -1.480  -3.939  0.0279  0.8719 -3.0544
 9660TIP3   OH253174  -1.765  -2.563  -4.437  0.5278 -0.5230  0.2121
 9660TIP3    H153175  -1.673  -2.548  -4.457  1.1362 -3.5913  0.1201
 9660TIP3    H253176  -1.766  -2.585  -4.343 -0.2310  0.1985  0.3852
 9661TIP3   OH253177  -0.415  -1.343  -4.961  0.4966 -0.2029  0.3529
 9661TIP3    H153178  -0.500  -1.322  -4.922 -0.3957  0.5528 -1.8887
 9661TIP3    H253179  -0.384  -1.260  -4.996  1.8785 -0.6159  0.5478
 9662TIP3   OH253180   3.091   2.849  -5.057  0.3239 -0.3749 -0.3176
 9662TIP3    H153181   3.131   2.826  -4.974 -0.8041  0.4731  0.5009
 9662TIP3    H253182   3.007   2.801  -5.058 -0.0097  0.1985 -0.6204
 9663TIP3   OH253183   1.999  -1.568  -4.458  0.2261  0.6973  0.1871
 9663TIP3    H153184   1.930  -1.565  -4.392 -1.1852  0.1129 -1.1802
 9663TIP3    H253185   2.080  -1.552  -4.410 -0.8101  0.9260  1.9284
 9664TIP3   OH253186  -1.899   1.915  -4.765  0.1957 -0.6520 -0.3830
 9664TIP3    H153187  -1.836   1.918  -4.838  0.4312  0.6101 -0.1451
 9664TIP3    H253188  -1.981   1.947  -4.802  0.3909  0.2799 -0.0389
 9665TIP3   OH253189  -2.585  -2.782  -3.308 -0.0117  0.2698  0.0101
 9665TIP3    H153190  -2.517  -2.849  -3.299 -0.0281  0.1860 -0.4359
 9665TIP3    H253191  -2.586  -2.762  -3.402 -0.0161  0.8881  0.1342
 9666TIP3   OH253192  -2.269  -0.650  -4.767 -0.3047 -0.2238  0.6640
 9666TIP3    H153193  -2.268  -0.746  -4.776 -0.7402 -0.1811  0.1558
 9666TIP3    H253194  -2.342  -0.633  -4.707  0.0491 -0.2339  1.1058
 9667TIP3   OH253195  -2.634   1.510  -5.632  0.2839 -0.1501  0.2071
 9667TIP3    H153196  -2.567   1.578  -5.637 -0.2692  0.3992 -0.0263
 9667TIP3    H253197  -2.716   1.557  -5.650 -0.0891 -0.9187 -0.1348
 9668TIP3   OH253198  -1.276   0.568  -2.778 -0.8534  0.2675  0.1930
 9668TIP3    H153199  -1.208   0.632  -2.798  0.3158 -0.5793  1.2892
 9668TIP3    H253200  -1.350   0.594  -2.833  1.0052 -0.0093 -2.6853
 9669TIP3   OH253201   3.113  -0.798  -3.460 -0.0736  0.3623 -0.0896
 9669TIP3    H153202   3.082  -0.782  -3.371  0.0463  1.5528 -0.2459
 9669TIP3    H253203   3.196  -0.751  -3.466  0.9791 -1.3950 -0.2014
 9670TIP3   OH253204  -2.646   0.712  -5.391  0.1628  0.3193 -0.1649
 9670TIP3    H153205  -2.706   0.742  -5.323 -1.0330 -0.2505 -0.9398
 9670TIP3    H253206  -2.583   0.656  -5.345 -0.2184  0.4947  0.5781
 9671TIP3   OH253207   1.340   0.723  -3.851  0.1809  0.0605 -0.0554
 9671TIP3    H153208   1.306   0.661  -3.916 -1.3271 -0.0746  0.8165
 9671TIP3    H253209   1.403   0.775  -3.899  1.2467 -1.9093 -0.9176
 9672TIP3   OH253210  -1.440  -2.425  -3.666 -0.1182  0.5504 -0.3506
 9672TIP3    H153211  -1.503  -2.442  -3.736  1.0558  0.3690 -1.3927
 9672TIP3    H253212  -1.401  -2.511  -3.648  1.3283  0.9986 -1.2092
 9673TIP3   OH253213   1.644   1.382  -3.272  0.5287  0.0208 -0.1620
 9673TIP3    H153214   1.597   1.398  -3.189  0.8221  1.1478 -0.2003
 9673TIP3    H253215   1.600   1.438  -3.335  0.2867 -0.8647 -0.7926
 9674TIP3   OH253216   3.353   2.481  -5.324  0.2730  0.3761 -0.4421
 9674TIP3    H153217   3.428   2.530  -5.357  1.9201 -2.4945 -1.4061
 9674TIP3    H253218   3.320   2.533  -5.251  0.5506  3.8021 -2.5191
 9675TIP3   OH253219  -0.332  -3.142  -2.537 -0.1145 -0.0406 -0.6310
 9675TIP3    H153220  -0.416  -3.100  -2.558  0.4215  1.0560 -0.6528
 9675TIP3    H253221  -0.277  -3.124  -2.613  0.8054  1.1030  0.2811
 9676TIP3   OH253222  -1.645  -0.227  -4.086  0.3809 -0.3324  0.0929
 9676TIP3    H153223  -1.558  -0.189  -4.100  0.4645 -0.4958  0.1596
 9676TIP3    H253224  -1.637  -0.277  -4.005  0.6094 -1.4374 -0.5728
 9677TIP3   OH253225  -0.140   1.857  -4.014  0.1348 -0.1645 -0.0426
 9677TIP3    H153226  -0.231   1.834  -3.997  0.6200 -0.8857  1.7868
 9677TIP3    H253227  -0.137   1.952  -4.004 -0.4219 -0.1293 -0.1604
 9678TIP3   OH253228   0.990  -1.479  -2.964 -0.4277  0.0581 -0.3329
 9678TIP3    H153229   0.936  -1.523  -3.030 -0.2356 -0.3971 -0.1863
 9678TIP3    H253230   0.934  -1.476  -2.886 -0.2863 -0.3203 -0.2129
 9679TIP3   OH253231  -0.157  -0.356  -3.376  0.0051 -0.6705 -0.3103
 9679TIP3    H153232  -0.177  -0.419  -3.307  0.2097 -2.2478 -1.6342
 9679TIP3    H253233  -0.160  -0.271  -3.332 -0.3689 -1.5734  1.5161
 9680TIP3   OH253234  -0.843  -2.465  -5.285 -0.0367  0.0851  0.1417
 9680TIP3    H153235  -0.761  -2.441  -5.241  1.0350 -1.3909 -0.9554
 9680TIP3    H253236  -0.840  -2.560  -5.292 -1.1822  0.1055 -1.1961
 9681TIP3   OH253237   2.576   1.436  -3.432 -0.5903 -0.4596 -0.2211
 9681TIP3    H153238   2.584   1.483  -3.349  1.0924 -0.4008 -0.3865
 9681TIP3    H253239   2.503   1.479  -3.477  0.7982  1.9505 -0.3108
 9682TIP3   OH253240  -3.107  -2.127  -2.969 -0.2792 -0.2474 -0.2539
 9682TIP3    H153241  -3.081  -2.149  -3.059 -0.5386  0.0384 -0.3974
 9682TIP3    H253242  -3.197  -2.096  -2.977  0.3953  1.8208 -0.1943
 9683TIP3   OH253243   2.891   3.015  -5.866 -0.1744 -1.0867 -0.5553
 9683TIP3    H153244   2.933   2.945  -5.917 -2.5376 -2.7545 -0.3814
 9683TIP3    H253245   2.846   2.970  -5.795 -1.7354  0.6200 -0.3836
 9684TIP3   OH253246  -0.515   3.047  -3.084 -0.0335 -0.1221 -0.1762
 9684TIP3    H153247  -0.516   2.987  -3.009 -1.5825 -0.4632 -0.4488
 9684TIP3    H253248  -0.567   3.004  -3.151 -2.8981  2.3230  0.2786
 9685TIP3   OH253249   0.067  -2.989  -5.157  0.2406  0.3491 -0.1119
 9685TIP3    H153250   0.014  -3.065  -5.134  0.8230  0.2555  1.0172
 9685TIP3    H253251   0.130  -3.023  -5.221 -0.3983  0.2201 -0.6785
 9686TIP3   OH253252  -1.702  -0.150  -4.495 -0.0777  0.5982 -0.3746
 9686TIP3    H153253  -1.632  -0.129  -4.433 -0.6423  0.3392  0.3730
 9686TIP3    H253254  -1.782  -0.150  -4.441 -0.4279 -0.8550 -0.8518
 9687TIP3   OH253255   1.132  -3.227  -4.400  0.0770  0.2050  0.0115
 9687TIP3    H153256   1.120  -3.204  -4.308 -1.2312 -1.7762  0.3850
 9687TIP3    H253257   1.225  -3.213  -4.417  0.4086  0.2224  1.7377
 9688TIP3   OH253258   2.924  -1.590  -3.216  0.1452  0.2041  0.3789
 9688TIP3    H153259   2.919  -1.538  -3.297 -1.2932 -0.5546 -0.0549
 9688TIP3    H253260   2.908  -1.680  -3.245  0.8253 -0.2507  1.3661
 9689TIP3   OH253261   1.445   2.986  -4.058  0.0327  0.0611 -0.6036
 9689TIP3    H153262   1.522   2.958  -4.107 -0.8591 -0.2931 -1.8661
 9689TIP3    H253263   1.472   3.065  -4.011  0.8146  0.6557 -2.0165
 9690TIP3   OH253264   2.845  -0.630  -5.099  0.1342 -0.3478  1.2412
 9690TIP3    H153265   2.928  -0.600  -5.138 -0.5679  0.9747  0.6732
 9690TIP3    H253266   2.865  -0.643  -5.006  1.1714 -0.8495  0.9599
 9691TIP3   OH253267   2.170  -1.569  -5.250 -0.6794 -0.3392 -0.4873
 9691TIP3    H153268   2.227  -1.637  -5.286 -0.6172 -0.9409  0.6842
 9691TIP3    H253269   2.184  -1.493  -5.306  0.7374 -0.6911 -0.6437
 9692TIP3   OH253270  -2.957   0.069  -3.750  0.8305  0.6366 -0.5920
 9692TIP3    H153271  -2.897   0.077  -3.676 -0.2561  0.6003  0.3165
 9692TIP3    H253272  -3.014  -0.004  -3.727  1.5298 -0.4854 -2.2505
 9693TIP3   OH253273   1.767   0.722  -3.747 -0.1768  0.7238 -0.4123
 9693TIP3    H153274   1.688   0.695  -3.795 -0.6174  0.8197  0.2425
 9693TIP3    H253275   1.805   0.641  -3.714 -0.5969  0.7594  0.1725
 9694TIP3   OH253276  -1.657  -0.548  -4.520 -0.1126  1.0982  0.1473
 9694TIP3    H153277  -1.612  -0.505  -4.593  1.6555 -0.9365 -0.0601
 9694TIP3    H253278  -1.641  -0.490  -4.445 -0.6787  2.4472 -0.7234
 9695TIP3   OH253279   0.744   1.811  -3.206 -0.0405 -0.4021  0.0210
 9695TIP3    H153280   0.732   1.807  -3.111 -1.1547  0.3311 -0.0752
 9695TIP3    H253281   0.760   1.903  -3.225 -0.6933 -0.3988 -0.5859
 9696TIP3   OH253282   0.929  -1.672  -4.897  0.2791  0.5407 -0.3017
 9696TIP3    H153283   0.906  -1.710  -4.982 -2.0757  1.3958 -0.1393
 9696TIP3    H253284   0.943  -1.579  -4.916  2.0868  0.3434 -0.0834
 9697TIP3   OH253285  -0.486  -2.653  -4.596 -0.8113 -0.2704  0.0432
 9697TIP3    H153286  -0.565  -2.598  -4.598 -0.1820  0.6536 -0.0234
 9697TIP3    H253287  -0.490  -2.703  -4.678 -1.0024  0.2418 -0.2639
 9698TIP3   OH253288  -0.855  -2.320  -4.418 -0.3707  0.6347  0.1088
 9698TIP3    H153289  -0.774  -2.286  -4.457 -0.4385  0.3296 -0.2990
 9698TIP3    H253290  -0.899  -2.366  -4.489 -1.7738  2.2856 -0.1631
 9699TIP3   OH253291  -2.046   3.152  -4.319 -0.5844  0.1349 -0.4933
 9699TIP3    H153292  -2.001   3.068  -4.308  1.8873  1.5716  1.2656
 9699TIP3    H253293  -2.060   3.184  -4.230 -0.8936  1.8709 -1.1215
 9700TIP3   OH253294  -3.314  -2.517  -5.334 -0.2478 -0.0990  0.7063
 9700TIP3    H153295  -3.304  -2.598  -5.384 -0.1040 -0.1586  0.8289
 9700TIP3    H253296  -3.395  -2.529  -5.284 -1.2708  0.6217 -0.7304
 9701TIP3   OH253297   2.525  -1.446  -5.149  0.3994 -0.0020 -0.1763
 9701TIP3    H153298   2.461  -1.396  -5.097  0.4301  0.0537 -0.1913
 9701TIP3    H253299   2.521  -1.406  -5.236  0.8188  0.3398 -0.0445
 9702TIP3   OH253300   2.058   0.076  -3.275  0.1069 -0.2780 -0.7791
 9702TIP3    H153301   2.137   0.027  -3.251  0.2842 -0.2229 -1.2338
 9702TIP3    H253302   2.091   0.151  -3.324 -0.1773  0.2145 -0.2221
 9703TIP3   OH253303  -0.962   3.162  -4.106 -0.6832 -0.0054 -0.0571
 9703TIP3    H153304  -1.007   3.209  -4.177  0.2887  1.3840  0.1962
 9703TIP3    H253305  -1.029   3.150  -4.039 -0.9650  1.1284 -0.1035
 9704TIP3   OH253306  -1.696   1.308  -2.584  0.4322 -0.4907  0.2089
 9704TIP3    H153307  -1.621   1.276  -2.535 -0.4624 -2.1452  0.5862
 9704TIP3    H253308  -1.696   1.258  -2.665  0.0849 -0.0626 -0.0657
 9705TIP3   OH253309   2.256   0.311  -4.037 -0.1704  0.3536 -0.4272
 9705TIP3    H153310   2.194   0.282  -3.971  0.2685  0.4683  0.0468
 9705TIP3    H253311   2.302   0.385  -3.996  0.4710  0.0954 -0.6612
 9706TIP3   OH253312  -3.187  -3.250  -4.444 -0.7627 -0.7141 -0.3131
 9706TIP3    H153313  -3.132  -3.321  -4.476 -0.3247 -0.4332 -0.1952
 9706TIP3    H253314  -3.160  -3.238  -4.353 -0.3554  0.0552 -0.5286
 9707TIP3   OH253315  -2.068   1.387  -4.069 -0.0397 -0.7276 -0.4750
 9707TIP3    H153316  -2.128   1.427  -4.132 -0.2779  0.5819  0.5376
 9707TIP3    H253317  -2.125   1.332  -4.015 -0.7758  1.9638  1.6945
 9708TIP3   OH253318   0.121  -1.522  -2.873  0.1215  0.0855 -0.4319
 9708TIP3    H153319   0.214  -1.508  -2.892  0.2332  1.0590  0.7182
 9708TIP3    H253320   0.076  -1.455  -2.924  0.1945  0.7670  0.3882
 9709TIP3   OH253321  -2.316  -2.292  -2.603  0.1720 -0.1247 -0.1034
 9709TIP3    H153322  -2.306  -2.229  -2.674  0.1194 -1.3182 -1.2176
 9709TIP3    H253323  -2.241  -2.275  -2.545 -0.3128  1.4999  0.0993
 9710TIP3   OH253324   0.901  -3.176  -3.476  0.0928  0.2063  0.4732
 9710TIP3    H153325   0.993  -3.173  -3.502  0.1828 -0.6319  0.6469
 9710TIP3    H253326   0.860  -3.105  -3.524  0.7591  0.3395  0.0864
 9711TIP3   OH253327  -0.808  -3.289  -3.614  0.2429  0.2683  0.2174
 9711TIP3    H153328  -0.729  -3.333  -3.582 -0.5726 -0.0736  1.8300
 9711TIP3    H253329  -0.870  -3.294  -3.541 -2.3666 -2.0480 -1.9287
 9712TIP3   OH253330   2.581   1.160  -4.550  0.1351 -0.5861 -0.5019
 9712TIP3    H153331   2.563   1.239  -4.500 -0.6325 -0.3366 -1.1329
 9712TIP3    H253332   2.608   1.095  -4.485  2.2244  0.5762 -0.1265
 9713TIP3   OH253333   1.240  -1.775  -5.383  0.2285  0.4715  0.0144
 9713TIP3    H153334   1.317  -1.786  -5.328  0.7511  1.5134 -0.4883
 9713TIP3    H253335   1.197  -1.697  -5.348 -1.0107 -0.4861  0.7408
 9714TIP3   OH253336  -2.888  -0.132  -2.639  0.1471 -0.0131 -0.2914
 9714TIP3    H153337  -2.952  -0.068  -2.606 -0.4306  0.3963 -2.1006
 9714TIP3    H253338  -2.810  -0.079  -2.659 -0.9057  0.5159 -3.4176
 9715TIP3   OH253339   1.829   1.022  -4.133 -0.4274 -0.3716 -0.4458
 9715TIP3    H153340   1.808   0.934  -4.165  0.6490 -0.9715  0.4123
 9715TIP3    H253341   1.772   1.035  -4.058  1.0412 -1.3508  0.9044
 9716TIP3   OH253342   0.070  -1.936  -5.166 -0.6086  0.5624 -0.0825
 9716TIP3    H153343   0.010  -2.001  -5.202 -2.0368  0.7497  1.7984
 9716TIP3    H253344   0.013  -1.862  -5.143  0.4996  1.1602  0.8238
 9717TIP3   OH253345  -1.757   1.340  -4.602  0.5703 -0.2774 -0.2365
 9717TIP3    H153346  -1.700   1.363  -4.529  0.1077  0.1475 -0.0119
 9717TIP3    H253347  -1.705   1.361  -4.680  0.1611  1.5754 -0.0453
 9718TIP3   OH253348   2.022  -2.640  -3.646 -0.0431 -0.0253  0.3269
 9718TIP3    H153349   2.012  -2.695  -3.569 -1.1737  0.3244  0.4411
 9718TIP3    H253350   2.068  -2.696  -3.710  2.1378  0.1122  1.6718
 9719TIP3   OH253351   2.531   2.087  -5.899 -0.2479 -0.5685  0.4110
 9719TIP3    H153352   2.540   2.048  -5.986 -2.1537  0.6609 -0.3989
 9719TIP3    H253353   2.486   2.021  -5.847 -1.2615 -0.4087 -0.2467
 9720TIP3   OH253354  -1.824  -3.075  -3.247 -0.0883  0.1014 -0.2916
 9720TIP3    H153355  -1.837  -3.168  -3.262  0.7765 -0.0769  0.0199
 9720TIP3    H253356  -1.768  -3.046  -3.319  0.3000  0.2092  0.0493
 9721TIP3   OH253357   2.454  -2.963  -4.871  0.0660  0.3570  0.6129
 9721TIP3    H153358   2.449  -3.021  -4.947  2.0219  2.2478 -1.1505
 9721TIP3    H253359   2.454  -3.021  -4.795  1.9176 -1.9818 -1.0124
 9722TIP3   OH253360  -2.339  -1.509  -3.656  0.2374  0.3234 -0.0579
 9722TIP3    H153361  -2.307  -1.498  -3.746  1.2691  0.1184  0.2702
 9722TIP3    H253362  -2.371  -1.423  -3.631  2.4695  1.0986  0.3150
 9723TIP3   OH253363   1.725  -0.568  -3.916 -0.7803 -0.2256  0.5085
 9723TIP3    H153364   1.635  -0.554  -3.943 -0.8733  0.3173  1.0728
 9723TIP3    H253365   1.768  -0.604  -3.993 -0.9506  1.6050 -0.5090
 9724TIP3   OH253366   2.170  -3.008  -5.120 -0.5199  0.6198 -0.2302
 9724TIP3    H153367   2.155  -2.972  -5.033 -1.2803  1.9395 -0.8803
 9724TIP3    H253368   2.095  -3.066  -5.136 -2.2219  2.9628 -1.2890
 9725TIP3   OH253369   0.717   0.683  -4.722 -0.3995 -0.5659 -0.6025
 9725TIP3    H153370   0.805   0.662  -4.691  0.0925  2.3459  0.2173
 9725TIP3    H253371   0.658   0.645  -4.657  0.2022 -2.0606 -0.8742
 9726TIP3   OH253372   2.660  -1.966  -2.148 -0.0781 -0.4488  0.1055
 9726TIP3    H153373   2.721  -1.903  -2.186  2.0060 -1.5184  1.4356
 9726TIP3    H253374   2.650  -2.034  -2.215 -0.2855  0.0274 -0.3472
 9727TIP3   OH253375  -2.001   3.149  -3.382  0.4193 -0.5521  0.3730
 9727TIP3    H153376  -2.094   3.168  -3.374  0.2140 -0.8972 -0.9021
 9727TIP3    H253377  -1.993   3.056  -3.363  0.6440 -0.3356  1.3691
 9728TIP3   OH253378   0.610   0.120  -3.474 -0.2989  0.4052 -0.2754
 9728TIP3    H153379   0.665   0.189  -3.511  0.4124  1.0248  1.8094
 9728TIP3    H253380   0.522   0.141  -3.504  0.1278  1.3643 -0.8949
 9729TIP3   OH253381  -2.854  -2.676  -5.474  0.2070  0.3940 -0.6414
 9729TIP3    H153382  -2.795  -2.734  -5.426 -0.1347  0.5500 -0.0235
 9729TIP3    H253383  -2.801  -2.644  -5.548  0.9890  0.7262  0.0397
 9730TIP3   OH253384   0.059   3.315  -5.532  0.2021 -0.5486 -0.1793
 9730TIP3    H153385   0.038   3.224  -5.514 -1.5374 -0.0977  0.1951
 9730TIP3    H253386   0.014   3.365  -5.464  0.5552  0.6472 -0.7853
 9731TIP3   OH253387   2.189   2.672  -5.464 -0.3723  0.7761  0.4409
 9731TIP3    H153388   2.193   2.577  -5.457 -1.3589  0.8600  2.8832
 9731TIP3    H253389   2.198   2.689  -5.558  0.4838 -1.6593  0.0034
 9732TIP3   OH253390   2.007  -2.424  -4.011 -0.2150  0.1322  0.0370
 9732TIP3    H153391   2.016  -2.330  -4.030 -0.1272 -0.1465 -1.3849
 9732TIP3    H253392   2.087  -2.463  -4.044 -1.2854 -0.7562 -1.6009
 9733TIP3   OH253393   3.123   3.130  -3.337  0.4101 -0.2388  0.6739
 9733TIP3    H153394   3.075   3.158  -3.415  0.3208 -1.3336  0.3154
 9733TIP3    H253395   3.068   3.062  -3.299  1.6214 -1.4851  0.2853
 9734TIP3   OH253396   0.242  -1.797  -5.351 -0.5540  0.7570  0.0979
 9734TIP3    H153397   0.283  -1.852  -5.418  0.6219  0.0690  1.3219
 9734TIP3    H253398   0.170  -1.849  -5.317 -1.1534  1.1086 -0.6180
 9735TIP3   OH253399   2.794   1.023  -2.214 -0.6774  0.5026  0.5485
 9735TIP3    H153400   2.819   1.115  -2.206 -1.3598  0.6240  1.4932
 9735TIP3    H253401   2.705   1.025  -2.249  0.8685  0.0480 -4.0753
 9736TIP3   OH253402  -0.657  -2.252  -4.600 -0.0560  0.0208  0.2151
 9736TIP3    H153403  -0.669  -2.167  -4.643 -1.1943 -0.5774 -0.7219
 9736TIP3    H253404  -0.577  -2.242  -4.547  0.0044  1.5560 -0.1343
 9737TIP3   OH253405   1.823  -1.614  -4.213 -0.1597 -0.1244  0.2560
 9737TIP3    H153406   1.746  -1.647  -4.167 -1.6368  1.1730 -1.1616
 9737TIP3    H253407   1.790  -1.582  -4.296  1.6058  2.2077  0.3330
 9738TIP3   OH253408  -0.369   2.890  -5.081  0.2566 -0.1900 -0.1173
 9738TIP3    H153409  -0.277   2.917  -5.089  0.1697 -0.1208 -1.0789
 9738TIP3    H253410  -0.367   2.795  -5.090  0.1220 -0.0810 -1.5149
 9739TIP3   OH253411   0.007  -2.624  -2.932  0.2108  0.1123  0.4490
 9739TIP3    H153412  -0.020  -2.551  -2.989 -0.6842 -0.4218  0.1664
 9739TIP3    H253413   0.058  -2.582  -2.863  0.7836  0.8538 -0.3977
 9740TIP3   OH253414   0.750   1.239  -5.680  0.6667  0.4253 -0.7631
 9740TIP3    H153415   0.754   1.143  -5.673  0.4717  0.3376 -1.7980
 9740TIP3    H253416   0.834   1.269  -5.646  0.6540 -0.1012 -0.2515
 9741TIP3   OH253417   0.248   0.148  -3.905  0.1036 -0.3940 -0.7212
 9741TIP3    H153418   0.228   0.187  -3.990 -0.6999  0.3989 -0.1981
 9741TIP3    H253419   0.171   0.169  -3.851 -0.0969 -2.2478 -0.2393
 9742TIP3   OH253420   1.509   1.049  -4.253 -0.0103  0.2395  0.1995
 9742TIP3    H153421   1.550   1.096  -4.180 -1.1003 -0.8725  1.5803
 9742TIP3    H253422   1.508   1.112  -4.325  2.7395  0.7977  0.5315
 9743TIP3   OH253423  -2.040   2.516  -5.666 -0.0887  0.4005  0.0508
 9743TIP3    H153424  -1.953   2.506  -5.704  0.7180  1.8918  1.3768
 9743TIP3    H253425  -2.031   2.590  -5.605 -1.9849 -0.1798  1.1051
 9744TIP3   OH253426  -0.734  -1.579  -4.669 -0.0600  0.0102 -0.9371
 9744TIP3    H153427  -0.816  -1.614  -4.635  1.0991 -3.7733 -1.5520
 9744TIP3    H253428  -0.760  -1.505  -4.723 -2.6156  1.4390  1.9482
 9745TIP3   OH253429  -1.950  -0.507  -3.630 -0.5481  0.0093 -0.3375
 9745TIP3    H153430  -1.920  -0.457  -3.554 -2.1142  0.4089  0.0554
 9745TIP3    H253431  -1.887  -0.578  -3.638 -0.1105  0.2015  1.0912
 9746TIP3   OH253432   1.793   0.008  -3.304  0.2371 -0.1037 -0.3537
 9746TIP3    H153433   1.747   0.083  -3.267 -1.1410 -0.8422 -0.5022
 9746TIP3    H253434   1.886   0.026  -3.289  0.0419  2.2479 -1.5502
 9747TIP3   OH253435   0.877   0.795  -3.027 -0.2164  0.7521  0.0304
 9747TIP3    H153436   0.834   0.722  -2.983 -2.4655  1.1968 -1.2880
 9747TIP3    H253437   0.833   0.873  -2.994  1.8573  1.5564  1.0902
 9748TIP3   OH253438   1.765   1.279  -4.564 -0.9917  0.3662 -0.1445
 9748TIP3    H153439   1.734   1.279  -4.655 -1.6073  0.7608  0.0577
 9748TIP3    H253440   1.705   1.338  -4.519 -1.2146 -0.4697  0.6948
 9749TIP3   OH253441   3.081   3.328  -4.633  0.2904  0.1700 -0.0265
 9749TIP3    H153442   3.083   3.367  -4.720  0.6934 -0.5078 -0.3252
 9749TIP3    H253443   3.164   3.354  -4.593  1.4820 -1.9511 -0.9446
 9750TIP3   OH253444   2.445   2.642  -5.300  0.3332 -0.2881 -0.0468
 9750TIP3    H153445   2.463   2.735  -5.310 -0.0874 -0.0813  1.0007
 9750TIP3    H253446   2.356   2.632  -5.333 -0.0450 -0.1020  0.8964
 9751TIP3   OH253447   0.049   2.323  -4.850  0.0352 -0.1808 -0.0005
 9751TIP3    H153448   0.133   2.293  -4.816  0.1754 -0.4539 -0.5679
 9751TIP3    H253449   0.012   2.378  -4.780  0.2510 -0.8298  0.6289
 9752TIP3   OH253450  -1.912   1.996  -4.039 -0.1227  0.0544  0.3844
 9752TIP3    H153451  -1.919   2.012  -3.945 -0.5348  0.6000  0.2599
 9752TIP3    H253452  -2.003   1.994  -4.070  0.0462  1.2434 -0.2314
 9753TIP3   OH253453  -2.739  -0.994  -5.645  0.7990 -0.0544 -0.1189
 9753TIP3    H153454  -2.719  -0.905  -5.675  0.0673  0.3673  0.5851
 9753TIP3    H253455  -2.737  -0.988  -5.549 -1.0019 -0.3551 -0.0249
 9754TIP3   OH253456   0.596   0.155  -5.234  0.3313 -0.2910  0.2121
 9754TIP3    H153457   0.619   0.145  -5.142 -0.9151 -0.6096  0.5056
 9754TIP3    H253458   0.600   0.067  -5.270  0.0839 -0.2768  0.1475
 9755TIP3   OH253459   1.493  -1.363  -4.598  0.0936  0.6702 -0.5430
 9755TIP3    H153460   1.426  -1.430  -4.594  0.6352 -0.0093 -1.9363
 9755TIP3    H253461   1.514  -1.343  -4.507  0.9254 -2.0993 -0.0370
 9756TIP3   OH253462  -1.809  -3.019  -5.713  0.2336 -0.2136  0.1050
 9756TIP3    H153463  -1.902  -3.041  -5.706  0.1977  0.1762  0.9444
 9756TIP3    H253464  -1.764  -3.103  -5.702  0.0007 -0.3151  0.2985
 9757TIP3   OH253465  -1.240   1.673  -4.275 -0.0047  0.2334  0.9951
 9757TIP3    H153466  -1.276   1.737  -4.336  0.0012  0.1838  0.9396
 9757TIP3    H253467  -1.171   1.628  -4.325 -0.8616 -0.6946  0.6164
 9758TIP3   OH253468   2.657   3.371  -4.899 -0.2716  0.1921 -0.6203
 9758TIP3    H153469   2.705   3.319  -4.964 -0.6927 -1.6169  0.4472
 9758TIP3    H253470   2.725   3.403  -4.840 -0.1834 -0.9375 -0.0845
 9759TIP3   OH253471   1.828   1.297  -4.147 -0.1959 -0.2510 -0.2055
 9759TIP3    H153472   1.852   1.206  -4.160  1.0744  0.0368 -0.0360
 9759TIP3    H253473   1.878   1.345  -4.213 -0.5487  0.3596 -0.0405
 9760TIP3   OH253474  -2.445  -1.478  -5.215 -0.0454 -0.0463 -0.0297
 9760TIP3    H153475  -2.362  -1.430  -5.210 -0.7759  1.4840 -1.4346
 9760TIP3    H253476  -2.451  -1.506  -5.306 -1.3086  0.3526 -0.0901
 9761TIP3   OH253477  -2.535   1.508  -4.117 -0.1509 -0.1275  0.0041
 9761TIP3    H153478  -2.454   1.526  -4.164 -0.6423 -0.6858 -1.1141
 9761TIP3    H253479  -2.577   1.594  -4.109 -0.7368 -0.1790 -1.9444
 9762TIP3   OH253480   0.704  -3.322  -3.054  0.2179 -0.2811 -0.1035
 9762TIP3    H153481   0.669  -3.329  -3.143 -0.1183 -1.2731  0.0989
 9762TIP3    H253482   0.750  -3.404  -3.040  3.2196  1.1806 -0.5735
 9763TIP3   OH253483  -0.673   2.690  -2.745 -0.7270  0.9134 -0.3201
 9763TIP3    H153484  -0.666   2.769  -2.692 -3.2037  2.5229 -2.1517
 9763TIP3    H253485  -0.630   2.713  -2.827 -1.6539  0.4434 -0.9454
 9764TIP3   OH253486  -1.096   0.081  -3.668  0.0498  0.1950  0.7519
 9764TIP3    H153487  -1.094   0.035  -3.584  0.6689  0.7598  1.0569
 9764TIP3    H253488  -1.174   0.137  -3.662  0.1354  0.2915  0.9851
 9765TIP3   OH253489  -1.020  -0.865  -2.303 -0.0644  0.5785  0.1170
 9765TIP3    H153490  -1.011  -0.775  -2.334  0.8492  0.7023  0.6674
 9765TIP3    H253491  -1.051  -0.856  -2.213 -0.2009  0.3358  0.0944
 9766TIP3   OH253492  -0.871  -3.177  -4.346 -0.3781  0.2349  0.5552
 9766TIP3    H153493  -0.938  -3.115  -4.376  0.1839  0.0482 -1.1893
 9766TIP3    H253494  -0.849  -3.227  -4.425  0.7687 -0.6883  1.4456
 9767TIP3   OH253495   2.355   0.469  -3.127 -0.2285 -0.1902  0.2167
 9767TIP3    H153496   2.434   0.522  -3.118 -0.5946  0.3161  0.5148
 9767TIP3    H253497   2.371   0.393  -3.072  0.2514 -0.3297 -0.1112
 9768TIP3   OH253498   3.166   0.737  -5.088  0.2441  0.3137 -0.7114
 9768TIP3    H153499   3.149   0.711  -4.997  1.1357  1.8829 -0.0403
 9768TIP3    H253500   3.255   0.773  -5.086  0.4942 -0.1312 -2.3453
 9769TIP3   OH253501   2.988  -2.499  -5.805 -0.7406 -0.0512 -0.3297
 9769TIP3    H153502   2.939  -2.437  -5.858 -2.2581  0.6851  1.7784
 9769TIP3    H253503   2.971  -2.585  -5.845 -0.3714  0.6217 -2.0104
 9770TIP3   OH253504   0.016   0.891  -3.367 -0.1768 -0.5416  0.5107
 9770TIP3    H153505   0.027   0.826  -3.298  0.5282 -1.8950 -0.8211
 9770TIP3    H253506   0.104   0.912  -3.396 -0.4813 -0.5433 -0.4625
 9771TIP3   OH253507  -1.129   0.784  -3.612  0.3977 -0.1010  0.2422
 9771TIP3    H153508  -1.119   0.689  -3.615  0.2475 -0.1948  1.8280
 9771TIP3    H253509  -1.124   0.812  -3.703 -2.1736 -1.8886 -0.5599
 9772TIP3   OH253510  -0.879   1.578  -3.098  0.5367  0.0160  0.4018
 9772TIP3    H153511  -0.889   1.484  -3.082 -3.2564  0.2254  0.0942
 9772TIP3    H253512  -0.880   1.587  -3.193  1.9350  0.3390  0.3983
 9773TIP3   OH253513  -2.809  -1.298  -3.407 -0.5685  0.7862  0.3871
 9773TIP3    H153514  -2.876  -1.366  -3.412 -0.5621  0.6112  2.0575
 9773TIP3    H253515  -2.778  -1.302  -3.317  0.2239  2.2599  0.2117
 9774TIP3   OH253516  -1.875  -0.075  -4.123  0.3407  0.1965  0.4515
 9774TIP3    H153517  -1.892  -0.126  -4.203  1.5623  1.7595 -0.8804
 9774TIP3    H253518  -1.805  -0.123  -4.079  1.4615  0.6717 -0.7706
 9775TIP3   OH253519  -2.155   2.217  -2.844 -0.0775 -0.2142 -0.3518
 9775TIP3    H153520  -2.113   2.291  -2.799  0.7649 -0.6444 -0.4201
 9775TIP3    H253521  -2.240   2.251  -2.872  0.3541  0.7631 -0.4901
 9776TIP3   OH253522   1.270   0.544  -3.138  0.2433 -0.2064  0.4185
 9776TIP3    H153523   1.245   0.479  -3.073  0.9361 -0.2673  0.6274
 9776TIP3    H253524   1.187   0.583  -3.166 -0.1165 -0.6938  0.7941
 9777TIP3   OH253525  -3.176  -2.058  -3.464 -0.4793  0.3542 -0.1888
 9777TIP3    H153526  -3.183  -1.963  -3.477  0.7930  0.5265  0.2446
 9777TIP3    H253527  -3.107  -2.085  -3.525 -0.2295 -0.1451  0.3078
 9778TIP3   OH253528   2.331  -1.275  -5.655  0.1616 -1.0751  0.5145
 9778TIP3    H153529   2.400  -1.213  -5.632 -0.4108 -0.4280  0.4955
 9778TIP3    H253530   2.283  -1.233  -5.726  0.4405 -2.0194 -0.2741
 9779TIP3   OH253531   3.126  -1.731  -5.706 -0.3220 -0.0260 -0.2036
 9779TIP3    H153532   3.032  -1.712  -5.701 -0.4529  0.1671 -2.4723
 9779TIP3    H253533   3.167  -1.646  -5.723  0.2119 -0.2093  0.1326
 9780TIP3   OH253534  -2.754  -2.230  -2.324  0.0723 -0.6576  0.2232
 9780TIP3    H153535  -2.686  -2.214  -2.260  1.1424 -1.0665 -0.7672
 9780TIP3    H253536  -2.708  -2.270  -2.398 -1.2280 -0.8554 -0.5108
 9781TIP3   OH253537  -1.679  -2.242  -3.657 -0.3041  0.0481  0.5623
 9781TIP3    H153538  -1.658  -2.209  -3.744 -0.3261 -1.7642 -0.1583
 9781TIP3    H253539  -1.594  -2.254  -3.615 -0.2794  0.5286  0.6631
 9782TIP3   OH253540  -3.119  -0.366  -5.769  0.0246  0.3719 -0.2716
 9782TIP3    H153541  -3.046  -0.386  -5.711 -0.5694  0.6328  0.5890
 9782TIP3    H253542  -3.129  -0.271  -5.763 -0.9546  0.2487  0.3498
 9783TIP3   OH253543   0.404   2.565  -3.721 -0.1475  0.2123 -0.0936
 9783TIP3    H153544   0.408   2.486  -3.775 -0.4388  0.4276 -0.4320
 9783TIP3    H253545   0.442   2.634  -3.775  0.3048  0.2630  0.2836
 9784TIP3   OH253546   2.758   3.257  -2.807 -0.2218 -0.6782 -0.0200
 9784TIP3    H153547   2.750   3.232  -2.899  0.5280  1.0064 -0.5901
 9784TIP3    H253548   2.846   3.295  -2.800 -0.5844 -0.0155  1.1880
 9785TIP3   OH253549   1.413  -3.075  -4.760  0.4357 -0.0601 -0.3063
 9785TIP3    H153550   1.348  -3.141  -4.786  1.1572 -0.4577 -1.1149
 9785TIP3    H253551   1.391  -3.055  -4.669 -0.6414 -0.4017 -0.4812
 9786TIP3   OH253552  -1.300   0.983  -2.498 -0.8343 -0.1558  0.2236
 9786TIP3    H153553  -1.342   1.000  -2.583 -0.7626  0.0421  0.2295
 9786TIP3    H253554  -1.310   1.064  -2.449 -0.0035  0.0683  0.0393
 9787TIP3   OH253555  -2.551  -0.063  -4.182 -0.6120  0.4660 -0.1297
 9787TIP3    H153556  -2.503   0.008  -4.224 -0.8494 -0.8759 -2.8622
 9787TIP3    H253557  -2.619  -0.018  -4.131 -1.6718  2.2720 -2.8884
 9788TIP3   OH253558   1.820   1.598  -3.465  0.5628  0.5098 -0.2744
 9788TIP3    H153559   1.876   1.593  -3.388  0.5252  0.3016 -0.2616
 9788TIP3    H253560   1.733   1.573  -3.434  0.7674 -0.6621 -0.6192
 9789TIP3   OH253561   2.639  -1.705  -2.939 -0.5524  0.4016  0.2513
 9789TIP3    H153562   2.633  -1.716  -2.844  0.4751  1.2655  0.4407
 9789TIP3    H253563   2.551  -1.722  -2.971 -0.8914  0.0133  1.3565
 9790TIP3   OH253564   2.273   2.777  -2.176 -0.1500 -0.1661  0.2885
 9790TIP3    H153565   2.230   2.710  -2.124 -1.7280  0.3679 -0.2790
 9790TIP3    H253566   2.271   2.743  -2.266 -2.4801  1.3063 -0.2814
 9791TIP3   OH253567   0.106   1.711  -4.913  0.0291  0.4345  0.0745
 9791TIP3    H153568   0.028   1.762  -4.897  0.5230  1.2420 -0.0404
 9791TIP3    H253569   0.179   1.769  -4.890  0.7069  0.8343 -2.7067
 9792TIP3   OH253570   2.812   2.269  -3.582  0.6495 -0.0211  0.1702
 9792TIP3    H153571   2.873   2.327  -3.626  1.5224  0.1990  1.6053
 9792TIP3    H253572   2.820   2.185  -3.628  2.1766 -0.0437  0.4506
 9793TIP3   OH253573   2.954  -2.248  -4.532  0.1056 -0.2854  0.1509
 9793TIP3    H153574   2.974  -2.329  -4.578 -0.8740 -0.5467  0.1685
 9793TIP3    H253575   3.039  -2.207  -4.517  0.6094 -1.3075  0.1435
 9794TIP3   OH253576  -1.800  -0.075  -3.429 -0.4082 -0.5609  0.3920
 9794TIP3    H153577  -1.844  -0.089  -3.345  0.4701 -0.8120  0.8181
 9794TIP3    H253578  -1.853  -0.008  -3.472 -0.3142  0.3141  1.5755
 9795TIP3   OH253579   2.809   0.377  -3.521  0.3271 -0.0623 -0.0133
 9795TIP3    H153580   2.733   0.410  -3.474  0.6285 -0.5855  0.8588
 9795TIP3    H253581   2.797   0.409  -3.611 -1.0199 -0.2930  0.0505
 9796TIP3   OH253582  -0.471   1.595  -2.832 -0.4217  0.5412 -0.4798
 9796TIP3    H153583  -0.502   1.508  -2.855 -0.2578  0.1889  0.5711
 9796TIP3    H253584  -0.520   1.618  -2.752  0.7521  0.6871  0.2286
 9797TIP3   OH253585   1.004   0.435  -3.083  0.0015 -0.2183 -0.0356
 9797TIP3    H153586   0.961   0.351  -3.068  0.9345 -0.7930 -0.4538
 9797TIP3    H253587   1.080   0.434  -3.025  1.4233 -0.7637 -1.8145
 9798TIP3   OH253588   2.223  -2.545  -3.139  0.1809 -0.1975  0.8950
 9798TIP3    H153589   2.231  -2.453  -3.111  0.3383 -0.1352  0.6507
 9798TIP3    H253590   2.294  -2.590  -3.093  0.6442 -0.0351  0.3528
 9799TIP3   OH253591   1.189   1.214  -3.816  0.4710  0.3006 -0.1897
 9799TIP3    H153592   1.148   1.207  -3.730  1.7997 -1.9593  0.3488
 9799TIP3    H253593   1.139   1.155  -3.871  0.7736  0.3125 -0.4788
 9800TIP3   OH253594  -0.349  -0.055  -5.235  0.4304 -0.3868  0.0455
 9800TIP3    H153595  -0.288   0.014  -5.207  0.7093 -0.7290  0.2863
 9800TIP3    H253596  -0.409  -0.065  -5.162  2.6838 -3.0764  1.7165
 9801TIP3   OH253597   1.468   2.918  -2.971  0.6535 -0.2694 -0.6143
 9801TIP3    H153598   1.532   2.918  -2.900  0.3030  2.6552 -0.2018
 9801TIP3    H253599   1.522   2.913  -3.051  1.1657 -1.1996 -0.2292
 9802TIP3   OH253600  -2.407   0.238  -5.963 -0.0869  0.1882 -0.4319
 9802TIP3    H153601  -2.338   0.239  -5.897 -0.5006  0.5174 -0.0011
 9802TIP3    H253602  -2.435   0.329  -5.970 -1.9913 -0.2389  1.0045
 9803TIP3   OH253603   2.208   1.306  -3.882 -0.6169 -0.2199 -0.0958
 9803TIP3    H153604   2.257   1.283  -3.961 -1.8040  2.8126 -1.8897
 9803TIP3    H253605   2.133   1.247  -3.882 -0.1510 -0.8301 -0.7285
 9804TIP3   OH253606  -0.435   0.083  -2.841  0.0658 -0.5367 -0.3897
 9804TIP3    H153607  -0.376   0.108  -2.771 -0.5172  3.7853 -1.1750
 9804TIP3    H253608  -0.377   0.062  -2.915  0.6027 -2.1783  0.4411
 9805TIP3   OH253609   0.037  -0.428  -5.263 -0.0794  0.1589 -0.2946
 9805TIP3    H153610  -0.050  -0.459  -5.238 -1.1803  2.0867 -1.4560
 9805TIP3    H253611   0.027  -0.400  -5.354  2.5870 -2.4225 -1.5489
 9806TIP3   OH253612   1.033   3.110  -4.063  0.6028  0.1719  0.6916
 9806TIP3    H153613   1.032   3.061  -4.145  0.9022  1.2767  0.0116
 9806TIP3    H253614   0.946   3.150  -4.057  0.8746  0.7972  0.4769
 9807TIP3   OH253615  -1.250  -2.920  -4.148  0.2642  0.8965 -0.7984
 9807TIP3    H153616  -1.175  -2.884  -4.100  0.3999  2.4358 -2.0944
 9807TIP3    H253617  -1.305  -2.844  -4.168 -0.9727 -0.0331 -1.0285
 9808TIP3   OH253618   0.515   0.548  -5.080  0.1644 -0.3389  0.5659
 9808TIP3    H153619   0.480   0.476  -5.132 -1.7666  0.5452  0.5549
 9808TIP3    H253620   0.551   0.610  -5.144  0.7204 -0.7263  0.5011
 9809TIP3   OH253621   2.648   2.801  -3.798 -0.0038  0.4605  0.0963
 9809TIP3    H153622   2.719   2.839  -3.746 -1.1455  1.8722  0.7093
 9809TIP3    H253623   2.654   2.846  -3.883 -0.0809  0.4946  0.1087
 9810TIP3   OH253624  -1.560   0.394  -2.259  0.3652 -0.1348 -0.2308
 9810TIP3    H153625  -1.478   0.374  -2.215  0.2471  1.1807  0.6588
 9810TIP3    H253626  -1.535   0.455  -2.329  0.0264  1.2631  0.8280
 9811TIP3   OH253627   1.695  -3.265  -5.641  0.2814 -0.0138  0.3338
 9811TIP3    H153628   1.731  -3.183  -5.675 -0.5373  0.3895  0.4159
 9811TIP3    H253629   1.714  -3.330  -5.709  0.1327  0.4341 -0.1372
 9812TIP3   OH253630   1.971   0.983  -4.850  0.3441  0.0187 -0.0753
 9812TIP3    H153631   1.882   0.993  -4.817  0.2468  1.0681 -0.5931
 9812TIP3    H253632   2.015   1.063  -4.822  1.2544 -0.6869  0.5496
 9813TIP3   OH253633  -0.412  -2.318  -2.707  0.4518  0.3315  0.3015
 9813TIP3    H153634  -0.350  -2.345  -2.774 -0.2957 -1.0382  0.1108
 9813TIP3    H253635  -0.413  -2.223  -2.711  2.1405  0.3608 -0.0278
 9814TIP3   OH253636   3.056   1.050  -3.191 -0.2499 -0.2081  0.7031
 9814TIP3    H153637   3.129   1.006  -3.233 -0.5504  1.9331 -2.4362
 9814TIP3    H253638   3.097   1.109  -3.128  0.6115 -0.3688  0.3091
 9815TIP3   OH253639  -1.137   2.548  -4.116 -0.6583 -0.4955  0.3599
 9815TIP3    H153640  -1.173   2.529  -4.030  0.2003 -1.3442  0.5437
 9815TIP3    H253641  -1.117   2.642  -4.113  0.1401 -0.6812  1.3825
 9816TIP3   OH253642   2.495   0.219  -5.206  0.1906 -0.6542 -0.2129
 9816TIP3    H153643   2.447   0.255  -5.132  0.2822 -0.7818 -0.0929
 9816TIP3    H253644   2.580   0.264  -5.205  0.3289 -0.9160 -0.0261
 9817TIP3   OH253645   2.479   1.131  -3.735 -0.1615 -0.2165 -0.6315
 9817TIP3    H153646   2.531   1.192  -3.787  0.5319 -0.3949 -0.1631
 9817TIP3    H253647   2.408   1.104  -3.794 -1.1843  1.9353 -0.4518
 9818TIP3   OH253648   1.752   0.966  -4.485  0.0789  0.2460  0.0509
 9818TIP3    H153649   1.786   1.048  -4.449 -0.2132  0.0377  0.8026
 9818TIP3    H253650   1.827   0.907  -4.485  0.1570  0.3440  0.0074
 9819TIP3   OH253651   1.622  -1.636  -2.759  0.0210  0.7969  0.0913
 9819TIP3    H153652   1.628  -1.731  -2.751 -0.0226  0.9278  2.2084
 9819TIP3    H253653   1.665  -1.602  -2.680 -1.8028  2.4504  0.4636
 9820TIP3   OH253654   2.448   2.467  -4.856  0.2562  0.2181  0.0123
 9820TIP3    H153655   2.523   2.410  -4.873  0.8317  0.6095  1.1343
 9820TIP3    H253656   2.386   2.446  -4.926  0.5413 -1.6115  0.2398
 9821TIP3   OH253657   2.771   0.074  -4.931 -0.3170  0.2363  0.6025
 9821TIP3    H153658   2.834   0.087  -5.002 -0.6211  0.9439  0.4534
 9821TIP3    H253659   2.825   0.074  -4.851  0.1987 -1.9478  0.3095
 9822TIP3   OH253660   3.091  -3.262  -3.431  0.1566  0.3077  0.0699
 9822TIP3    H153661   3.079  -3.329  -3.497  0.4933  0.0456  0.2708
 9822TIP3    H253662   3.007  -3.216  -3.427  1.1489  2.7014 -3.0859
 9823TIP3   OH253663   2.184  -1.056  -3.198 -0.2205 -0.1046  0.1214
 9823TIP3    H153664   2.187  -1.004  -3.118 -0.6399  1.4953 -0.8562
 9823TIP3    H253665   2.209  -0.995  -3.268  0.3179 -1.4933 -0.9597
 9824TIP3   OH253666   0.657   1.761  -2.945 -0.5995  0.7746  0.0497
 9824TIP3    H153667   0.722   1.766  -2.874  1.4300 -0.8787 -1.5516
 9824TIP3    H253668   0.577   1.731  -2.902  0.7311 -0.7784  1.5920
 9825TIP3   OH253669  -0.790  -0.481  -4.463 -0.1941 -0.5900 -0.3331
 9825TIP3    H153670  -0.789  -0.415  -4.393  2.9744 -1.7781  0.9588
 9825TIP3    H253671  -0.779  -0.431  -4.543  0.9565  0.5856  0.5124
 9826TIP3   OH253672  -1.419   1.406  -5.157  0.6640  0.3859  0.3550
 9826TIP3    H153673  -1.469   1.473  -5.203  1.0404  0.8946  0.6807
 9826TIP3    H253674  -1.478   1.331  -5.153  0.2697  0.6680 -0.0828
 9827TIP3   OH253675  -1.227  -2.219  -3.790  0.4349  0.2410 -0.3086
 9827TIP3    H153676  -1.164  -2.291  -3.796 -0.2633 -0.3986 -0.2186
 9827TIP3    H253677  -1.304  -2.251  -3.837 -0.5087  0.2420  1.1715
 9828TIP3   OH253678  -2.617   0.119  -3.094  0.3244  0.6397 -0.1676
 9828TIP3    H153679  -2.610   0.123  -2.999  0.1433  0.9409 -0.1657
 9828TIP3    H253680  -2.571   0.039  -3.118 -1.5928 -0.6822  0.3751
 9829TIP3   OH253681  -0.459  -0.715  -5.020 -0.1081  0.0790 -0.4621
 9829TIP3    H153682  -0.462  -0.807  -4.993 -1.9274  0.2834  0.1584
 9829TIP3    H253683  -0.499  -0.714  -5.107  0.3387  0.2220 -0.6677
 9830TIP3   OH253684  -1.021   2.474  -4.367 -0.9484 -0.2700 -0.1249
 9830TIP3    H153685  -1.055   2.506  -4.283 -0.0000  1.5030 -0.3688
 9830TIP3    H253686  -0.943   2.424  -4.343  0.5913  2.0309 -0.0002
 9831TIP3   OH253687  -1.816  -0.432  -3.181 -0.1809 -0.2275 -0.2386
 9831TIP3    H153688  -1.894  -0.419  -3.127  0.0775 -1.9522  0.6249
 9831TIP3    H253689  -1.743  -0.402  -3.127  0.0412 -1.6311  0.3019
 9832TIP3   OH253690  -1.844   3.266  -5.937  0.6783  0.4731 -0.2707
 9832TIP3    H153691  -1.930   3.308  -5.940  0.2213 -0.2482  1.4116
 9832TIP3    H253692  -1.842   3.210  -6.014 -1.4707 -1.4462  0.9555
 9833TIP3   OH253693   0.204  -2.204  -4.547  0.3383 -0.0946  0.1164
 9833TIP3    H153694   0.123  -2.223  -4.594  1.0129 -1.7286 -0.4710
 9833TIP3    H253695   0.273  -2.229  -4.609  1.2706 -0.4221  1.2606
 9834TIP3   OH253696  -0.606   2.929  -4.333  0.2233  0.0899  0.0273
 9834TIP3    H153697  -0.582   3.020  -4.349  0.3180 -0.1935 -1.6027
 9834TIP3    H253698  -0.537   2.878  -4.375 -0.1522 -0.7430  0.3921
 9835TIP3   OH253699  -0.511  -1.687  -4.763 -0.4152 -0.2077 -0.1340
 9835TIP3    H153700  -0.583  -1.647  -4.713 -1.1203 -0.3207 -1.0407
 9835TIP3    H253701  -0.457  -1.729  -4.696 -1.5844 -0.7361  0.5166
 9836TIP3   OH253702  -0.133   2.538  -3.082  0.1542  0.3717  0.3609
 9836TIP3    H153703  -0.146   2.633  -3.080 -0.5328  0.4486 -2.8413
 9836TIP3    H253704  -0.213   2.502  -3.044 -0.8829  1.1015 -1.0472
 9837TIP3   OH253705   0.348   2.617  -4.485 -0.0813 -0.1215 -0.5835
 9837TIP3    H153706   0.431   2.585  -4.519  0.0261 -0.0018 -0.4361
 9837TIP3    H253707   0.283   2.589  -4.550 -0.6999 -4.5133  1.5986
 9838TIP3   OH253708   1.257  -3.296  -5.024 -0.6954  0.2422  0.0123
 9838TIP3    H153709   1.197  -3.365  -4.997 -1.3153  0.5553 -0.5271
 9838TIP3    H253710   1.249  -3.294  -5.119 -0.2889  0.6974 -0.0145
 9839TIP3   OH253711  -0.043  -1.181  -5.622 -0.1849 -0.2895  0.2633
 9839TIP3    H153712  -0.093  -1.261  -5.638 -0.1056 -0.0991 -1.0080
 9839TIP3    H253713  -0.086  -1.115  -5.676 -0.3091  0.5625  1.3702
 9840TIP3   OH253714  -3.224  -0.413  -4.553 -0.4732  0.7277  0.2881
 9840TIP3    H153715  -3.236  -0.508  -4.563 -0.7129  0.8296 -0.4443
 9840TIP3    H253716  -3.285  -0.389  -4.483  0.3055  0.1925  1.1750
 9841TIP3   OH253717  -3.091  -0.876  -4.487  0.2654 -0.3424  0.6877
 9841TIP3    H153718  -3.011  -0.900  -4.535  0.7069  2.6329 -0.2663
 9841TIP3    H253719  -3.063  -0.872  -4.396  1.3286  0.9033  0.3404
 9842TIP3   OH253720   3.354  -1.938  -4.638  0.1452  0.4178 -0.4589
 9842TIP3    H153721   3.328  -2.001  -4.571 -1.4422 -0.2619 -1.6556
 9842TIP3    H253722   3.389  -1.864  -4.589 -1.1549  0.0309  1.1309
 9843TIP3   OH253723   0.857  -2.334  -5.066  0.3312  0.5383 -0.1841
 9843TIP3    H153724   0.788  -2.276  -5.098 -0.5231  0.1784  0.9604
 9843TIP3    H253725   0.933  -2.312  -5.121 -0.2830  1.9363 -0.5299
 9844TIP3   OH253726   1.925  -1.244  -2.886 -0.3101  0.1193  0.4728
 9844TIP3    H153727   1.830  -1.235  -2.880 -0.3831  0.7368 -1.0291
 9844TIP3    H253728   1.957  -1.154  -2.883  0.1837 -0.0534  0.4246
 9845TIP3   OH253729   2.333   3.109  -4.689  0.1976  0.5196 -0.6870
 9845TIP3    H153730   2.265   3.080  -4.750 -1.4243 -0.0495  1.3091
 9845TIP3    H253731   2.285   3.143  -4.614  2.1248  0.5926  0.5688
 9846TIP3   OH253732  -0.423   1.810  -5.331 -0.0565  0.4292 -0.6248
 9846TIP3    H153733  -0.337   1.784  -5.363  0.1841 -0.9110  0.9798
 9846TIP3    H253734  -0.434   1.900  -5.362  1.2493  0.1262 -2.1230
 9847TIP3   OH253735  -2.549  -0.714  -3.589 -0.4842 -0.0664  0.2423
 9847TIP3    H153736  -2.469  -0.763  -3.607 -0.9294 -1.4179  1.7412
 9847TIP3    H253737  -2.607  -0.736  -3.662 -0.4376 -1.2789  0.5458
 9848TIP3   OH253738   0.658  -2.343  -3.309 -0.7564  0.0801 -0.5952
 9848TIP3    H153739   0.741  -2.306  -3.282 -1.3925 -0.4293  2.4606
 9848TIP3    H253740   0.606  -2.268  -3.339  0.0673  0.7157 -0.4591
 9849TIP3   OH253741   1.881  -1.976  -5.796  0.5038  0.0061  0.0221
 9849TIP3    H153742   1.897  -1.925  -5.876 -0.5545  0.0288 -0.1979
 9849TIP3    H253743   1.902  -1.916  -5.725  0.2437  0.4127 -0.2405
 9850TIP3   OH253744  -1.527   1.135  -4.209 -0.6501  0.6149  0.0336
 9850TIP3    H153745  -1.494   1.046  -4.195  0.5075  0.9431 -0.4459
 9850TIP3    H253746  -1.450   1.190  -4.200 -1.6375  1.7668  1.9860
 9851TIP3   OH253747  -1.003  -0.878  -5.119  0.2873 -0.2420  0.2964
 9851TIP3    H153748  -1.087  -0.831  -5.119  0.8372  0.7841  0.0159
 9851TIP3    H253749  -0.991  -0.905  -5.209  0.3013 -0.3111  0.3191
 9852TIP3   OH253750  -2.893  -0.409  -2.542 -0.2304 -0.5889 -0.3041
 9852TIP3    H153751  -2.902  -0.316  -2.559 -1.4041 -0.8937 -1.5252
 9852TIP3    H253752  -2.821  -0.416  -2.479 -0.0034  1.1093 -0.3532
 9853TIP3   OH253753  -2.287  -0.572  -3.970  0.2677  0.4850 -0.1861
 9853TIP3    H153754  -2.223  -0.517  -3.924  1.7281 -1.1162 -0.2348
 9853TIP3    H253755  -2.306  -0.523  -4.050  2.9928  0.1097 -1.1491
 9854TIP3   OH253756   0.153  -1.236  -3.720 -0.0994  0.8050  0.3184
 9854TIP3    H153757   0.140  -1.141  -3.709 -0.0768  0.8288  0.1473
 9854TIP3    H253758   0.181  -1.245  -3.811 -0.3757  0.6072  0.2522
 9855TIP3   OH253759   1.682  -0.988  -5.343  0.8937 -0.1820  0.5292
 9855TIP3    H153760   1.622  -0.949  -5.279 -1.7677  0.0210 -1.9204
 9855TIP3    H253761   1.745  -1.036  -5.289 -1.0440  0.1568  3.3352
 9856TIP3   OH253762   1.751  -2.891  -4.356 -0.4197  0.3842  0.3504
 9856TIP3    H153763   1.802  -2.956  -4.405  1.3929  1.1881  1.0455
 9856TIP3    H253764   1.682  -2.864  -4.417 -0.5675 -1.3781 -0.3349
 9857TIP3   OH253765  -1.570  -0.914  -2.785  0.8124 -0.0751 -0.1604
 9857TIP3    H153766  -1.594  -0.976  -2.716 -0.4003  1.1941  0.6253
 9857TIP3    H253767  -1.490  -0.873  -2.754  0.5697  0.0982  0.2460
 9858TIP3   OH253768  -0.741   2.070  -5.382 -0.0447  0.1723 -0.4437
 9858TIP3    H153769  -0.752   1.977  -5.401 -1.1876  0.0857  0.5165
 9858TIP3    H253770  -0.737   2.075  -5.286 -1.6674  1.2436 -0.3815
 9859TIP3   OH253771  -1.889  -1.294  -2.475 -0.0560 -0.0017 -0.0312
 9859TIP3    H153772  -1.930  -1.208  -2.468  0.4780  0.3095 -0.7183
 9859TIP3    H253773  -1.835  -1.301  -2.396  0.8407  0.8000 -0.5508
 9860TIP3   OH253774  -1.741   0.656  -4.156  0.1320  0.6363  0.4227
 9860TIP3    H153775  -1.761   0.734  -4.207  0.0543  0.3502  0.0138
 9860TIP3    H253776  -1.789   0.668  -4.074  0.1413  1.0268  0.3734
 9861TIP3   OH253777   1.680   2.088  -3.825 -0.5150  0.6260  0.3467
 9861TIP3    H153778   1.763   2.136  -3.827 -0.6736  0.8948 -1.0767
 9861TIP3    H253779   1.645   2.097  -3.914 -1.2043 -1.0166  0.4193
 9862TIP3   OH253780  -0.024  -0.380  -3.049  0.4314  0.3413  0.0715
 9862TIP3    H153781  -0.048  -0.336  -2.967 -0.1604 -0.0284  0.1064
 9862TIP3    H253782  -0.055  -0.470  -3.037 -1.5508  0.7542 -1.3502
 9863TIP3   OH253783  -1.009   0.028  -5.495  0.6555 -0.0476  0.0781
 9863TIP3    H153784  -1.090   0.068  -5.527  0.0958 -1.5297 -0.4672
 9863TIP3    H253785  -0.943   0.097  -5.503 -0.0748  0.5118 -1.6190
 9864TIP3   OH253786   3.263  -2.927  -3.098  0.0415 -0.3967  0.1386
 9864TIP3    H153787   3.237  -2.837  -3.120 -0.8458 -1.0561 -1.7815
 9864TIP3    H253788   3.180  -2.972  -3.082  0.3581 -1.2294 -0.5001
 9865TIP3   OH253789  -2.359   0.722  -4.535 -0.2391  0.0382 -0.0903
 9865TIP3    H153790  -2.275   0.768  -4.544 -0.1774 -0.3345 -1.7274
 9865TIP3    H253791  -2.413   0.781  -4.483  0.2642  1.4077 -1.0528
 9866TIP3   OH253792   0.851  -2.871  -4.882  0.4546 -0.1115  0.2702
 9866TIP3    H153793   0.922  -2.891  -4.943  0.3007 -1.8704  0.6248
 9866TIP3    H253794   0.782  -2.832  -4.937  0.3070 -1.6799 -0.7052
 9867TIP3   OH253795   0.132  -1.568  -5.216  0.1698 -0.3015 -0.7091
 9867TIP3    H153796   0.077  -1.510  -5.269  0.5656 -0.4416 -1.2756
 9867TIP3    H253797   0.153  -1.641  -5.274 -0.8526 -1.3560  0.1917
 9868TIP3   OH253798  -0.148  -1.894  -3.221  0.6542  0.0664 -0.0611
 9868TIP3    H153799  -0.149  -1.872  -3.314 -1.6345 -1.6346 -0.5546
 9868TIP3    H253800  -0.157  -1.810  -3.176  0.9636  0.8430 -1.3980
 9869TIP3   OH253801   0.211  -1.871  -3.940 -0.4517 -0.9155 -0.4360
 9869TIP3    H153802   0.261  -1.864  -4.022 -1.8626  1.4683 -1.1867
 9869TIP3    H253803   0.277  -1.860  -3.871  0.3539  0.0812 -1.3382
 9870TIP3   OH253804  -1.826  -1.028  -5.228 -0.0051 -0.5836  0.3933
 9870TIP3    H153805  -1.767  -0.953  -5.230 -1.9565  1.0309 -1.2443
 9870TIP3    H253806  -1.862  -1.027  -5.139  1.3492 -0.7645  0.9739
 9871TIP3   OH253807  -1.921  -0.181  -5.544 -0.4013 -0.2070  0.2614
 9871TIP3    H153808  -1.921  -0.125  -5.466 -2.0958  1.2595 -0.7269
 9871TIP3    H253809  -1.942  -0.268  -5.511 -0.4695  0.2624  1.5200
 9872TIP3   OH253810   0.928   0.623  -3.835 -0.7327 -0.3423  0.3402
 9872TIP3    H153811   0.972   0.661  -3.759 -0.0097 -0.1094 -0.1808
 9872TIP3    H253812   0.914   0.531  -3.811 -3.3141  0.3466  1.9830
 9873TIP3   OH253813   1.733   3.105  -5.003  0.1226 -0.2070  0.4344
 9873TIP3    H153814   1.693   3.187  -5.030 -0.1052 -0.1222  1.0101
 9873TIP3    H253815   1.685   3.080  -4.924 -0.3433 -1.2978 -0.1682
 9874TIP3   OH253816   0.200   0.226  -4.165 -0.3170  0.8589  0.2432
 9874TIP3    H153817   0.109   0.224  -4.194 -0.2416  1.1733 -0.0300
 9874TIP3    H253818   0.250   0.217  -4.246 -0.1038 -0.0972  0.4666
 9875TIP3   OH253819   1.249   3.300  -4.047  0.0242 -0.3420  0.9523
 9875TIP3    H153820   1.323   3.252  -4.085 -0.6200  1.0343 -2.4380
 9875TIP3    H253821   1.175   3.238  -4.051 -0.0418 -0.2073 -0.1949
 9876TIP3   OH253822   1.141   1.317  -3.232  0.1949 -0.1847  0.4083
 9876TIP3    H153823   1.152   1.380  -3.160 -0.6246  0.6885 -0.2076
 9876TIP3    H253824   1.082   1.251  -3.197 -2.1573  1.4939 -0.1775
 9877TIP3   OH253825   2.176  -2.227  -4.605 -0.9283 -0.5183  0.1322
 9877TIP3    H153826   2.233  -2.198  -4.677 -1.2128 -1.0961 -0.3371
 9877TIP3    H253827   2.143  -2.146  -4.567  0.6137 -0.1366  0.7576
 9878TIP3   OH253828   2.855  -2.674  -2.446 -0.0325 -0.0187  0.0793
 9878TIP3    H153829   2.794  -2.709  -2.382  1.8008 -0.5630  1.6314
 9878TIP3    H253830   2.860  -2.580  -2.427  1.0524 -0.2942  1.2769
 9879TIP3   OH253831  -2.556  -2.352  -5.480  0.0976  0.5603  0.1319
 9879TIP3    H153832  -2.632  -2.393  -5.522  0.6217 -0.1382 -0.1463
 9879TIP3    H253833  -2.485  -2.362  -5.544  0.5220  0.8642  0.5508
 9880TIP3   OH253834   1.520   1.658  -4.219 -0.0815 -0.3853 -0.1509
 9880TIP3    H153835   1.510   1.667  -4.313 -0.2655 -1.5012 -0.2412
 9880TIP3    H253836   1.475   1.577  -4.197 -0.0539 -0.1324  0.9003
 9881TIP3   OH253837  -0.939   2.486  -1.415 -0.4117  0.3282  0.0010
 9881TIP3    H153838  -1.029   2.515  -1.427 -0.1962  0.2699 -2.2193
 9881TIP3    H253839  -0.931   2.407  -1.468  0.8512  0.1146  0.4554
 9882TIP3   OH253840  -1.032   2.761  -5.096 -0.7783  0.3526 -0.1533
 9882TIP3    H153841  -1.005   2.848  -5.126 -0.0289 -0.2056 -1.1729
 9882TIP3    H253842  -0.957   2.729  -5.045 -1.2654  0.5037  0.6758
 9883TIP3   OH253843  -0.204  -1.769  -4.624 -0.0984 -0.4226  0.1176
 9883TIP3    H153844  -0.178  -1.680  -4.599  0.2018 -1.0972  2.4931
 9883TIP3    H253845  -0.134  -1.799  -4.681 -0.2899  0.9009 -0.8648
 9884TIP3   OH253846   0.007   2.727  -5.496 -0.0488 -0.1669  0.3680
 9884TIP3    H153847   0.017   2.668  -5.421 -0.2611 -1.4035 -0.5337
 9884TIP3    H253848   0.092   2.768  -5.506  0.4602 -1.1895  0.3362
 9885TIP3   OH253849   0.518  -1.886  -3.104 -0.1643 -0.2233  0.4691
 9885TIP3    H153850   0.609  -1.894  -3.131 -0.3814  1.3713 -0.8854
 9885TIP3    H253851   0.517  -1.809  -3.047 -0.8153  0.4305 -0.4010
 9886TIP3   OH253852   0.671   3.339  -3.625  0.0301 -0.0430  0.1091
 9886TIP3    H153853   0.696   3.337  -3.533  0.8294 -2.0076 -0.0939
 9886TIP3    H253854   0.664   3.247  -3.650 -0.8454  0.4487 -1.6294
 9887TIP3   OH253855  -1.848  -0.118  -3.149 -0.0803 -0.0908  0.5015
 9887TIP3    H153856  -1.888  -0.053  -3.090  0.5387  0.0295  0.7943
 9887TIP3    H253857  -1.771  -0.149  -3.102  0.2760 -0.1878 -0.1372
 9888TIP3   OH253858   1.212  -3.155  -3.244 -0.4135  0.3705 -0.1325
 9888TIP3    H153859   1.291  -3.192  -3.282 -2.0482 -1.8069 -1.7328
 9888TIP3    H253860   1.189  -3.082  -3.302  0.8806  1.6687  0.9185
 9889TIP3   OH253861   2.821   2.659  -4.397 -0.5483  0.4147  0.2823
 9889TIP3    H153862   2.755   2.630  -4.460 -0.8649 -1.9048  1.5885
 9889TIP3    H253863   2.852   2.743  -4.432 -3.3932  1.0765 -0.9408
 9890TIP3   OH253864   0.688   3.063  -5.406 -0.2511  0.1763 -0.0058
 9890TIP3    H153865   0.606   3.099  -5.372 -1.0342  0.9198 -2.4804
 9890TIP3    H253866   0.662   2.986  -5.456  0.4836  0.6266 -1.1174
 9891TIP3   OH253867   2.403  -1.227  -3.203 -0.6720 -0.1758 -0.5559
 9891TIP3    H153868   2.334  -1.162  -3.195 -0.4389  0.1096 -0.8589
 9891TIP3    H253869   2.406  -1.270  -3.117 -1.0346 -0.0010 -0.4559
 9892TIP3   OH253870   0.609   2.774  -4.646  0.5443  0.2722  0.3675
 9892TIP3    H153871   0.601   2.680  -4.662 -0.2147  0.5195 -0.8558
 9892TIP3    H253872   0.532   2.812  -4.689  0.5607  1.4074  1.2992
 9893TIP3   OH253873   2.651  -0.353  -3.425 -1.0523  0.1930 -0.2534
 9893TIP3    H153874   2.728  -0.307  -3.391 -0.7474 -0.7938  0.4132
 9893TIP3    H253875   2.684  -0.405  -3.498 -0.9461 -0.7582  0.4610
 9894TIP3   OH253876  -1.349   0.854  -3.235 -0.2787  0.0575 -0.3499
 9894TIP3    H153877  -1.351   0.796  -3.311  0.4075  0.7907 -0.9500
 9894TIP3    H253878  -1.255   0.865  -3.217 -0.4043  0.8217 -0.1322
 9895TIP3   OH253879  -0.393   1.733  -4.022  0.5240  0.2320  0.1904
 9895TIP3    H153880  -0.439   1.661  -3.979  0.7731  0.5991  1.1130
 9895TIP3    H253881  -0.423   1.731  -4.113  0.0346 -0.6210  0.3642
 9896TIP3   OH253882   2.357  -2.550  -2.467 -0.0357 -0.8543  0.2622
 9896TIP3    H153883   2.381  -2.630  -2.420 -1.5152 -0.6177  1.5035
 9896TIP3    H253884   2.271  -2.526  -2.431  1.3021  2.5544  1.6501
 9897TIP3   OH253885  -1.831   3.254  -2.896 -0.1720  0.8508 -0.1516
 9897TIP3    H153886  -1.872   3.276  -2.812 -0.3667  0.8399 -0.2430
 9897TIP3    H253887  -1.826   3.158  -2.895 -0.6498  0.8216 -0.3739
 9898TIP3   OH253888   1.766  -2.439  -4.940 -1.0200 -0.3976  0.2051
 9898TIP3    H153889   1.718  -2.499  -4.883  0.9251  0.7589  3.3148
 9898TIP3    H253890   1.779  -2.361  -4.886  3.1193 -0.1234 -0.9081
 9899TIP3   OH253891  -3.168  -1.203  -4.866 -0.0673 -0.5357 -0.0989
 9899TIP3    H153892  -3.241  -1.196  -4.928 -1.2110  0.9379  1.3304
 9899TIP3    H253893  -3.198  -1.155  -4.788  3.0240  1.4643  0.0011
 9900TIP3   OH253894  -1.395   2.216  -3.447  0.0424 -0.2643 -0.5977
 9900TIP3    H153895  -1.413   2.274  -3.521 -0.8062  0.1024 -0.1054
 9900TIP3    H253896  -1.403   2.271  -3.370 -1.5489 -1.1825 -0.0605
 9901TIP3   OH253897  -2.535   1.267  -5.749  0.0314  0.1797 -0.2848
 9901TIP3    H153898  -2.573   1.266  -5.837  0.1777  0.3252 -0.3501
 9901TIP3    H253899  -2.548   1.356  -5.718  1.1073  0.4852 -0.6546
 9902TIP3   OH253900  -2.887  -3.093  -3.746  0.7519 -0.1089  0.3268
 9902TIP3    H153901  -2.915  -3.002  -3.743  0.8410 -0.0840  0.3756
 9902TIP3    H253902  -2.962  -3.142  -3.710  0.0367 -0.2067 -1.2224
 9903TIP3   OH253903  -2.515  -0.231  -4.397 -0.1275  0.0971 -0.2043
 9903TIP3    H153904  -2.562  -0.169  -4.341 -0.7413  0.2376 -0.8689
 9903TIP3    H253905  -2.423  -0.215  -4.377 -0.3477 -0.6843  1.6505
 9904TIP3   OH253906  -2.534   0.020  -6.092 -0.2123 -0.4638  0.0705
 9904TIP3    H153907  -2.480   0.087  -6.050 -0.4393 -0.3723  0.2204
 9904TIP3    H253908  -2.610   0.069  -6.125  0.7915 -0.2070 -2.0442
 9905TIP3   OH253909   3.153   0.136  -3.866  0.4028  0.0620  0.2576
 9905TIP3    H153910   3.108   0.214  -3.899  0.9876  0.1569 -0.3306
 9905TIP3    H253911   3.231   0.170  -3.822  1.2599 -0.2291 -0.9774
 9906TIP3   OH253912   2.905   2.591  -5.476  0.5912 -0.5288  0.0132
 9906TIP3    H153913   2.872   2.593  -5.566  2.8364  0.4988 -0.8605
 9906TIP3    H253914   2.900   2.682  -5.447 -0.8797 -0.9627  1.2987
 9907TIP3   OH253915   1.426  -0.413  -4.705  0.2998 -0.1190 -0.1898
 9907TIP3    H153916   1.396  -0.465  -4.780  1.6041  0.4652 -1.1497
 9907TIP3    H253917   1.381  -0.329  -4.715 -0.9227 -0.6405  0.7216
 9908TIP3   OH253918   2.713  -0.409  -4.290  0.1860 -0.2057 -0.2927
 9908TIP3    H153919   2.695  -0.354  -4.366  1.2264  0.2937 -0.1960
 9908TIP3    H253920   2.717  -0.498  -4.325  0.2077 -0.0287 -0.7430
 9909TIP3   OH253921  -3.027   0.121  -2.601  0.4099 -0.1374 -0.0074
 9909TIP3    H153922  -3.082   0.134  -2.523  0.7052  2.3048 -0.1413
 9909TIP3    H253923  -3.013   0.209  -2.636  2.8687 -0.8634 -1.0612
 9910TIP3   OH253924   1.457   1.063  -5.257 -0.1390  0.9933  0.0025
 9910TIP3    H153925   1.440   0.988  -5.200 -3.0770  3.2146  2.4518
 9910TIP3    H253926   1.551   1.077  -5.252  0.0747 -0.6604  2.0363
 9911TIP3   OH253927  -2.619  -1.961  -2.924 -0.1850  0.2296  0.4666
 9911TIP3    H153928  -2.547  -1.960  -2.861 -0.4783 -3.3593  1.0944
 9911TIP3    H253929  -2.689  -1.911  -2.881 -0.3703 -2.0473  3.1488
 9912TIP3   OH253930  -0.131   1.454  -3.672 -0.3010  0.3705  0.2026
 9912TIP3    H153931  -0.152   1.448  -3.765  1.9919 -2.5462 -0.2776
 9912TIP3    H253932  -0.075   1.531  -3.665 -0.0345  0.2997 -0.9497
 9913TIP3   OH253933   0.763  -1.928  -3.291 -0.1737  0.1725  0.1990
 9913TIP3    H153934   0.771  -1.953  -3.383 -3.7150 -1.8500  0.2677
 9913TIP3    H253935   0.830  -1.980  -3.246  2.0778  1.7169 -1.2204
 9914TIP3   OH253936  -0.707  -0.230  -3.926  0.3520  0.3108  0.6088
 9914TIP3    H153937  -0.801  -0.229  -3.913  0.0157 -1.2345 -1.2003
 9914TIP3    H253938  -0.670  -0.233  -3.838 -1.3009  0.2369  1.3327
 9915TIP3   OH253939   0.297  -0.238  -2.957 -0.1310 -0.5404  0.3258
 9915TIP3    H153940   0.297  -0.272  -2.867 -0.3633 -0.3313  0.4068
 9915TIP3    H253941   0.228  -0.171  -2.957  0.0331 -0.3706  0.0557
 9916TIP3   OH253942   0.509   0.795  -5.668 -0.3961 -0.1985 -0.7372
 9916TIP3    H153943   0.427   0.844  -5.671  0.1222  0.6695 -1.3027
 9916TIP3    H253944   0.486   0.711  -5.627 -1.2667  0.5768  0.4192
 9917TIP3   OH253945  -2.930  -1.392  -5.598 -0.1293  0.4193 -0.3819
 9917TIP3    H153946  -2.979  -1.474  -5.589 -0.0982  0.4800  0.3883
 9917TIP3    H253947  -2.865  -1.395  -5.528 -0.4800  1.3553 -0.0048
 9918TIP3   OH253948  -1.429   0.607  -2.413  0.2055 -0.3466  0.1258
 9918TIP3    H153949  -1.455   0.686  -2.366  0.5293  0.4234 -0.9614
 9918TIP3    H253950  -1.336   0.619  -2.432  0.3011 -1.0734  0.1031
 9919TIP3   OH253951  -0.803  -2.153  -4.896 -0.0873 -0.3438  0.1390
 9919TIP3    H153952  -0.855  -2.222  -4.938 -0.1198  0.1804 -0.6891
 9919TIP3    H253953  -0.744  -2.122  -4.964 -0.8958  1.2745  0.1477
 9920TIP3   OH253954  -2.292  -1.774  -5.396 -0.0091 -0.0942 -0.4910
 9920TIP3    H153955  -2.206  -1.761  -5.436  0.6846 -0.9296  0.6766
 9920TIP3    H253956  -2.341  -1.696  -5.421  1.5256  1.0569 -0.0863
 9921TIP3   OH253957  -0.999   1.314  -3.818  0.7873  0.0947  0.4624
 9921TIP3    H153958  -0.950   1.234  -3.798  2.3052  0.3769 -1.7889
 9921TIP3    H253959  -1.081   1.304  -3.770  1.2120 -2.4805  0.8131
 9922TIP3   OH253960   2.806  -0.519  -3.884 -0.6344 -0.4817  0.2466
 9922TIP3    H153961   2.835  -0.594  -3.831 -1.2031 -1.1080 -0.3129
 9922TIP3    H253962   2.812  -0.444  -3.824  0.0745 -0.9435  0.7734
 9923TIP3   OH253963   1.265  -2.247  -3.114  0.2441  0.3774  0.2910
 9923TIP3    H153964   1.255  -2.155  -3.137  0.9629  0.0104 -1.7052
 9923TIP3    H253965   1.294  -2.289  -3.195 -0.8562 -1.7505  0.9238
 9924TIP3   OH253966  -3.088   2.164  -2.914  0.2049  0.4708  0.1030
 9924TIP3    H153967  -3.153   2.163  -2.844  0.1797 -1.3390  0.0887
 9924TIP3    H253968  -3.007   2.135  -2.872  0.1855 -0.6670 -0.6012
 9925TIP3   OH253969  -2.676  -3.234  -5.893 -0.3669 -0.0834  0.5859
 9925TIP3    H153970  -2.741  -3.256  -5.960 -0.1461  0.6547  0.1173
 9925TIP3    H253971  -2.681  -3.305  -5.830  0.4193 -1.5422 -0.9265
 9926TIP3   OH253972  -0.716  -2.528  -4.637  0.0780 -0.4192  0.4789
 9926TIP3    H153973  -0.730  -2.554  -4.728  1.4640 -0.7018  0.3245
 9926TIP3    H253974  -0.690  -2.436  -4.643  1.5200 -0.8067  0.4442
 9927TIP3   OH253975  -1.304  -2.716  -2.959 -0.0157  0.0722 -0.2955
 9927TIP3    H153976  -1.297  -2.761  -2.875  1.1574 -1.5979 -1.2220
 9927TIP3    H253977  -1.259  -2.633  -2.946  0.3140 -0.2452  0.6631
 9928TIP3   OH253978   1.886   2.267  -6.152 -0.1430 -0.2067 -0.0316
 9928TIP3    H153979   1.797   2.238  -6.134 -0.6046 -0.0536 -1.9218
 9928TIP3    H253980   1.941   2.191  -6.131 -0.8832 -0.8665 -0.4345
 9929TIP3   OH253981   1.760  -1.138  -3.223 -0.1001  0.5441 -0.2378
 9929TIP3    H153982   1.765  -1.070  -3.156  1.5910  0.1270  0.1112
 9929TIP3    H253983   1.849  -1.173  -3.228 -0.9180 -1.7135 -0.3165
 9930TIP3   OH253984   1.234  -1.969  -3.110 -0.6654 -0.7412 -0.3576
 9930TIP3    H153985   1.222  -1.997  -3.019  3.3173 -0.2342  0.5267
 9930TIP3    H253986   1.268  -1.879  -3.103  0.0210 -0.8017 -2.3061
 9931TIP3   OH253987   0.911   3.297  -3.760 -0.6540 -0.3689  0.1261
 9931TIP3    H153988   0.836   3.340  -3.719  0.2319  0.3855  1.0081
 9931TIP3    H253989   0.930   3.222  -3.702  0.0209  0.1579  0.6046
 9932TIP3   OH253990   3.218  -2.980  -3.503  0.0282  0.0634  0.0476
 9932TIP3    H153991   3.141  -2.943  -3.459  0.2260  1.3461 -0.6305
 9932TIP3    H253992   3.187  -3.064  -3.537 -1.0093  0.4332  0.0153
 9933TIP3   OH253993   2.436  -2.725  -3.075  0.5528  0.6703 -0.3138
 9933TIP3    H153994   2.475  -2.687  -2.997  0.6220  0.3805 -0.2055
 9933TIP3    H253995   2.493  -2.697  -3.147 -0.3343  2.1888 -0.4772
 9934TIP3   OH253996   1.732  -2.973  -5.505  0.5387  0.1563  0.6839
 9934TIP3    H153997   1.748  -2.879  -5.493 -0.9223  0.7381 -1.3331
 9934TIP3    H253998   1.787  -2.997  -5.579  0.4397 -0.4415  0.8031
 9935TIP3   OH253999  -2.425   2.462  -4.257  0.5635 -0.1629  0.2256
 9935TIP3    H154000  -2.363   2.401  -4.217  0.3235  0.9127  2.3885
 9935TIP3    H254001  -2.503   2.456  -4.202  0.1716  1.3333 -0.1173
 9936TIP3   OH254002  -0.751  -2.838  -3.022 -0.5537 -0.1413  0.1604
 9936TIP3    H154003  -0.785  -2.764  -2.970 -0.7687  0.5971 -0.9984
 9936TIP3    H254004  -0.789  -2.915  -2.980  0.1207  0.3433  1.7389
 9937TIP3   OH254005  -1.716  -2.941  -4.453  0.2197  0.5454 -0.1380
 9937TIP3    H154006  -1.703  -2.863  -4.400 -0.2183 -0.8078  2.0863
 9937TIP3    H254007  -1.630  -2.984  -4.454  0.0893  0.2832 -0.0757
 9938TIP3   OH254008   1.417  -2.682  -5.126  0.0816 -0.0184 -0.6051
 9938TIP3    H154009   1.506  -2.713  -5.143  0.2204 -0.6878  1.0718
 9938TIP3    H254010   1.364  -2.721  -5.195  0.9430 -0.3989 -1.0714
 9939TIP3   OH254011  -1.159  -0.262  -3.744 -0.0854 -0.1713  0.0054
 9939TIP3    H154012  -1.137  -0.206  -3.670 -1.6671 -0.3495  0.6542
 9939TIP3    H254013  -1.251  -0.244  -3.762 -0.1757 -1.3269 -0.8714
 9940TIP3   OH254014  -3.342  -0.032  -4.394 -0.3922  0.2064 -0.3298
 9940TIP3    H154015  -3.261   0.019  -4.404 -0.1239 -0.2897 -0.7264
 9940TIP3    H254016  -3.312  -0.119  -4.365 -0.8154  0.1474 -0.0599
 9941TIP3   OH254017   1.063   3.019  -2.035 -0.0601  0.6613 -0.4007
 9941TIP3    H154018   0.988   2.960  -2.041  0.3866 -0.0845  0.7466
 9941TIP3    H254019   1.026   3.107  -2.039 -0.8562  0.3086 -1.0695
 9942TIP3   OH254020  -2.803   0.706  -3.583 -0.1973 -0.1830 -0.0547
 9942TIP3    H154021  -2.862   0.646  -3.628 -1.1261  0.4521  0.2748
 9942TIP3    H254022  -2.857   0.745  -3.514 -0.1588  2.3902 -1.3864
 9943TIP3   OH254023   3.090  -0.728  -4.945  0.1377  0.2598  0.5809
 9943TIP3    H154024   3.169  -0.773  -4.916  2.2039  2.2251 -1.5344
 9943TIP3    H254025   3.044  -0.791  -5.001  0.8589 -0.4982  0.8271
 9944TIP3   OH254026   2.581   1.846  -4.785 -0.3880 -0.6656 -0.2107
 9944TIP3    H154027   2.493   1.852  -4.822 -0.1232  0.1635 -0.7460
 9944TIP3    H254028   2.567   1.850  -4.690 -0.8921  0.1916 -0.3050
 9945TIP3   OH254029   2.094  -0.341  -3.412  0.3615 -0.5001 -0.4479
 9945TIP3    H154030   2.078  -0.424  -3.457 -0.9711 -0.7424  0.4143
 9945TIP3    H254031   2.016  -0.288  -3.430  0.8030  0.2404 -0.2555
 9946TIP3   OH254032  -1.241  -3.241  -2.802  0.6739 -0.1233 -0.1399
 9946TIP3    H154033  -1.282  -3.229  -2.716 -0.8956  1.5655 -1.0515
 9946TIP3    H254034  -1.212  -3.332  -2.802 -0.3902 -0.5101  1.7218
 9947TIP3   OH254035   0.921  -0.741  -2.985 -0.0602  0.5889 -1.0268
 9947TIP3    H154036   0.942  -0.825  -3.025  1.0040  0.9297 -1.1950
 9947TIP3    H254037   1.005  -0.706  -2.955 -0.3671  1.9411 -1.6463
 9948TIP3   OH254038  -0.888  -2.640  -5.878 -0.3349  0.0311 -0.5435
 9948TIP3    H154039  -0.809  -2.689  -5.854 -0.0701  1.6317  2.3301
 9948TIP3    H254040  -0.959  -2.704  -5.870  0.2887 -0.5639  0.4027
 9949TIP3   OH254041  -1.499   3.115  -4.834  0.3623  0.1740  0.3379
 9949TIP3    H154042  -1.591   3.097  -4.816  0.2113 -1.0244 -1.3750
 9949TIP3    H254043  -1.460   3.029  -4.850  1.3368  0.7952 -0.7945
 9950TIP3   OH254044   1.579   1.147  -3.455 -0.2182 -0.7714  0.0980
 9950TIP3    H154045   1.654   1.183  -3.407 -0.4844  0.8986 -0.6785
 9950TIP3    H254046   1.605   1.154  -3.547 -1.9640  1.5044 -0.3083
 9951TIP3   OH254047  -2.098  -1.410  -4.737 -0.4716 -0.3174 -0.6532
 9951TIP3    H154048  -2.036  -1.364  -4.794 -0.1258  0.4990  0.3599
 9951TIP3    H254049  -2.091  -1.502  -4.763  0.5499 -0.1238 -1.1091
 9952TIP3   OH254050   0.692   0.181  -4.330 -0.0933  0.0450  0.2152
 9952TIP3    H154051   0.669   0.269  -4.299 -2.0131  0.5180 -2.1718
 9952TIP3    H254052   0.655   0.177  -4.419  0.8911 -2.8099 -0.1723
 9953TIP3   OH254053   1.945   0.129  -4.280  0.3417 -0.7437  0.0313
 9953TIP3    H154054   1.903   0.145  -4.364 -0.7427 -0.8958  0.5297
 9953TIP3    H254055   1.874   0.102  -4.222  1.2133 -1.5651  0.7534
 9954TIP3   OH254056  -3.214   0.533  -2.322 -0.1248 -0.2185  0.1507
 9954TIP3    H154057  -3.298   0.510  -2.361 -0.2867  1.4533 -0.5671
 9954TIP3    H254058  -3.222   0.503  -2.231 -1.7415  0.4306  0.2667
 9955TIP3   OH254059  -1.955  -2.018  -3.008  0.3271  0.1629  0.1051
 9955TIP3    H154060  -2.005  -1.954  -3.059 -0.1708 -0.1326  0.2224
 9955TIP3    H254061  -1.912  -1.966  -2.940 -2.0570  0.1211  1.7889
 9956TIP3   OH254062  -1.686  -3.240  -2.330  0.4647  0.3080  0.1619
 9956TIP3    H154063  -1.685  -3.287  -2.413 -0.7662 -0.5309  0.5798
 9956TIP3    H254064  -1.677  -3.148  -2.354 -1.6369  0.2694 -1.0965
 9957TIP3   OH254065  -0.377  -0.869  -3.285 -0.0011  0.2672  0.4767
 9957TIP3    H154066  -0.415  -0.868  -3.197 -2.8743  1.3759 -0.6656
 9957TIP3    H254067  -0.367  -0.962  -3.306 -0.3023 -0.0203  1.5562
 9958TIP3   OH254068  -2.222  -2.817  -3.542  0.3119 -0.5019  0.1257
 9958TIP3    H154069  -2.143  -2.870  -3.530  0.7244  0.0395 -0.1293
 9958TIP3    H254070  -2.190  -2.734  -3.578 -0.4248 -0.4846 -0.5380
 9959TIP3   OH254071  -0.177  -3.126  -4.746 -0.4750 -0.2094  0.3530
 9959TIP3    H154072  -0.097  -3.162  -4.708 -1.4073 -0.1946  2.4879
 9959TIP3    H254073  -0.232  -3.203  -4.764  0.7046 -0.4223 -3.1086
 9960TIP3   OH254074  -0.766  -1.846  -2.144 -0.0838  0.3984 -0.2864
 9960TIP3    H154075  -0.775  -1.752  -2.158 -0.5258  0.3352 -0.4593
 9960TIP3    H254076  -0.673  -1.864  -2.158  0.2685  1.0193  1.1310
 9961TIP3   OH254077  -0.335  -1.800  -5.132  0.3529  0.3883  0.2692
 9961TIP3    H154078  -0.307  -1.859  -5.062 -0.6379 -0.0688  0.2847
 9961TIP3    H254079  -0.305  -1.714  -5.103  0.4023  0.1314  1.0052
 9962TIP3   OH254080   0.777  -0.801  -4.369 -0.0019 -0.0309 -0.1806
 9962TIP3    H154081   0.728  -0.723  -4.394 -1.3632 -0.0251  2.2354
 9962TIP3    H254082   0.861  -0.768  -4.337 -0.6782  0.5284  1.0996
 9963TIP3   OH254083  -2.856  -3.224  -4.376 -0.1319 -0.5113  0.0298
 9963TIP3    H154084  -2.902  -3.157  -4.326 -0.4973 -0.4925 -0.3226
 9963TIP3    H254085  -2.767  -3.192  -4.383 -0.2584 -0.1548  0.0297
 9964TIP3   OH254086   3.075  -1.120  -5.400 -0.1487  0.5229  0.2984
 9964TIP3    H154087   3.053  -1.101  -5.492  1.1265 -0.3202 -0.1961
 9964TIP3    H254088   3.025  -1.199  -5.379  1.3715 -0.6796 -0.4439
 9965TIP3   OH254089  -2.101  -2.169  -2.511 -0.2730 -0.0556 -0.3669
 9965TIP3    H154090  -2.136  -2.112  -2.579  1.0730 -0.9419 -1.8806
 9965TIP3    H254091  -2.031  -2.118  -2.470  1.1229 -0.6228 -1.9099
 9966TIP3   OH254092   0.151  -1.133  -5.354  0.1326  0.1935  0.2364
 9966TIP3    H154093   0.060  -1.136  -5.384 -0.3518  0.3453  1.6455
 9966TIP3    H254094   0.147  -1.162  -5.263  1.6268 -0.7164  0.0445
 9967TIP3   OH254095  -1.772   1.507  -5.531 -0.0370  0.3030  0.2110
 9967TIP3    H154096  -1.752   1.509  -5.624 -1.3815  0.5022 -0.0886
 9967TIP3    H254097  -1.771   1.414  -5.509 -1.8085  0.0762 -0.5050
 9968TIP3   OH254098  -2.597  -1.833  -4.104 -0.1422  0.0693 -0.0405
 9968TIP3    H154099  -2.584  -1.928  -4.094  2.0262  0.3815  0.6126
 9968TIP3    H254100  -2.517  -1.802  -4.146 -1.0083  1.5814 -0.6608
 9969TIP3   OH254101  -2.641   1.744  -3.924 -0.1042  0.4581  0.6304
 9969TIP3    H154102  -2.697   1.760  -4.000  0.6513 -0.6117 -0.1843
 9969TIP3    H254103  -2.680   1.668  -3.880  1.4165 -1.2011 -0.7366
 9970TIP3   OH254104   2.634   1.965  -5.448  0.3008  0.2561  0.5334
 9970TIP3    H154105   2.696   2.030  -5.479  0.6155 -1.0794 -1.8948
 9970TIP3    H254106   2.688   1.890  -5.423 -0.2373 -0.6754 -0.9635
 9971TIP3   OH254107   2.213   0.613  -2.696  0.2452 -0.7531  0.5380
 9971TIP3    H154108   2.307   0.614  -2.680  0.0776  3.7255  2.8923
 9971TIP3    H254109   2.204   0.646  -2.785  0.9817  0.9730  1.0542
 9972TIP3   OH254110  -1.143   2.985  -2.314  0.0358  0.3230 -0.1652
 9972TIP3    H154111  -1.051   2.962  -2.301 -0.0317  0.9310  1.6896
 9972TIP3    H254112  -1.185   2.966  -2.229 -0.9885  2.5412 -0.1082
 9973TIP3   OH254113  -1.859   0.212  -3.162  0.3359 -0.3780  0.7895
 9973TIP3    H154114  -1.859   0.305  -3.139 -2.5079 -0.5703  1.9760
 9973TIP3    H254115  -1.850   0.211  -3.258  1.2766  1.0315  0.8380
 9974TIP3   OH254116   2.654   1.596  -3.826 -0.1620 -0.3588  0.2893
 9974TIP3    H154117   2.621   1.625  -3.741 -0.1869 -0.9789  0.4924
 9974TIP3    H254118   2.748   1.616  -3.823 -0.2723  0.2105  0.2064
 9975TIP3   OH254119  -2.210  -1.857  -5.063  0.3173 -0.6243  0.5484
 9975TIP3    H154120  -2.277  -1.922  -5.044  1.0062 -0.4539  4.4896
 9975TIP3    H254121  -2.242  -1.776  -5.023  1.0875  0.5770 -1.1187
 9976TIP3   OH254122  -2.702  -0.049  -4.655 -0.6171 -0.0924  0.5479
 9976TIP3    H154123  -2.728  -0.023  -4.743 -0.3957  0.9537  0.7851
 9976TIP3    H254124  -2.778  -0.098  -4.622 -0.8774 -0.1052 -0.0520
 9977TIP3   OH254125  -0.928  -0.277  -5.259 -0.6839 -0.5489 -0.0845
 9977TIP3    H154126  -0.873  -0.309  -5.187 -0.6686 -1.0751 -0.3205
 9977TIP3    H254127  -0.931  -0.182  -5.247  0.4143 -0.4914 -0.1671
 9978TIP3   OH254128  -0.990   1.041  -5.649 -0.0867  0.1860 -0.4211
 9978TIP3    H154129  -1.053   1.059  -5.579  0.8211  0.2406  0.4076
 9978TIP3    H254130  -1.031   1.077  -5.728 -1.1745  0.0381  0.0548
 9979TIP3   OH254131   0.210   2.150  -2.198  0.1835  0.7163  0.4260
 9979TIP3    H154132   0.264   2.098  -2.138 -0.9809  0.0966  0.9629
 9979TIP3    H254133   0.272   2.212  -2.237  1.1423  0.5436  1.5919
 9980TIP3   OH254134  -2.710   0.059  -2.581 -0.3217  0.1982  0.2349
 9980TIP3    H154135  -2.774   0.069  -2.511  0.0074 -0.7300  0.6733
 9980TIP3    H254136  -2.631   0.025  -2.538 -0.2948 -0.9197 -0.6645
 9981TIP3   OH254137   3.335  -2.473  -2.680 -0.1292 -0.5140  0.6280
 9981TIP3    H154138   3.359  -2.492  -2.771  0.0343 -0.0164  0.5607
 9981TIP3    H254139   3.248  -2.512  -2.670 -0.7575  0.6139 -0.1754
 9982TIP3   OH254140  -3.223   1.575  -5.170 -0.1169  0.1521  0.4646
 9982TIP3    H154141  -3.210   1.490  -5.212  1.9473  1.1484 -1.0829
 9982TIP3    H254142  -3.287   1.558  -5.101  0.3314 -2.6723  0.2977
 9983TIP3   OH254143  -0.685  -1.594  -3.200  0.3998  0.3115  0.1656
 9983TIP3    H154144  -0.632  -1.667  -3.230  0.2782  0.4067 -0.3024
 9983TIP3    H254145  -0.663  -1.583  -3.108  0.4599 -0.2755  0.2206
 9984TIP3   OH254146  -1.574  -1.395  -5.717  0.1237 -0.2959  0.1415
 9984TIP3    H154147  -1.544  -1.366  -5.631  0.6632 -1.1036  0.2320
 9984TIP3    H254148  -1.614  -1.317  -5.756 -0.2650  0.0377  1.1838
 9985TIP3   OH254149   1.370  -2.698  -2.890  0.5701 -0.0860 -0.1069
 9985TIP3    H154150   1.304  -2.639  -2.926  0.9163  1.0922  1.1036
 9985TIP3    H254151   1.360  -2.779  -2.940 -1.0757  0.4210 -0.6600
 9986TIP3   OH254152  -2.142  -0.197  -4.108  0.3469 -0.0892  0.0854
 9986TIP3    H154153  -2.088  -0.159  -4.039  0.8495  1.1048 -0.9355
 9986TIP3    H254154  -2.097  -0.279  -4.130  1.6556  0.7600 -0.5697
 9987TIP3   OH254155   2.736   1.257  -3.652 -0.0807 -0.0260 -0.0067
 9987TIP3    H154156   2.759   1.324  -3.716 -0.4928  0.0038 -0.1254
 9987TIP3    H254157   2.815   1.249  -3.598  0.0700  0.3586 -0.1584
 9988TIP3   OH254158  -0.357   2.246  -3.719 -0.0516  0.0320  0.0172
 9988TIP3    H154159  -0.440   2.266  -3.675 -0.6544  0.0598 -1.0998
 9988TIP3    H254160  -0.307   2.196  -3.654 -1.1845 -0.5238  0.4962
 9989TIP3   OH254161   0.723  -2.568  -2.815 -0.2269 -0.3414  0.5846
 9989TIP3    H154162   0.675  -2.648  -2.796 -1.3714  0.4253  1.0631
 9989TIP3    H254163   0.805  -2.577  -2.767 -0.4370 -1.1343  0.8008
 9990TIP3   OH254164   0.414  -1.030  -4.803 -0.1089 -0.0720 -0.1862
 9990TIP3    H154165   0.426  -0.995  -4.892  0.4182  0.3965  0.0658
 9990TIP3    H254166   0.334  -0.988  -4.772  1.1480  1.9139  0.5675
 9991TIP3   OH254167   1.681   2.872  -5.877 -0.2825 -0.3470 -0.1470
 9991TIP3    H154168   1.761   2.916  -5.847 -0.3496  1.7169 -2.6511
 9991TIP3    H254169   1.707   2.781  -5.891  0.9079 -0.2994  1.5085
 9992TIP3   OH254170  -1.397   1.404  -4.741  0.4587  0.4207  0.0942
 9992TIP3    H154171  -1.480   1.426  -4.783  0.4515  0.2855  0.0350
 9992TIP3    H254172  -1.364   1.330  -4.792  1.7889  1.9620 -1.3847
 9993TIP3   OH254173   1.627   0.617  -2.363  0.6996 -0.2526 -0.2093
 9993TIP3    H154174   1.602   0.566  -2.440  0.0190  0.6275 -0.5906
 9993TIP3    H254175   1.642   0.705  -2.396  1.1398 -0.0287  0.5565
 9994TIP3   OH254176   3.275   2.434  -4.903  0.0245 -0.8574 -0.4399
 9994TIP3    H154177   3.255   2.343  -4.881  0.0495 -0.5906  0.7585
 9994TIP3    H254178   3.193   2.469  -4.939 -1.2836 -0.2811  2.7472
 9995TIP3   OH254179  -1.443  -0.244  -3.435 -0.2800 -0.0490 -0.4426
 9995TIP3    H154180  -1.406  -0.241  -3.347 -0.5527 -0.8653 -0.2929
 9995TIP3    H254181  -1.448  -0.152  -3.461  3.0718  0.0937 -1.0234
 9996TIP3   OH254182  -3.050  -0.176  -3.714 -0.5946  0.4557  0.2352
 9996TIP3    H154183  -2.985  -0.200  -3.648  0.1684  0.1612 -0.6024
 9996TIP3    H254184  -3.117  -0.243  -3.707 -0.4829  0.3824  0.6536
 9997TIP3   OH254185   0.933  -0.421  -4.776  0.6254 -0.1929 -0.2039
 9997TIP3    H154186   0.840  -0.444  -4.784  0.4681  0.3022  0.1275
 9997TIP3    H254187   0.958  -0.389  -4.862  0.5070 -0.4006 -0.3153
 9998TIP3   OH254188   2.229  -2.698  -4.712  0.6771 -0.4697  0.0062
 9998TIP3    H154189   2.170  -2.630  -4.745  1.0117 -0.0601  0.2459
 9998TIP3    H254190   2.279  -2.655  -4.642  1.0785 -0.8860 -0.0187
 9999TIP3   OH254191  -0.991  -2.309  -2.983  0.0740 -0.0166  0.3203
 9999TIP3    H154192  -0.950  -2.332  -2.900 -0.3503  2.0452  1.1605
 9999TIP3    H254193  -1.073  -2.358  -2.984  0.8423 -1.3560  0.2941
10000TIP3   OH254194  -2.496  -1.736  -5.055  0.2306  0.0948 -0.2580
10000TIP3    H154195  -2.562  -1.674  -5.025 -0.4197  0.5115 -2.3785
10000TIP3    H254196  -2.423  -1.682  -5.083 -0.7011  0.0542 -2.9940
10001TIP3   OH254197   0.549  -1.664  -2.930  0.0944 -0.0267  0.1759
10001TIP3    H154198   0.571  -1.638  -2.840  1.9241  0.3009 -0.3302
10001TIP3    H254199   0.486  -1.598  -2.958 -0.3041  0.0171  1.1253
10002TIP3   OH254200  -1.315  -0.458  -4.887 -0.2130  0.3779 -0.1533
10002TIP3    H154201  -1.266  -0.434  -4.966 -0.0543  0.3481 -0.0654
10002TIP3    H254202  -1.248  -0.493  -4.828 -0.2510  0.8670  0.1853
10003TIP3   OH254203  -0.261  -0.354  -4.139  0.4785 -0.0603  0.1277
10003TIP3    H154204  -0.279  -0.266  -4.106 -0.6049  0.2068 -1.0918
10003TIP3    H254205  -0.345  -0.399  -4.133  0.1950  0.0330 -2.2498
10004TIP3   OH254206  -1.790   2.008  -2.367 -0.1055  0.2324 -0.7006
10004TIP3    H154207  -1.847   1.953  -2.312  1.0837 -0.6632 -0.3077
10004TIP3    H254208  -1.704   2.000  -2.326  0.9594 -0.9482 -3.0099
10005TIP3   OH254209  -2.250  -0.485  -2.301  0.5598 -0.0775  0.5166
10005TIP3    H154210  -2.157  -0.508  -2.298  0.1840 -1.9742 -0.6523
10005TIP3    H254211  -2.290  -0.540  -2.234  0.2744  0.7197  1.0019
10006TIP3   OH254212  -2.495   1.263  -3.085  0.0927  0.2161  0.3066
10006TIP3    H154213  -2.430   1.214  -3.135 -0.8785 -0.9447  0.1350
10006TIP3    H254214  -2.511   1.210  -3.007  1.2671  1.7906  1.7154
10007TIP3   OH254215  -2.644   0.562  -4.430 -0.1404  0.5818 -0.3053
10007TIP3    H154216  -2.564   0.542  -4.480  0.9977  2.4466  0.6761
10007TIP3    H254217  -2.648   0.657  -4.428 -1.5095  0.5330  1.0660
10008TIP3   OH254218  -1.752   2.522  -5.651  0.1032  0.8192  0.0861
10008TIP3    H154219  -1.714   2.436  -5.671  1.2687  1.3753 -0.1371
10008TIP3    H254220  -1.677   2.580  -5.642 -0.6684  1.7802  0.4668
10009TIP3   OH254221  -3.285  -0.459  -2.918 -0.1819  0.3670 -0.0014
10009TIP3    H154222  -3.230  -0.449  -2.995 -1.1684 -0.0305 -0.7765
10009TIP3    H254223  -3.250  -0.396  -2.855 -0.2144  1.6934 -1.2558
10010TIP3   OH254224   1.271   3.201  -5.712 -0.1743 -0.3001  0.3359
10010TIP3    H154225   1.187   3.218  -5.755  0.7598  3.2155 -0.4718
10010TIP3    H254226   1.317   3.143  -5.772 -1.4868 -1.1506  0.1096
10011TIP3   OH254227   0.022   3.032  -5.544 -0.6008  0.1293  0.2362
10011TIP3    H154228   0.085   2.989  -5.486 -0.9687 -1.2948 -0.3701
10011TIP3    H254229  -0.061   2.986  -5.528 -1.2310  1.1930  0.1638
10012TIP3   OH254230  -1.004   1.985  -4.488 -0.0172  0.3072  0.2208
10012TIP3    H154231  -0.914   1.959  -4.466 -0.0676  0.6852  0.8901
10012TIP3    H254232  -1.054   1.969  -4.408 -0.7163 -0.6326 -0.3890
10013TIP3   OH254233   0.684  -2.516  -3.852  0.4635 -0.0876 -0.1529
10013TIP3    H154234   0.623  -2.574  -3.898  0.5148  1.1509 -1.8699
10013TIP3    H254235   0.768  -2.533  -3.894  0.6033  0.7138 -0.2079
10014TIP3   OH254236  -1.553  -2.928  -4.747  0.3653 -0.0125  0.2450
10014TIP3    H154237  -1.611  -2.873  -4.694 -0.1720  0.4172 -0.7534
10014TIP3    H254238  -1.608  -3.001  -4.775  0.6195 -0.1910  0.2073
10015TIP3   OH254239  -1.111  -2.858  -5.515 -0.9067  0.0181 -0.2246
10015TIP3    H154240  -1.202  -2.840  -5.491 -0.5843  0.0148  1.1109
10015TIP3    H254241  -1.104  -2.830  -5.606 -1.6415  2.2813  0.3372
10016TIP3   OH254242   2.836   3.175  -3.079  0.6238  0.6099  0.2803
10016TIP3    H154243   2.794   3.095  -3.047 -1.5677  1.4184 -0.3691
10016TIP3    H254244   2.838   3.165  -3.174  2.9188  0.1759  0.3256
10017TIP3   OH254245  -0.737   2.848  -4.657 -0.1185 -0.3321  0.0628
10017TIP3    H154246  -0.661   2.798  -4.627  0.3093  1.1217  1.5976
10017TIP3    H254247  -0.812   2.804  -4.616  0.0608 -0.7796 -0.0843
10018TIP3   OH254248   0.925   2.875  -5.396  0.0151  0.1024  0.4017
10018TIP3    H154249   0.876   2.920  -5.327  1.2452  0.8592  0.7978
10018TIP3    H254250   0.946   2.790  -5.359  0.0247  0.2208  0.6689
10019TIP3   OH254251  -1.896   2.942  -3.623  0.6608  0.1668  0.4458
10019TIP3    H154252  -1.852   2.874  -3.572 -0.3786 -0.0944  1.0375
10019TIP3    H254253  -1.827   3.002  -3.649  1.5121 -0.7955  0.4330
10020TIP3   OH254254   3.272  -2.020  -4.991  0.3558 -0.1931 -0.1132
10020TIP3    H154255   3.184  -2.060  -4.989  0.0686  0.3931 -0.5326
10020TIP3    H254256   3.269  -1.952  -4.924 -0.1014  0.9789 -1.2775
10021TIP3   OH254257  -2.214  -0.318  -4.452 -0.5108 -0.0748  0.0124
10021TIP3    H154258  -2.206  -0.316  -4.547 -3.3509  1.5966 -0.2990
10021TIP3    H254259  -2.180  -0.404  -4.427 -0.0060 -0.6922 -2.5075
10022TIP3   OH254260   1.872   2.244  -5.013 -0.0215 -0.2451 -0.1456
10022TIP3    H154261   1.854   2.212  -4.925 -1.7249  1.9501  0.3945
10022TIP3    H254262   1.827   2.182  -5.071  0.4181 -1.2324  0.5524
10023TIP3   OH254263   0.736  -1.654  -3.457  0.0238 -0.4041  0.0261
10023TIP3    H154264   0.720  -1.631  -3.548 -0.6680 -0.7202  0.0566
10023TIP3    H254265   0.774  -1.742  -3.461  2.7048  0.6711 -0.0932
10024TIP3   OH254266   0.097   2.092  -3.461 -0.2511  0.0005  0.1164
10024TIP3    H154267   0.186   2.074  -3.431  0.1431 -1.8812 -1.8952
10024TIP3    H254268   0.042   2.034  -3.408  0.1528 -1.4042 -0.9380
10025TIP3   OH254269  -0.141   2.091  -3.661 -0.5512  0.1570 -0.0208
10025TIP3    H154270  -0.063   2.051  -3.622 -0.2946  2.3845  1.9757
10025TIP3    H254271  -0.170   2.028  -3.727  2.1363 -1.3560  0.1113
10026TIP3   OH254272   1.817   0.404  -4.397 -0.8854 -0.1549 -0.1817
10026TIP3    H154273   1.911   0.406  -4.417 -0.9428 -0.3251 -0.4769
10026TIP3    H254274   1.811   0.433  -4.306 -0.3372 -2.3069  0.6057
10027TIP3   OH254275  -0.884   0.503  -4.818 -0.0733 -0.4531  0.2657
10027TIP3    H154276  -0.878   0.545  -4.904  0.5886 -0.1668  0.4426
10027TIP3    H254277  -0.793   0.490  -4.792 -0.2606  0.3418  1.3449
10028TIP3   OH254278  -0.566   2.041  -2.187  0.3954 -0.1753  0.0494
10028TIP3    H154279  -0.474   2.067  -2.195  0.6224 -0.8382  0.4252
10028TIP3    H254280  -0.595   2.080  -2.105  0.6252 -0.7790  0.4207
10029TIP3   OH254281  -1.582   0.958  -3.755  0.7695  0.3341 -0.0298
10029TIP3    H154282  -1.636   0.917  -3.822 -0.4775  0.9370  0.5689
10029TIP3    H254283  -1.492   0.937  -3.780  0.2785 -0.4674 -1.2036
10030TIP3   OH254284   2.996  -3.306  -4.027  0.2422  0.1765  0.6575
10030TIP3    H154285   3.001  -3.235  -3.964 -2.1416 -0.3514  1.5271
10030TIP3    H254286   2.949  -3.376  -3.982 -0.7496 -0.5660 -1.3711
10031TIP3   OH254287   1.147   3.239  -5.478  0.1411 -0.6827 -0.1049
10031TIP3    H154288   1.150   3.322  -5.432 -2.7318  1.0172 -2.5840
10031TIP3    H254289   1.217   3.245  -5.543  1.3168 -1.1808  1.0825
10032TIP3   OH254290   1.022   1.294  -3.469  0.2011  0.8715  0.1708
10032TIP3    H154291   1.060   1.206  -3.470 -0.9941  0.2540 -2.7130
10032TIP3    H254292   1.048   1.331  -3.385  1.8059 -1.7640  0.9502
10033TIP3   OH254293   1.664  -0.052  -5.046 -0.6639 -0.0288 -0.1452
10033TIP3    H154294   1.653  -0.078  -5.138 -0.2236 -1.8733  0.2936
10033TIP3    H254295   1.636   0.039  -5.044  0.8717  0.5687 -2.4348
10034TIP3   OH254296   1.049   1.517  -5.217 -0.5112  0.3630 -0.5468
10034TIP3    H154297   0.980   1.481  -5.271 -0.9469  2.3466 -1.4217
10034TIP3    H254298   1.012   1.597  -5.180  0.2256 -0.2457  1.6738
10035TIP3   OH254299  -2.518   0.501  -5.938  0.0120 -0.0740  0.0090
10035TIP3    H154300  -2.592   0.516  -5.997  0.8340  1.9977 -0.5809
10035TIP3    H254301  -2.558   0.494  -5.851 -1.0011 -0.6834 -0.4839
10036TIP3   OH254302   0.322   2.753  -4.946  0.2289 -0.1669 -0.3529
10036TIP3    H154303   0.257   2.749  -5.016 -1.6890 -0.3989  1.3385
10036TIP3    H254304   0.332   2.662  -4.917 -0.0152  0.0842  0.5456
10037TIP3   OH254305   2.380   2.251  -3.173  0.1485  0.1475  0.1534
10037TIP3    H154306   2.369   2.257  -3.268  0.4391 -0.6845  0.0581
10037TIP3    H254307   2.291   2.256  -3.138  0.1575  3.1959  0.0577
10038TIP3   OH254308  -0.127  -1.738  -5.309 -0.0072 -0.0045  0.0466
10038TIP3    H154309  -0.130  -1.643  -5.303 -1.6188  0.2415 -2.7523
10038TIP3    H254310  -0.216  -1.766  -5.286  0.2230 -0.7795  0.0197
10039TIP3   OH254311   2.463  -0.352  -4.966  0.0252 -0.3377 -0.2571
10039TIP3    H154312   2.388  -0.379  -5.019 -0.6093  0.2989  0.2968
10039TIP3    H254313   2.480  -0.262  -4.993  0.5017 -0.4305 -0.2729
10040TIP3   OH254314  -0.502  -1.433  -3.323  0.4988 -0.5008 -0.0241
10040TIP3    H154315  -0.421  -1.484  -3.314 -0.2393 -1.8362 -0.6403
10040TIP3    H254316  -0.567  -1.483  -3.274 -0.1668  0.0778 -0.3007
10041TIP3   OH254317   0.972  -1.322  -3.463 -0.0460 -0.0271 -0.1701
10041TIP3    H154318   1.010  -1.259  -3.525 -0.7163 -0.4929 -1.0703
10041TIP3    H254319   0.880  -1.328  -3.488 -0.0998 -0.9903  0.2230
10042TIP3   OH254320  -3.161  -0.422  -3.617  0.5245 -0.1795 -0.1358
10042TIP3    H154321  -3.210  -0.492  -3.660  1.2207 -0.6110 -0.2487
10042TIP3    H254322  -3.087  -0.466  -3.576  1.8616  0.6319 -1.5208
10043TIP3   OH254323  -1.645   1.174  -3.423  0.0425  0.0937  0.0078
10043TIP3    H154324  -1.608   1.134  -3.501  0.2531  1.5985 -0.6954
10043TIP3    H254325  -1.736   1.143  -3.421 -0.1938  0.6469 -1.2799
10044TIP3   OH254326  -2.819   2.576  -5.525 -0.2159 -0.4491 -0.1693
10044TIP3    H154327  -2.781   2.662  -5.542 -1.5894  0.1204 -0.4722
10044TIP3    H254328  -2.744   2.518  -5.513  0.7313  0.8367  0.2792
10045TIP3   OH254329   0.442   3.315  -3.915  0.0153 -0.6191  0.5438
10045TIP3    H154330   0.387   3.341  -3.841  1.3153  0.4931  1.1711
10045TIP3    H254331   0.487   3.236  -3.884 -0.9180 -1.2957  0.1827
10046TIP3   OH254332  -2.295   0.600  -4.258  0.2571  0.3724  0.3936
10046TIP3    H154333  -2.362   0.666  -4.244  0.1729  0.4212 -0.2291
10046TIP3    H254334  -2.222   0.647  -4.299  0.6119  0.2892  0.9171
10047TIP3   OH254335   2.485   0.719  -3.714 -0.1110 -0.3511 -0.1012
10047TIP3    H154336   2.460   0.646  -3.656  0.0907  0.0976  0.5607
10047TIP3    H254337   2.437   0.794  -3.680  0.2375 -0.0181 -0.3416
10048TIP3   OH254338   1.893   2.909  -5.112  0.0953  0.3348 -0.3035
10048TIP3    H154339   1.843   2.986  -5.083 -0.3417 -0.0074 -0.1348
10048TIP3    H254340   1.856   2.887  -5.197 -0.2177 -0.0698 -0.0669
10049TIP3   OH254341  -1.973   2.479  -4.527 -0.0989 -0.0318  0.0232
10049TIP3    H154342  -2.027   2.408  -4.491  0.7760 -0.4918  0.4442
10049TIP3    H254343  -1.986   2.552  -4.466 -2.7610  0.9934 -1.5722
10050TIP3   OH254344   2.812   1.632  -5.061 -0.0198 -0.3373  0.7381
10050TIP3    H154345   2.719   1.618  -5.046  0.2736 -1.2881  1.8393
10050TIP3    H254346   2.853   1.550  -5.034  1.2295  0.4458  1.3008
10051TIP3   OH254347  -2.945   1.545  -4.871 -0.3083  0.1648 -0.5838
10051TIP3    H154348  -2.953   1.637  -4.896  1.2919  1.0978  1.9282
10051TIP3    H254349  -2.887   1.507  -4.937 -0.2950  1.1832 -1.1780
10052TIP3   OH254350  -0.229   2.813  -3.176  0.1098 -0.0720 -0.2439
10052TIP3    H154351  -0.280   2.875  -3.228  2.9174 -0.1140 -3.3544
10052TIP3    H254352  -0.153   2.863  -3.146  0.5269 -1.0969  0.4874
10053TIP3   OH254353  -0.624  -2.888  -5.575 -0.1393 -0.7241  0.6646
10053TIP3    H154354  -0.664  -2.873  -5.660 -1.5365  0.1946  1.4659
10053TIP3    H254355  -0.553  -2.950  -5.594 -0.2436 -0.3443 -1.1948
10054TIP3   OH254356   1.749   2.118  -5.243 -1.0423  0.1649  0.1455
10054TIP3    H154357   1.754   2.069  -5.326 -0.8359 -0.7132  0.6616
10054TIP3    H254358   1.678   2.181  -5.257  0.3926  1.5254 -1.4483
10055TIP3   OH254359  -0.840   1.486  -3.955  0.0515 -0.1042 -0.2576
10055TIP3    H154360  -0.770   1.533  -3.908 -0.0595  0.4789 -0.6601
10055TIP3    H254361  -0.892   1.445  -3.886 -0.4183  1.1736  0.1911
10056TIP3   OH254362   0.398   1.314  -4.866  0.3384 -0.1365 -0.4230
10056TIP3    H154363   0.397   1.377  -4.937  2.2494  1.2981  0.7161
10056TIP3    H254364   0.481   1.330  -4.821 -0.2955 -1.7381  1.4677
10057TIP3   OH254365   2.741  -0.387  -5.098 -0.1458 -0.2090  0.0772
10057TIP3    H154366   2.766  -0.479  -5.100 -1.1253 -0.5119 -2.8127
10057TIP3    H254367   2.646  -0.387  -5.090 -0.1488  0.5352  0.1533
10058TIP3   OH254368   1.626   0.272  -4.279 -0.0723 -0.2994 -0.2151
10058TIP3    H154369   1.706   0.307  -4.318 -0.5676  0.8482 -0.2506
10058TIP3    H254370   1.574   0.242  -4.353  1.0462 -2.7283 -0.0880
10059TIP3   OH254371  -1.492  -2.482  -4.455  0.2659 -0.1786 -0.8083
10059TIP3    H154372  -1.427  -2.432  -4.406  0.2322 -0.1464 -0.7968
10059TIP3    H254373  -1.442  -2.526  -4.524  0.2504  0.1111 -1.0046
10060TIP3   OH254374  -2.959   1.893  -3.495  0.3011  0.3463 -0.1489
10060TIP3    H154375  -2.900   1.820  -3.512 -1.3006 -0.8137 -0.9752
10060TIP3    H254376  -2.907   1.971  -3.516  1.0759 -0.6771 -2.3774
10061TIP3   OH254377  -2.505  -1.684  -2.603 -0.0549  0.3480  0.0551
10061TIP3    H154378  -2.445  -1.621  -2.644 -1.5804  0.5743 -2.0097
10061TIP3    H254379  -2.584  -1.681  -2.658 -2.2464  0.5138  3.0085
10062TIP3   OH254380   2.242   0.617  -4.667  0.3763 -0.4070  0.0643
10062TIP3    H154381   2.190   0.676  -4.722 -0.0083 -0.2676  0.5675
10062TIP3    H254382   2.329   0.618  -4.707  0.8132  1.6902  0.9077
10063TIP3   OH254383   1.248  -3.244  -2.825 -0.4828 -0.2031  0.4350
10063TIP3    H154384   1.197  -3.229  -2.904  0.5389 -1.4604 -0.5193
10063TIP3    H254385   1.213  -3.183  -2.761 -0.3514  1.9318 -1.4209
10064TIP3   OH254386  -0.592  -1.431  -2.605 -0.4462  0.4117 -0.1872
10064TIP3    H154387  -0.648  -1.357  -2.629 -0.3743  0.6771  0.4606
10064TIP3    H254388  -0.503  -1.399  -2.619 -0.3836  0.7267  0.8461
10065TIP3   OH254389  -1.139  -1.617  -4.170 -0.5012  0.0288 -0.2810
10065TIP3    H154390  -1.161  -1.590  -4.259 -0.2802  1.2615  0.0143
10065TIP3    H254391  -1.092  -1.700  -4.180  1.6713  1.3139 -1.5312
10066TIP3   OH254392   2.700   1.786  -4.091  0.3962 -0.6300 -0.5278
10066TIP3    H154393   2.675   1.724  -4.159  1.5199 -0.9778 -0.6475
10066TIP3    H254394   2.792   1.765  -4.072 -0.0950 -1.0530  1.6303
10067TIP3   OH254395   1.131  -2.436  -4.575  0.1566  0.0076  0.1790
10067TIP3    H154396   1.166  -2.378  -4.643  0.6335  0.0496  0.4577
10067TIP3    H254397   1.073  -2.496  -4.622  1.0475 -0.4402 -0.3832
10068TIP3   OH254398  -2.762  -2.761  -3.091  0.0301 -0.2350 -0.2771
10068TIP3    H154399  -2.827  -2.831  -3.089 -0.6650  0.4065 -0.0649
10068TIP3    H254400  -2.702  -2.786  -3.162 -0.1501 -1.0897 -0.1352
10069TIP3   OH254401  -0.489   0.368  -3.481  0.5500 -0.2114  0.1426
10069TIP3    H154402  -0.420   0.365  -3.547  1.4992 -0.7642  1.1485
10069TIP3    H254403  -0.453   0.322  -3.405 -1.6343 -2.3638  0.0230
10070TIP3   OH254404  -0.482   3.177  -4.377 -0.3075 -0.3307 -0.0668
10070TIP3    H154405  -0.500   3.186  -4.470 -0.9983 -0.1454  0.0777
10070TIP3    H254406  -0.502   3.264  -4.340  2.6822  0.5053 -0.1521
10071TIP3   OH254407  -2.562   2.779  -2.989  0.1315 -0.3868  0.1036
10071TIP3    H154408  -2.535   2.825  -2.910  1.0742 -0.7218 -0.0072
10071TIP3    H254409  -2.484   2.729  -3.015 -0.8663 -2.0876  0.2421
10072TIP3   OH254410   0.266  -2.787  -2.885 -0.2984  0.7925  0.3118
10072TIP3    H154411   0.216  -2.850  -2.936 -0.4057  0.7267  0.5004
10072TIP3    H254412   0.249  -2.703  -2.928 -0.3190  0.7244  0.1864
10073TIP3   OH254413   2.902   1.886  -2.937 -0.6061 -0.9341  0.2909
10073TIP3    H154414   2.860   1.898  -3.022  0.2318 -1.0664 -0.1523
10073TIP3    H254415   2.968   1.818  -2.952 -1.2466 -1.8107  1.3391
10074TIP3   OH254416   2.740   0.486  -3.764  0.1014 -0.4004 -0.6059
10074TIP3    H154417   2.808   0.529  -3.816  0.0611  0.9324  0.3989
10074TIP3    H254418   2.671   0.465  -3.826  0.1615  0.9373 -1.1345
10075TIP3   OH254419  -1.111   1.586  -3.429 -0.0535  0.2093 -0.0437
10075TIP3    H154420  -1.029   1.618  -3.466  0.6038 -0.9794  0.3540
10075TIP3    H254421  -1.171   1.582  -3.504  0.0285  1.7381 -0.2105
10076TIP3   OH254422   0.303   2.470  -4.921 -0.3868 -0.2614  0.1133
10076TIP3    H154423   0.261   2.470  -5.007  1.3360  2.0442 -0.8115
10076TIP3    H254424   0.353   2.388  -4.919 -1.5622 -1.0221 -0.4480
10077TIP3   OH254425  -2.756  -1.760  -3.913 -0.2177 -0.0991 -0.1481
10077TIP3    H154426  -2.706  -1.680  -3.903  1.2437 -0.9672 -0.2938
10077TIP3    H254427  -2.730  -1.795  -3.999 -0.2734 -1.1068  0.2261
10078TIP3   OH254428   3.146  -0.386  -4.501  0.3170  0.5608  0.3982
10078TIP3    H154429   3.144  -0.344  -4.415 -0.0113  0.7665  0.2909
10078TIP3    H254430   3.196  -0.325  -4.556  1.1933  0.0699  0.6277
10079TIP3   OH254431   0.131   3.135  -4.414 -0.5900  0.0058 -0.2530
10079TIP3    H154432   0.086   3.051  -4.408 -0.4520 -0.1301 -0.9675
10079TIP3    H254433   0.113   3.179  -4.331 -0.0364 -1.0341  0.4282
10080TIP3   OH254434   1.611   1.161  -4.026 -0.6983  0.1096 -0.8877
10080TIP3    H154435   1.621   1.149  -3.931 -1.6986  1.4024 -0.5913
10080TIP3    H254436   1.673   1.229  -4.048 -1.4748  0.8446 -0.8752
10081TIP3   OH254437  -2.289   2.829  -3.424  0.1841  0.4648  0.4274
10081TIP3    H154438  -2.297   2.869  -3.338 -0.9407 -0.0841  0.5918
10081TIP3    H254439  -2.243   2.746  -3.407 -0.7720 -0.0331  0.6325
10082TIP3   OH254440  -2.378  -2.819  -3.999  0.2160  0.2907  0.3004
10082TIP3    H154441  -2.417  -2.863  -3.924 -0.5287 -0.4499 -0.4853
10082TIP3    H254442  -2.454  -2.789  -4.050  0.7037  0.6803 -0.2004
10083TIP3   OH254443   0.285   0.112  -3.206 -0.9585 -0.1178 -0.2123
10083TIP3    H154444   0.290   0.207  -3.220 -0.0710 -0.2203 -0.5847
10083TIP3    H254445   0.231   0.104  -3.127 -0.9657  0.6992 -0.1166
10084TIP3   OH254446  -0.197  -2.065  -2.607 -0.4722 -0.4084  0.0094
10084TIP3    H154447  -0.263  -2.045  -2.673 -0.7492 -0.1222  0.3680
10084TIP3    H254448  -0.114  -2.042  -2.648 -0.7759  1.5542  0.4066
10085TIP3   OH254449  -2.634  -3.063  -4.292 -0.2024  0.4955  0.3887
10085TIP3    H154450  -2.714  -3.028  -4.253 -0.2158  2.2046 -1.0524
10085TIP3    H254451  -2.611  -3.001  -4.361 -0.5244 -2.6226 -2.8428
10086TIP3   OH254452  -2.379   1.499  -3.029 -0.1832  0.1492  0.1152
10086TIP3    H154453  -2.410   1.417  -3.068 -0.3469 -0.2752  1.1077
10086TIP3    H254454  -2.354   1.476  -2.940  0.4006  1.0535  0.2043
10087TIP3   OH254455   0.358   0.035  -2.810 -0.2459  0.2402 -0.4347
10087TIP3    H154456   0.324   0.051  -2.722  1.0649 -0.2582  0.1908
10087TIP3    H254457   0.290  -0.018  -2.852 -0.1665 -0.9647  0.8637
10088TIP3   OH254458   2.694   0.467  -4.923 -0.2159  0.2529 -0.2355
10088TIP3    H154459   2.709   0.554  -4.886 -1.6495  0.3165  0.2739
10088TIP3    H254460   2.717   0.407  -4.852 -0.3923  0.2712 -0.1618
10089TIP3   OH254461  -2.941  -2.115  -3.604 -0.1292  0.2523  0.2588
10089TIP3    H154462  -2.854  -2.152  -3.590  0.1127  0.9259  0.5913
10089TIP3    H254463  -2.927  -2.021  -3.604 -1.0543  0.4401  1.8219
10090TIP3   OH254464   0.365  -2.411  -4.297  0.3697  0.5637 -0.3953
10090TIP3    H154465   0.296  -2.416  -4.363  0.8630 -0.3955 -0.8560
10090TIP3    H254466   0.388  -2.502  -4.279  0.5533  0.8222  0.7899
10091TIP3   OH254467  -1.665  -0.699  -3.206 -0.5811 -0.4504 -0.1917
10091TIP3    H154468  -1.708  -0.617  -3.231 -0.2841  0.1148  1.1122
10091TIP3    H254469  -1.677  -0.705  -3.112  0.1960 -1.4617 -0.1456
10092TIP3   OH254470   0.282  -2.468  -3.267 -0.2886 -0.2648 -0.0807
10092TIP3    H154471   0.221  -2.523  -3.316 -1.4531  0.6075  0.3203
10092TIP3    H254472   0.364  -2.471  -3.317 -0.7881 -1.1395 -0.8687
10093TIP3   OH254473  -0.215  -2.295  -5.996 -0.1797 -0.3210  0.0549
10093TIP3    H154474  -0.205  -2.263  -5.906  0.5480 -0.0644 -0.1105
10093TIP3    H254475  -0.212  -2.390  -5.988 -2.3385 -0.3875  0.5533
10094TIP3   OH254476  -2.921   3.285  -4.728  0.0559  0.1478 -0.4522
10094TIP3    H154477  -2.911   3.272  -4.822 -0.4400  0.2011 -0.5199
10094TIP3    H254478  -2.957   3.374  -4.720 -1.2055 -0.3424 -0.3156
10095TIP3   OH254479  -1.123  -0.597  -4.746  0.3709 -0.0514  0.2244
10095TIP3    H154480  -1.175  -0.607  -4.667  1.6340 -1.3595  0.9301
10095TIP3    H254481  -1.039  -0.638  -4.725  0.9286  0.0664 -1.6135
10096TIP3   OH254482  -1.788  -2.604  -4.174 -0.1237 -0.9511 -0.4051
10096TIP3    H154483  -1.699  -2.571  -4.159 -0.7630  1.1184 -0.8952
10096TIP3    H254484  -1.802  -2.666  -4.102  1.5691 -1.0327 -0.1008
10097TIP3   OH254485  -1.251   0.555  -4.865  0.2340  0.1430  0.5414
10097TIP3    H154486  -1.317   0.622  -4.886  1.0916  0.4140 -1.5818
10097TIP3    H254487  -1.196   0.595  -4.798  0.5019  1.4433 -0.4207
10098TIP3   OH254488   1.665   0.716  -2.806 -0.5483 -0.2152  0.0037
10098TIP3    H154489   1.632   0.717  -2.896  0.8849  1.9538 -0.5785
10098TIP3    H254490   1.735   0.651  -2.807  0.2614  0.6309 -0.8191
10099TIP3   OH254491   2.622  -2.626  -3.249 -0.0768 -0.2753  0.5596
10099TIP3    H154492   2.711  -2.591  -3.251  0.0400 -0.5634  0.6481
10099TIP3    H254493   2.610  -2.666  -3.335 -0.1257 -0.2246  0.5430
10100TIP3   OH254494  -1.867   2.304  -5.432  0.1558 -0.3510  0.5198
10100TIP3    H154495  -1.911   2.387  -5.414  2.6016  1.1361  0.0931
10100TIP3    H254496  -1.909   2.271  -5.511 -0.0277  1.1314 -0.0230
10101TIP3   OH254497   2.659  -1.675  -4.563  0.0367  0.2200 -0.0759
10101TIP3    H154498   2.677  -1.754  -4.512  0.4348 -0.9820 -1.9736
10101TIP3    H254499   2.729  -1.614  -4.540 -0.9592  0.5676  2.3550
10102TIP3   OH254500  -2.148  -0.345  -3.453  0.4568 -0.3149  0.2008
10102TIP3    H154501  -2.057  -0.371  -3.445  0.6128 -0.3557 -1.2831
10102TIP3    H254502  -2.146  -0.250  -3.456  0.2867 -0.2497  1.6226
10103TIP3   OH254503  -0.020  -0.867  -4.247  0.3167  0.3614  0.4055
10103TIP3    H154504   0.007  -0.781  -4.280  2.4888 -0.4583 -0.1422
10103TIP3    H254505   0.032  -0.879  -4.167  2.0835 -1.4717 -0.9208
10104TIP3   OH254506   0.727  -1.368  -3.253  1.1175 -0.0187 -0.0438
10104TIP3    H154507   0.729  -1.341  -3.162  0.3509  0.8719 -0.2775
10104TIP3    H254508   0.730  -1.464  -3.250 -1.9750 -0.1897  1.0805
10105TIP3   OH254509   3.186   2.375  -4.551 -0.3046  0.9383 -0.0693
10105TIP3    H154510   3.161   2.330  -4.470  0.1038  1.2895  0.2601
10105TIP3    H254511   3.278   2.400  -4.536 -0.5486  1.9445 -0.2123
10106TIP3   OH254512   1.375  -1.614  -4.866 -0.1902 -0.8507 -0.2256
10106TIP3    H154513   1.299  -1.569  -4.904  0.5282  0.5343 -0.0718
10106TIP3    H254514   1.338  -1.665  -4.794 -0.9011  0.3175  0.2652
10107TIP3   OH254515  -1.352  -1.350  -2.238 -0.3394  0.4003 -0.1800
10107TIP3    H154516  -1.382  -1.429  -2.194 -2.3825  1.3271  0.2323
10107TIP3    H254517  -1.312  -1.380  -2.319  0.3777 -1.1194  0.6973
10108TIP3   OH254518   1.842   1.780  -2.757 -0.1221 -0.0222  0.3490
10108TIP3    H154519   1.837   1.762  -2.851 -1.5013  3.9732 -0.5238
10108TIP3    H254520   1.908   1.718  -2.725  1.9838 -0.1931 -3.6329
10109TIP3   OH254521  -2.890   1.357  -2.982 -0.0228  0.1454  0.0720
10109TIP3    H154522  -2.864   1.285  -2.926 -1.7249 -0.3421  0.2812
10109TIP3    H254523  -2.839   1.345  -3.062  0.5967 -0.5849  0.5648
10110TIP3   OH254524   0.697  -3.216  -5.289 -0.1259  0.4857  0.0868
10110TIP3    H154525   0.758  -3.284  -5.319 -2.2030 -1.7397  0.6156
10110TIP3    H254526   0.742  -3.174  -5.216  0.8599 -0.9965  0.3891
10111TIP3   OH254527  -1.365   0.716  -3.491 -0.4058 -0.1750 -0.3843
10111TIP3    H154528  -1.305   0.646  -3.518 -1.0946  0.0558 -2.7307
10111TIP3    H254529  -1.330   0.795  -3.533 -0.0401  0.8309  1.6468
10112TIP3   OH254530   3.095  -0.447  -4.860 -0.0498  0.4131 -0.5820
10112TIP3    H154531   3.178  -0.458  -4.905 -0.3190 -0.3874 -0.8966
10112TIP3    H254532   3.059  -0.535  -4.854  0.6030  0.2189  2.4170
10113TIP3   OH254533   3.083  -2.499  -3.088 -0.3309 -0.0093 -0.8190
10113TIP3    H154534   3.136  -2.422  -3.070  0.0470 -0.9877  3.4927
10113TIP3    H254535   3.146  -2.569  -3.104 -0.3115 -0.4725  0.9758
10114TIP3   OH254536   1.811   2.215  -3.112 -0.3707 -0.3786 -0.1412
10114TIP3    H154537   1.805   2.290  -3.171 -1.4920  1.7006  2.4197
10114TIP3    H254538   1.729   2.167  -3.126 -0.8023  0.3110  0.0188
10115TIP3   OH254539   1.326   2.452  -3.466  0.7966 -0.7131 -0.5480
10115TIP3    H154540   1.232   2.441  -3.481  1.0926 -2.3798 -1.3874
10115TIP3    H254541   1.346   2.391  -3.396  1.2250 -0.1453 -0.1659
10116TIP3   OH254542   1.458   0.126  -5.668  0.8131 -0.4533 -0.5606
10116TIP3    H154543   1.530   0.158  -5.614 -0.1836 -0.6926  0.9716
10116TIP3    H254544   1.412   0.206  -5.696 -1.7086 -0.3058  3.3105
10117TIP3   OH254545   2.117  -3.181  -2.975  0.2834  0.0669 -0.0181
10117TIP3    H154546   2.146  -3.178  -2.884  0.6762 -0.7361 -0.1105
10117TIP3    H254547   2.197  -3.174  -3.027 -0.0445  1.8782 -0.3363
10118TIP3   OH254548  -2.520   2.711  -5.294  0.8036 -0.3082 -0.4297
10118TIP3    H154549  -2.499   2.761  -5.215  0.3213 -0.6641 -0.0724
10118TIP3    H254550  -2.515   2.775  -5.365  0.6270  0.1473 -0.0341
10119TIP3   OH254551   1.119  -2.991  -2.069  0.2137  0.3153  0.1691
10119TIP3    H154552   1.083  -2.948  -1.992 -1.5798  0.4225 -0.6757
10119TIP3    H254553   1.115  -3.085  -2.048  2.4234  0.4225  1.2917
10120TIP3   OH254554  -0.766   0.643  -2.001 -0.1266 -0.1979 -0.2818
10120TIP3    H154555  -0.677   0.678  -1.999 -0.2611  0.0911  1.1657
10120TIP3    H254556  -0.816   0.707  -2.051  0.1238  0.5203  0.3786
10121TIP3   OH254557  -1.883   0.364  -3.953 -0.6066  0.6961 -0.5595
10121TIP3    H154558  -1.911   0.275  -3.974  1.7311  0.0001 -0.9059
10121TIP3    H254559  -1.932   0.419  -4.014 -1.5058 -0.3904 -0.8675
10122TIP3   OH254560  -0.269   3.279  -4.653  0.4946  0.1469  0.1067
10122TIP3    H154561  -0.221   3.297  -4.572  0.5107 -1.1375  0.4169
10122TIP3    H254562  -0.360   3.298  -4.632  0.4581 -0.4566  0.5328
10123TIP3   OH254563  -3.244   0.852  -5.047 -0.4249  0.0961 -0.0490
10123TIP3    H154564  -3.171   0.807  -5.005 -0.4296 -0.5651 -0.7442
10123TIP3    H254565  -3.214   0.870  -5.136 -1.0865 -0.1450 -0.3294
10124TIP3   OH254566  -2.099   0.698  -5.108  0.2668 -0.6996  0.1934
10124TIP3    H154567  -2.190   0.695  -5.078  0.6035  0.7169  1.5012
10124TIP3    H254568  -2.080   0.608  -5.135 -0.5984 -1.7896  2.8150
10125TIP3   OH254569  -2.499  -0.152  -3.048  0.2744  0.1296 -0.5469
10125TIP3    H154570  -2.407  -0.176  -3.033 -0.0884 -0.2060  1.3620
10125TIP3    H254571  -2.549  -0.225  -3.012 -0.7606  0.5112 -1.1735
10126TIP3   OH254572   1.727  -1.860  -3.952 -0.5172 -0.5379  0.6883
10126TIP3    H154573   1.687  -1.827  -3.872 -1.7574 -0.6627  0.1357
10126TIP3    H254574   1.657  -1.908  -3.996  0.0447 -0.1738 -0.6480
10127TIP3   OH254575   2.442  -3.145  -5.494 -0.1268  0.2268  0.1383
10127TIP3    H154576   2.352  -3.146  -5.463 -0.8410  1.6550 -1.7339
10127TIP3    H254577   2.457  -3.232  -5.530 -0.7140 -0.0352  0.5093
10128TIP3   OH254578  -3.065   1.130  -4.227 -0.3721 -0.0656 -0.4919
10128TIP3    H154579  -3.086   1.122  -4.320  0.2544 -1.7279 -0.5200
10128TIP3    H254580  -3.040   1.042  -4.200 -0.4503  0.4075  1.2421
10129TIP3   OH254581  -1.199  -1.199  -2.808  0.3106  0.5879 -0.0310
10129TIP3    H154582  -1.104  -1.202  -2.813  0.2892  0.3716 -0.3375
10129TIP3    H254583  -1.220  -1.259  -2.736  0.3659 -0.0380 -0.5224
10130TIP3   OH254584   2.326  -0.510  -5.704 -0.0827  0.1594 -0.0495
10130TIP3    H154585   2.329  -0.473  -5.615  1.0850  0.3779 -0.1588
10130TIP3    H254586   2.389  -0.457  -5.753  1.8648 -2.1010 -0.1604
10131TIP3   OH254587   0.762   0.949  -5.654  0.0182  0.7506 -0.5523
10131TIP3    H154588   0.672   0.917  -5.648  0.3510 -0.1560 -0.1619
10131TIP3    H254589   0.815   0.869  -5.662  0.9670  1.1347  1.4310
10132TIP3   OH254590  -1.543   1.426  -3.632 -0.2043  0.4653  0.8746
10132TIP3    H154591  -1.591   1.352  -3.671 -1.0453  1.3893  0.1012
10132TIP3    H254592  -1.488   1.386  -3.565  0.1013 -0.9867 -0.1892
10133TIP3   OH254593  -1.829   2.579  -2.518  0.5361 -0.3741 -0.7360
10133TIP3    H154594  -1.858   2.490  -2.535 -0.8294  0.0750 -0.8057
10133TIP3    H254595  -1.830   2.586  -2.422  0.6726 -0.4353 -0.7295
10134TIP3   OH254596  -1.570   1.528  -5.339  0.3414  0.1571 -0.0131
10134TIP3    H154597  -1.652   1.507  -5.385  0.9174 -1.8029 -0.2373
10134TIP3    H254598  -1.573   1.623  -5.329 -1.2805  0.3091 -1.3106
10135TIP3   OH254599  -1.436  -2.632  -2.717 -0.7082 -0.2724 -0.7039
10135TIP3    H154600  -1.476  -2.690  -2.652  0.1319 -1.8271 -1.5297
10135TIP3    H254601  -1.348  -2.615  -2.683 -0.8996  0.4405 -0.5377
10136TIP3   OH254602   1.185  -2.258  -4.786 -0.0548 -0.1477  0.0656
10136TIP3    H154603   1.177  -2.170  -4.748  0.6789 -0.2288  0.4212
10136TIP3    H254604   1.204  -2.242  -4.879  5.2559  0.2814  0.9309
10137TIP3   OH254605   0.258  -2.480  -4.961 -0.0677 -0.0787  0.5318
10137TIP3    H154606   0.249  -2.576  -4.962 -3.4812  0.1003 -0.8824
10137TIP3    H254607   0.338  -2.463  -5.011 -0.9534 -2.1702 -1.8203
10138TIP3   OH254608  -2.568   2.839  -4.283  0.2169 -0.0652 -0.3673
10138TIP3    H154609  -2.521   2.918  -4.254  1.9247 -1.3938  0.6709
10138TIP3    H254610  -2.551   2.834  -4.377 -0.9526  1.4446 -0.6929
10139TIP3   OH254611  -1.680  -1.787  -4.381 -0.4023 -0.0072  0.1506
10139TIP3    H154612  -1.603  -1.775  -4.437 -0.0996 -0.2962  0.5034
10139TIP3    H254613  -1.750  -1.812  -4.442 -0.5045  1.3514 -0.3162
10140TIP3   OH254614  -1.957  -2.893  -3.435 -0.6937 -0.1163 -0.2556
10140TIP3    H154615  -1.876  -2.869  -3.481 -1.2434  2.1670 -0.1607
10140TIP3    H254616  -1.931  -2.962  -3.374  1.7161  1.9860  1.3139
10141TIP3   OH254617   1.988   2.756  -3.234 -0.1865 -0.0873 -1.1775
10141TIP3    H154618   2.067   2.802  -3.206  0.3390  0.4566 -3.3871
10141TIP3    H254619   2.017   2.666  -3.251 -0.8965 -0.9412  1.6541
10142TIP3   OH254620   0.903   2.641  -5.235  0.0550  0.4422  0.2524
10142TIP3    H154621   0.840   2.575  -5.263  0.2421  0.6500 -0.7126
10142TIP3    H254622   0.884   2.656  -5.143 -0.8999  0.0587  0.1233
10143TIP3   OH254623   0.479  -2.623  -4.031 -0.5007 -0.1043 -0.5829
10143TIP3    H154624   0.525  -2.701  -4.001  0.6905  0.0937 -1.8597
10143TIP3    H254625   0.401  -2.657  -4.076 -0.7507 -0.4847  0.1097
10144TIP3   OH254626  -2.650   3.102  -5.169  0.4842 -0.2661  0.5198
10144TIP3    H154627  -2.603   3.144  -5.096  0.4383  3.0897 -1.1834
10144TIP3    H254628  -2.582   3.056  -5.218  1.0000 -0.1592  1.1214
10145TIP3   OH254629  -1.592   0.592  -5.282  0.2457  0.6694 -0.3324
10145TIP3    H154630  -1.673   0.611  -5.234  0.6022  0.2923  0.4358
10145TIP3    H254631  -1.527   0.577  -5.214  1.2562  2.0882 -0.9484
10146TIP3   OH254632   2.323   3.378  -3.170  0.2993  0.8538  0.3043
10146TIP3    H154633   2.375   3.306  -3.134  0.6848  0.5403 -0.8225
10146TIP3    H254634   2.387   3.445  -3.194  0.1697  0.6533 -0.6678
10147TIP3   OH254635  -2.816   2.327  -2.902  0.7164  0.6633 -0.3966
10147TIP3    H154636  -2.813   2.257  -2.967  0.7297 -0.0808  0.3901
10147TIP3    H254637  -2.758   2.297  -2.831 -0.2728  0.8653  0.5265
10148TIP3   OH254638   0.674   2.353  -3.601 -0.2416  0.2462 -0.1084
10148TIP3    H154639   0.760   2.359  -3.560 -0.4135  0.5931  0.2072
10148TIP3    H254640   0.682   2.405  -3.681  0.4429 -1.3780 -1.1441
10149TIP3   OH254641  -1.416   1.479  -2.813  0.5550 -0.0562 -0.1442
10149TIP3    H154642  -1.363   1.533  -2.872 -1.2014  0.4503 -1.3099
10149TIP3    H254643  -1.452   1.541  -2.750  0.7513 -0.2916  0.2022
10150TIP3   OH254644   2.482  -1.366  -4.287 -0.3412  0.1922  0.1167
10150TIP3    H154645   2.483  -1.350  -4.192 -0.0957 -0.3293  0.2045
10150TIP3    H254646   2.539  -1.442  -4.299 -0.6574  0.0341 -0.4065
10151TIP3   OH254647   2.016   1.347  -5.724  0.4010  0.9721 -0.0290
10151TIP3    H154648   2.037   1.429  -5.679  0.7577  0.7139  0.2704
10151TIP3    H254649   2.085   1.286  -5.698  1.8221  1.3675 -2.4527
10152TIP3   OH254650   2.170   1.884  -4.942 -0.5598  0.1502 -0.1151
10152TIP3    H154651   2.220   1.839  -4.874 -0.7748  0.3475  0.1773
10152TIP3    H254652   2.145   1.967  -4.902  1.8879  1.6296 -1.4279
10153TIP3   OH254653   1.641  -1.527  -3.849 -0.4337  0.1815 -0.1459
10153TIP3    H154654   1.661  -1.613  -3.812 -0.9816  1.1366  2.6083
10153TIP3    H254655   1.549  -1.512  -3.826 -0.5682  1.1948 -1.2591
10154TIP3   OH254656  -3.032  -2.859  -4.446  0.0433 -0.1246  0.2506
10154TIP3    H154657  -2.967  -2.830  -4.509 -0.1085  0.7345  0.4713
10154TIP3    H254658  -2.984  -2.868  -4.364  0.3971 -1.9683 -0.1254
10155TIP3   OH254659  -2.369  -0.641  -4.480 -0.4068  0.6297  0.1493
10155TIP3    H154660  -2.416  -0.558  -4.482 -0.9712  0.3693  1.3783
10155TIP3    H254661  -2.277  -0.616  -4.469 -0.4059  1.1116 -0.8923
10156TIP3   OH254662   1.360   1.670  -5.140 -0.6871 -0.4452 -0.0142
10156TIP3    H154663   1.284   1.638  -5.091 -0.6323  0.1587  0.4894
10156TIP3    H254664   1.332   1.673  -5.231 -1.0877 -0.7454  0.0999
10157TIP3   OH254665   1.690   1.995  -5.902  0.0559  0.4696 -0.6855
10157TIP3    H154666   1.706   1.968  -5.812 -0.3321 -2.5587 -1.4243
10157TIP3    H254667   1.612   1.946  -5.929 -0.2701  1.8537 -2.4702
10158TIP3   OH254668   0.439  -2.356  -5.427 -0.4102 -0.5823 -0.2180
10158TIP3    H154669   0.488  -2.280  -5.457  0.6487 -1.4168 -0.6973
10158TIP3    H254670   0.365  -2.320  -5.378 -1.0736  0.7916 -2.1198
10159TIP3   OH254671   1.549   2.154  -5.015  0.3165 -0.0631 -0.6901
10159TIP3    H154672   1.506   2.111  -5.089 -1.4904 -0.3508  0.4656
10159TIP3    H254673   1.538   2.093  -4.943  1.5188  0.4860 -0.0093
10160TIP3   OH254674  -2.916  -2.849  -2.631 -0.1754  0.0012  0.2432
10160TIP3    H154675  -2.866  -2.820  -2.555 -1.6804  0.9420  0.9422
10160TIP3    H254676  -2.853  -2.893  -2.687  0.9808 -0.7307  2.0400
10161TIP3   OH254677  -2.114  -0.585  -4.409 -0.2414 -0.2542  0.8520
10161TIP3    H154678  -2.039  -0.619  -4.459 -1.6733 -1.1420 -0.7883
10161TIP3    H254679  -2.112  -0.634  -4.327  0.6394 -0.7045  0.5748
10162TIP3   OH254680  -2.491  -1.982  -2.693 -0.1477 -0.2479 -0.2895
10162TIP3    H154681  -2.400  -1.985  -2.663 -0.4653 -1.7970  0.6132
10162TIP3    H254682  -2.531  -1.915  -2.638  0.4976  0.6756 -0.9083
10163TIP3   OH254683   2.872  -0.461  -2.864  0.4309 -0.0672 -0.9653
10163TIP3    H154684   2.909  -0.538  -2.822  2.6425 -0.4859 -3.4268
10163TIP3    H254685   2.944  -0.422  -2.913 -1.7448  0.5801 -4.0055
10164TIP3   OH254686   1.475   2.936  -3.341  0.2696 -0.7061 -0.1791
10164TIP3    H154687   1.460   2.842  -3.344  0.7488 -0.8145  0.5586
10164TIP3    H254688   1.566   2.946  -3.313 -0.3275 -0.0342  1.6704
10165TIP3   OH254689   2.527   2.475  -3.077 -0.1107 -0.2759 -0.5296
10165TIP3    H154690   2.456   2.494  -3.138  1.7857  0.2772 -2.7314
10165TIP3    H254691   2.530   2.379  -3.074  0.0967 -0.3250 -1.7750
10166TIP3   OH254692  -2.264   2.334  -3.530 -0.2360  0.1708  0.6500
10166TIP3    H154693  -2.231   2.255  -3.487  0.7294  1.1990  1.8702
10166TIP3    H254694  -2.285   2.306  -3.619 -1.1919 -1.7512  1.4278
10167TIP3   OH254695  -1.463   0.714  -5.463 -0.0925  0.2297 -0.0850
10167TIP3    H154696  -1.449   0.669  -5.547  1.2772 -0.6457  0.5662
10167TIP3    H254697  -1.487   0.644  -5.402  1.7172  0.3562  0.8638
10168TIP3   OH254698  -2.438  -0.088  -3.902 -0.4550  0.2903 -0.2032
10168TIP3    H154699  -2.452  -0.142  -3.824 -0.6801  0.2958 -0.2366
10168TIP3    H254700  -2.487  -0.133  -3.971 -0.0618  0.1570 -0.3987
10169TIP3   OH254701   2.666  -0.907  -3.742  0.3293 -0.2617  0.0467
10169TIP3    H154702   2.599  -0.840  -3.750  0.3245 -0.1912  0.6233
10169TIP3    H254703   2.717  -0.881  -3.665  2.4017  0.8938 -1.6324
10170TIP3   OH254704   0.853   0.514  -5.117  0.1277 -0.7972  0.0292
10170TIP3    H154705   0.825   0.479  -5.033  0.2092 -1.1204 -0.0762
10170TIP3    H254706   0.773   0.519  -5.169  0.4994 -3.7749 -1.0238
10171TIP3   OH254707  -1.427   1.804  -2.904  0.0630 -0.2528 -0.1325
10171TIP3    H154708  -1.451   1.890  -2.869 -0.8245 -0.5552  0.0113
10171TIP3    H254709  -1.508   1.768  -2.940  0.1082 -1.5939  0.9975
10172TIP3   OH254710   0.375   0.243  -3.523  0.2857  0.4206  0.1317
10172TIP3    H154711   0.291   0.248  -3.477  0.1326 -0.7559  0.0183
10172TIP3    H254712   0.373   0.316  -3.584 -0.1193  1.1427  0.9907
10173TIP3   OH254713  -2.654   0.108  -4.412  0.0585 -0.7326  0.0581
10173TIP3    H154714  -2.562   0.105  -4.383  0.3146 -1.2685 -0.7727
10173TIP3    H254715  -2.651   0.077  -4.502 -1.1203 -2.0044  0.4351
10174TIP3   OH254716   2.717  -2.093  -4.072  0.2594  0.1590 -0.2466
10174TIP3    H154717   2.744  -2.111  -4.162 -2.5146 -1.1799 -0.9310
10174TIP3    H254718   2.777  -2.144  -4.018  0.9725 -0.3137 -1.4432
10175TIP3   OH254719  -2.231  -2.290  -3.225 -0.1940 -0.6663  0.3621
10175TIP3    H154720  -2.159  -2.244  -3.268 -0.7796 -0.0344  0.0326
10175TIP3    H254721  -2.280  -2.222  -3.179 -1.3565 -0.8421 -0.5374
10176TIP3   OH254722   2.374   0.903  -3.314  0.7129  0.2394 -0.4518
10176TIP3    H154723   2.318   0.855  -3.254 -0.4040  1.3671 -0.5484
10176TIP3    H254724   2.458   0.912  -3.268 -0.6267  2.6116  1.7961
10177TIP3   OH254725  -0.493  -0.112  -4.705 -0.2355  0.6346 -0.0831
10177TIP3    H154726  -0.514  -0.108  -4.798 -0.5227 -0.3979 -0.0787
10177TIP3    H254727  -0.469  -0.022  -4.681 -0.9575  1.0676 -0.9580
10178TIP3   OH254728   2.435  -1.440  -3.380 -0.6140  0.3846 -0.1897
10178TIP3    H154729   2.490  -1.496  -3.325  0.2063  0.5300 -0.8334
10178TIP3    H254730   2.418  -1.363  -3.325  1.1693  1.0644 -0.4898
10179TIP3   OH254731  -2.291   1.061  -5.543  0.3357 -0.5742  0.4533
10179TIP3    H154732  -2.325   1.009  -5.616  0.7692 -2.9758  1.8196
10179TIP3    H254733  -2.200   1.079  -5.566  0.6010 -1.6957  0.5262
10180TIP3   OH254734  -0.963   2.514  -5.452  0.2222 -0.0907  0.8596
10180TIP3    H154735  -1.031   2.553  -5.396  0.8161 -0.2422  1.7099
10180TIP3    H254736  -0.881   2.546  -5.416  0.5998  1.2704 -1.0546
10181TIP3   OH254737   2.634  -2.830  -5.798 -0.2969  0.5442 -0.6229
10181TIP3    H154738   2.588  -2.853  -5.717  1.5475 -0.8420  0.0948
10181TIP3    H254739   2.584  -2.756  -5.833 -2.3589 -0.1350  0.6760
10182TIP3   OH254740   1.044   0.640  -3.541 -0.3817  0.6475  0.2085
10182TIP3    H154741   1.000   0.678  -3.465 -0.1155  1.2850  0.0469
10182TIP3    H254742   1.112   0.704  -3.564  1.0752 -0.6049  0.8454
10183TIP3   OH254743  -3.222   1.148  -2.831 -0.1978  0.1037 -0.1597
10183TIP3    H154744  -3.198   1.206  -2.903  0.2429  0.2876  0.1310
10183TIP3    H254745  -3.152   1.159  -2.767 -0.8523  0.3518  0.5385
10184TIP3   OH254746  -2.127   2.070  -3.430 -0.1519  0.3992 -0.2668
10184TIP3    H154747  -2.094   2.123  -3.358 -2.5311 -1.0702  2.1037
10184TIP3    H254748  -2.070   1.993  -3.431 -0.5617  0.0768  0.5775
10185TIP3   OH254749   3.179  -3.192  -5.668 -0.0794  0.3720  0.1908
10185TIP3    H154750   3.087  -3.184  -5.692 -0.0629  0.9811  0.3248
10185TIP3    H254751   3.196  -3.117  -5.611  0.3508 -0.0651  0.6431
10186TIP3   OH254752  -0.285   3.303  -2.802  0.0234 -0.1228  0.5823
10186TIP3    H154753  -0.335   3.384  -2.816 -2.6881 -1.3996  2.1119
10186TIP3    H254754  -0.289   3.257  -2.885 -2.6834 -0.8123  1.0128
10187TIP3   OH254755   1.581  -0.985  -2.950  0.5247 -0.2518  0.0545
10187TIP3    H154756   1.602  -0.907  -2.899  0.3881  0.0158 -0.2932
10187TIP3    H254757   1.617  -1.058  -2.899 -2.1628 -0.3332  2.0936
10188TIP3   OH254758   1.288   1.150  -2.936 -0.6904  0.5393  0.0217
10188TIP3    H154759   1.361   1.176  -2.880 -0.2792 -0.2098 -0.1511
10188TIP3    H254760   1.327   1.144  -3.024 -1.0260  0.4079 -0.1203
10189TIP3   OH254761  -2.178   2.359  -5.185  0.0117 -0.4399  0.2153
10189TIP3    H154762  -2.107   2.417  -5.212  0.0130 -0.0277  1.0655
10189TIP3    H254763  -2.142   2.271  -5.194 -0.0748 -0.3319 -1.3365
10190TIP3   OH254764   3.274  -2.483  -4.110 -0.5057  0.7368 -0.2244
10190TIP3    H154765   3.284  -2.466  -4.016 -0.5327 -3.9952  0.8694
10190TIP3    H254766   3.362  -2.506  -4.140 -0.8235  0.3705 -0.8930
10191TIP3   OH254767   1.450  -0.702  -3.808 -0.3384  0.0849  0.1211
10191TIP3    H154768   1.516  -0.771  -3.800  1.7317  1.8139 -1.1129
10191TIP3    H254769   1.483  -0.630  -3.754 -0.8418  1.2353 -1.0509
10192TIP3   OH254770   0.048   2.121  -3.980 -0.2367  0.1292 -0.5769
10192TIP3    H154771  -0.002   2.161  -4.051 -0.8955 -1.3423 -0.9885
10192TIP3    H254772   0.133   2.101  -4.019  0.9552  3.0633  0.2535
10193TIP3   OH254773  -3.259  -0.270  -4.307 -0.1879  0.5650  0.0740
10193TIP3    H154774  -3.276  -0.329  -4.234  0.4153 -0.0367 -0.2648
10193TIP3    H254775  -3.191  -0.211  -4.275  0.5639 -0.1308 -0.2272
10194TIP3   OH254776  -1.418   2.451  -5.539 -0.2963  0.0157 -0.0791
10194TIP3    H154777  -1.470   2.488  -5.467  0.2971 -1.9533  1.4554
10194TIP3    H254778  -1.356   2.393  -5.496  0.7725 -0.4714 -2.1488
10195TIP3   OH254779  -0.337   2.097  -5.489  0.6286  0.4565  0.3663
10195TIP3    H154780  -0.242   2.092  -5.492  0.7266  2.0046  0.0416
10195TIP3    H254781  -0.361   2.143  -5.569 -0.4353 -0.2128  0.2710
10196TIP3   OH254782   0.197   0.458  -4.851 -0.3578 -0.1511  0.4011
10196TIP3    H154783   0.102   0.454  -4.844 -0.4677  0.1348 -0.7207
10196TIP3    H254784   0.226   0.500  -4.770 -1.2463  0.3451  0.4709
10197TIP3   OH254785   3.247  -0.603  -4.118  0.0383 -0.5042  0.1457
10197TIP3    H154786   3.313  -0.633  -4.180 -0.1766 -0.5998 -0.0400
10197TIP3    H254787   3.164  -0.610  -4.166 -0.0533  0.0658  0.2120
10198TIP3   OH254788   0.526  -1.422  -3.702  0.1745  0.1076  0.6309
10198TIP3    H154789   0.591  -1.493  -3.704 -1.1863 -1.1527 -1.3682
10198TIP3    H254790   0.552  -1.364  -3.774 -2.0386 -1.5780 -1.6988
10199TIP3   OH254791   2.704  -1.082  -3.964 -0.1148 -0.1422 -0.6492
10199TIP3    H154792   2.800  -1.085  -3.963 -0.0993 -0.1814 -1.4391
10199TIP3    H254793   2.681  -1.025  -3.891  0.4951 -0.4733 -0.1894
10200TIP3   OH254794   1.693  -1.770  -3.694  0.0438 -0.0802  0.4275
10200TIP3    H154795   1.774  -1.808  -3.660 -0.4940 -2.0477 -0.3802
10200TIP3    H254796   1.623  -1.823  -3.656 -0.7808  0.5294 -0.2021
10201TIP3   OH254797  -3.068  -2.659  -5.098 -0.5961 -0.0661  0.1972
10201TIP3    H154798  -2.991  -2.654  -5.042  0.6434  2.5397 -1.5190
10201TIP3    H254799  -3.142  -2.643  -5.039  0.3925 -0.2505  1.5190
10202TIP3   OH254800  -2.459  -1.952  -5.537 -0.5945  0.3487  0.0504
10202TIP3    H154801  -2.405  -1.886  -5.493 -0.6399 -0.4522  1.3188
10202TIP3    H254802  -2.538  -1.958  -5.484 -0.3398 -1.1457  0.2919
10203TIP3   OH254803   2.034   0.256  -3.880  0.0758 -0.6358 -0.0836
10203TIP3    H154804   2.046   0.350  -3.866 -1.2305 -0.3590 -0.6474
10203TIP3    H254805   1.948   0.249  -3.922 -0.3333 -2.1603  0.9206
10204TIP3   OH254806  -2.680   2.593  -4.574 -0.3326 -0.8480 -0.0444
10204TIP3    H154807  -2.618   2.653  -4.616  0.2156 -1.6279 -0.3744
10204TIP3    H254808  -2.741   2.568  -4.644 -2.3459  1.5151  0.7304
10205TIP3   OH254809   1.739  -1.542  -5.221 -0.0539  0.4892 -0.7812
10205TIP3    H154810   1.773  -1.585  -5.142  0.4693  1.0377 -0.7023
10205TIP3    H254811   1.712  -1.615  -5.277 -1.9853  0.1134  0.5512
10206TIP3   OH254812   0.331   2.732  -3.031  0.0810  0.0595  0.4112
10206TIP3    H154813   0.251   2.697  -3.071  0.8148 -0.3928 -0.6826
10206TIP3    H254814   0.397   2.664  -3.044  1.2635  1.3858 -0.8194
10207TIP3   OH254815  -2.096  -2.509  -5.359  0.1335 -0.1303 -0.0379
10207TIP3    H154816  -2.157  -2.450  -5.314  0.4075  0.0837  0.0605
10207TIP3    H254817  -2.034  -2.450  -5.402  0.3474 -0.3466 -0.0286
10208TIP3   OH254818   2.692  -3.223  -3.989 -0.4556 -0.2852 -0.1404
10208TIP3    H154819   2.749  -3.202  -3.916 -0.3416  0.0927 -0.3333
10208TIP3    H254820   2.713  -3.314  -4.010  0.1750 -0.1170 -0.2888
10209TIP3   OH254821  -1.370   2.867  -5.135 -0.8419  0.0189  0.7225
10209TIP3    H154822  -1.285   2.889  -5.173  0.4637 -0.7458  2.9968
10209TIP3    H254823  -1.367   2.904  -5.047 -2.3959 -1.0246  1.2606
10210TIP3   OH254824  -1.707   0.147  -4.410 -0.1074  0.2936 -0.2356
10210TIP3    H154825  -1.668   0.159  -4.323  0.2457  0.3875 -0.4041
10210TIP3    H254826  -1.788   0.100  -4.393 -0.9183  1.8019  0.3362
10211TIP3   OH254827   1.130   0.371  -3.466  0.2127  0.2969  0.0605
10211TIP3    H154828   1.059   0.318  -3.430  0.3488 -0.3566 -0.5983
10211TIP3    H254829   1.092   0.458  -3.480 -0.1380  0.2533  0.7376
10212TIP3   OH254830   0.875  -0.287  -5.824 -0.2058 -0.1898  0.5766
10212TIP3    H154831   0.808  -0.322  -5.883  1.2010 -0.6547 -0.8035
10212TIP3    H254832   0.925  -0.363  -5.796  0.6725  0.2996  0.3820
10213TIP3   OH254833  -3.087   1.699  -3.256 -0.1453  0.0984 -0.2888
10213TIP3    H154834  -3.015   1.658  -3.207 -0.9659  1.6424  2.4640
10213TIP3    H254835  -3.045   1.734  -3.335  2.3655  1.5002  1.5060
10214TIP3   OH254836  -1.533  -0.784  -4.586 -0.4160 -0.3170  0.2626
10214TIP3    H154837  -1.589  -0.715  -4.549 -0.3691 -0.1952  0.1088
10214TIP3    H254838  -1.446  -0.745  -4.589 -0.1855 -0.7440  1.1340
10215TIP3   OH254839  -0.924  -0.237  -5.532  0.0970 -0.0634 -0.6664
10215TIP3    H154840  -0.944  -0.270  -5.444  1.0753 -2.0113 -1.1443
10215TIP3    H254841  -0.951  -0.145  -5.529  1.0144  0.2113  1.9914
10216TIP3   OH254842   2.365   1.902  -5.780 -0.1035  0.6277 -0.2736
10216TIP3    H154843   2.279   1.941  -5.763 -0.3906  0.7091 -1.7628
10216TIP3    H254844   2.349   1.808  -5.782  0.0293  0.5835  0.3313
10217TIP3   OH254845   3.151   1.170  -2.730 -0.5402  0.4136  0.1687
10217TIP3    H154846   3.181   1.256  -2.698 -0.5367  0.2914  0.4978
10217TIP3    H254847   3.064   1.187  -2.765 -1.0419  0.3266  1.3368
10218TIP3   OH254848  -0.316  -1.319  -5.627  0.5339  0.1451  0.0254
10218TIP3    H154849  -0.341  -1.389  -5.567 -1.2977 -0.7579 -1.6575
10218TIP3    H254850  -0.392  -1.261  -5.629  0.2083 -0.2663 -1.9222
10219TIP3   OH254851   1.355   2.890  -2.561  0.5613 -0.3577  0.2788
10219TIP3    H154852   1.267   2.853  -2.568  0.6418 -0.6495  0.7660
10219TIP3    H254853   1.413   2.814  -2.565  0.7896 -0.1687  0.0054
10220TIP3   OH254854   1.031  -1.084  -5.740  0.0637  0.8083  0.0460
10220TIP3    H154855   1.111  -1.052  -5.781  0.5848  0.8721  1.0628
10220TIP3    H254856   1.041  -1.179  -5.737  0.1155  0.8175  0.1871
10221TIP3   OH254857   0.798   1.673  -5.169 -0.1397  0.6244  0.0754
10221TIP3    H154858   0.797   1.722  -5.251 -0.8218  0.8524  0.2140
10221TIP3    H254859   0.850   1.726  -5.110 -0.7715  1.1311  0.1869
10222TIP3   OH254860  -2.952  -1.274  -5.013  0.1525 -0.1942 -0.2336
10222TIP3    H154861  -3.019  -1.245  -4.951 -1.5078 -2.3094 -0.8820
10222TIP3    H254862  -2.950  -1.369  -5.002  2.1320 -0.2935 -1.1916
10223TIP3   OH254863  -0.003  -2.704  -5.205 -0.3014 -1.1949  0.2370
10223TIP3    H154864   0.025  -2.796  -5.203  1.7330 -0.6542 -0.1767
10223TIP3    H254865  -0.085  -2.704  -5.254 -0.3303 -2.7793  0.2442
10224TIP3   OH254866   3.065   0.953  -4.624  0.3135  0.2038 -0.0514
10224TIP3    H154867   3.102   1.035  -4.590  0.9306  0.0148 -0.2486
10224TIP3    H254868   2.989   0.936  -4.568  1.3174 -0.1264  1.2824
10225TIP3   OH254869   1.056   3.045  -2.483 -0.3968  0.2841 -0.6161
10225TIP3    H154870   1.072   3.038  -2.577 -0.5747 -1.0532 -0.5673
10225TIP3    H254871   0.994   2.975  -2.464 -1.2167  1.2405  0.3243
10226TIP3   OH254872  -0.128   1.643  -4.652 -0.0100 -0.0515 -0.8231
10226TIP3    H154873  -0.149   1.736  -4.654 -0.3266 -0.1229 -0.8464
10226TIP3    H254874  -0.160   1.613  -4.566  0.0906 -0.1396 -0.8156
10227TIP3   OH254875   1.373   0.087  -4.138 -0.2574 -0.4098 -0.0825
10227TIP3    H154876   1.308   0.139  -4.184 -0.0052  0.4414  0.4998
10227TIP3    H254877   1.409   0.028  -4.204 -1.3368 -0.6221 -0.4952
10228TIP3   OH254878  -0.803  -0.788  -3.740  0.2109 -0.1254  0.0984
10228TIP3    H154879  -0.755  -0.771  -3.822 -0.5742  1.1389 -0.1315
10228TIP3    H254880  -0.738  -0.773  -3.671  0.7975 -0.9072 -0.2655
10229TIP3   OH254881   1.460  -2.348  -3.955  0.1117 -0.0245  0.5057
10229TIP3    H154882   1.526  -2.368  -4.022 -0.8194  1.6661 -1.0130
10229TIP3    H254883   1.389  -2.411  -3.972 -0.5329  1.0093 -0.7757
10230TIP3   OH254884  -2.644   2.063  -4.903  0.5621  0.4716 -0.0817
10230TIP3    H154885  -2.689   2.124  -4.961  0.2514 -0.7668 -1.2046
10230TIP3    H254886  -2.711   2.035  -4.840  0.8035  1.5406  0.6686
10231TIP3   OH254887  -2.946   1.843  -5.019  0.7397  0.1290  0.1554
10231TIP3    H154888  -3.005   1.819  -5.091  1.1026 -1.4287  0.3417
10231TIP3    H254889  -2.885   1.906  -5.058 -0.3516  0.9213 -0.3244
10232TIP3   OH254890  -0.015   1.472  -5.267 -0.4904  0.2586 -0.4111
10232TIP3    H154891  -0.072   1.476  -5.343 -0.0307  0.6472 -0.7471
10232TIP3    H254892   0.009   1.563  -5.250 -1.6265  0.3367  1.0148
10233TIP3   OH254893   1.811  -2.157  -4.515  0.2769  0.1116 -0.4069
10233TIP3    H154894   1.887  -2.131  -4.462 -0.0629  2.3730 -0.9598
10233TIP3    H254895   1.737  -2.146  -4.456  0.2808 -1.5967 -0.0339
10234TIP3   OH254896  -1.156  -3.268  -4.543  0.6912  0.1025  0.1215
10234TIP3    H154897  -1.123  -3.235  -4.626  0.4984 -1.2974 -0.5461
10234TIP3    H254898  -1.214  -3.341  -4.567 -0.7049  0.7272  1.3959
10235TIP3   OH254899   1.296  -0.295  -5.698  0.0747 -0.4602  0.6817
10235TIP3    H154900   1.275  -0.381  -5.734  1.0637 -0.6367  0.4964
10235TIP3    H254901   1.268  -0.233  -5.765  0.5903 -0.7136  0.2268
10236TIP3   OH254902  -0.279   2.987  -4.308  0.2968  0.2211 -0.0018
10236TIP3    H154903  -0.350   3.050  -4.315 -0.4066 -0.6040 -0.6830
10236TIP3    H254904  -0.313   2.908  -4.351  1.5782 -0.2387 -0.2295
10237TIP3   OH254905   1.872  -1.034  -4.660  0.9196  0.3269  0.3449
10237TIP3    H154906   1.858  -1.043  -4.754 -1.5343 -0.4034  0.7214
10237TIP3    H254907   1.913  -0.948  -4.650  2.5334 -0.1465 -1.4426
10238TIP3   OH254908  -1.248   2.471  -2.716  0.5068 -0.2950 -0.6199
10238TIP3    H154909  -1.219   2.461  -2.625 -1.5082 -2.2123 -0.1067
10238TIP3    H254910  -1.238   2.565  -2.733  0.3986  0.2484  1.8080
10239TIP3   OH254911   1.850  -0.029  -5.368  0.2776  0.2368  0.3016
10239TIP3    H154912   1.782   0.030  -5.401 -0.8626 -0.9411  0.4633
10239TIP3    H254913   1.829  -0.114  -5.407  1.0667 -0.3758  1.1630
10240TIP3   OH254914   3.050  -1.876  -3.213 -0.1855  0.1582  0.0754
10240TIP3    H154915   3.128  -1.900  -3.162  0.5191  0.4389 -0.8363
10240TIP3    H254916   2.979  -1.874  -3.149  0.3251 -1.2708  0.7307
10241TIP3   OH254917   2.488   0.422  -4.519  0.1164  0.1713 -0.0219
10241TIP3    H154918   2.393   0.419  -4.527  0.1596  0.4602 -0.7186
10241TIP3    H254919   2.520   0.366  -4.590  0.4878  1.3646 -0.8377
10242TIP3   OH254920   2.708  -1.899  -4.418  0.7512  0.4919 -0.3724
10242TIP3    H154921   2.663  -1.904  -4.333  0.5131  0.4477 -0.5011
10242TIP3    H254922   2.681  -1.977  -4.465  0.4965  0.7613 -0.6791
10243TIP3   OH254923   1.514  -2.825  -4.898 -0.0762 -0.0543 -0.4165
10243TIP3    H154924   1.474  -2.903  -4.861 -0.9110  0.7587  0.4443
10243TIP3    H254925   1.444  -2.783  -4.947  0.0651  0.7185  0.0328
10244TIP3   OH254926   2.681   1.013  -5.550  0.4151 -0.1640 -0.3234
10244TIP3    H154927   2.623   1.043  -5.620 -1.4084 -2.4566  0.0611
10244TIP3    H254928   2.730   1.091  -5.525 -2.5060  1.9971 -0.7008
10245TIP3   OH254929  -2.116   2.599  -2.800  0.1004 -0.1145 -0.2891
10245TIP3    H154930  -2.126   2.554  -2.716  2.0588  1.1128  0.6693
10245TIP3    H254931  -2.028   2.637  -2.797 -0.6339  1.8950 -1.9799
10246TIP3   OH254932  -2.618  -1.251  -4.405  0.1789  0.1321 -0.1362
10246TIP3    H154933  -2.613  -1.164  -4.365 -0.9932 -0.4772  1.4688
10246TIP3    H254934  -2.700  -1.250  -4.454  0.3415  0.0467 -0.4098
10247TIP3   OH254935  -0.707   1.984  -1.806 -0.5938 -0.3048  0.2163
10247TIP3    H154936  -0.633   1.936  -1.769 -1.4144 -1.0424  0.9572
10247TIP3    H254937  -0.774   1.917  -1.820 -0.7606  0.1530 -1.4770
10248TIP3   OH254938  -2.712  -0.274  -5.216  0.4376  0.1856 -0.0799
10248TIP3    H154939  -2.741  -0.187  -5.244  1.0945  0.0511 -1.2386
10248TIP3    H254940  -2.646  -0.299  -5.280 -0.7451 -1.7757 -0.6116
10249TIP3   OH254941   0.547   0.557  -3.699 -0.4065  0.0440 -0.2362
10249TIP3    H154942   0.509   0.507  -3.771 -1.1681  1.4718 -0.8858
10249TIP3    H254943   0.597   0.626  -3.743  2.3995 -1.3289  0.6002
10250TIP3   OH254944   2.742  -0.705  -4.262  0.1335 -0.6793 -0.4024
10250TIP3    H154945   2.828  -0.666  -4.276 -0.2214  0.7454  0.9895
10250TIP3    H254946   2.724  -0.755  -4.342  0.0355  3.1820 -3.0699
10251TIP3   OH254947   1.331   2.111  -2.915  0.1518 -0.1223  0.1559
10251TIP3    H154948   1.359   2.023  -2.891 -2.8594 -1.3806 -0.5241
10251TIP3    H254949   1.297   2.149  -2.833  0.5404  0.0668  0.2361
10252TIP3   OH254950   0.674  -2.200  -5.200 -0.5508  0.0071  0.0162
10252TIP3    H154951   0.609  -2.130  -5.198 -0.4366  0.1064  0.4522
10252TIP3    H254952   0.716  -2.192  -5.285 -0.7728  0.2550 -0.0701
10253TIP3   OH254953   1.545  -3.071  -5.327  0.2242 -0.2424  0.1750
10253TIP3    H154954   1.611  -3.056  -5.395  0.7004  0.9608  0.8578
10253TIP3    H254955   1.595  -3.106  -5.253  0.0415  0.2476  0.5394
10254TIP3   OH254956  -1.823  -0.972  -3.550  0.0682 -0.0518  0.2771
10254TIP3    H154957  -1.818  -0.876  -3.558  2.3237 -0.0643  0.6330
10254TIP3    H254958  -1.792  -1.004  -3.635  0.5130 -0.4373  0.5809
10255TIP3   OH254959  -2.877   1.676  -5.360  0.3733  0.7030  0.2927
10255TIP3    H154960  -2.870   1.580  -5.360 -0.2654  0.6491  0.7653
10255TIP3    H254961  -2.970   1.693  -5.344  0.5947  1.4022  0.9093
10256TIP3   OH254962  -1.680   3.272  -5.553  0.1632  0.2466  0.1964
10256TIP3    H154963  -1.654   3.185  -5.523  0.2817  0.5305  0.9385
10256TIP3    H254964  -1.634   3.332  -5.495 -1.4816  0.7768  1.0116
10257TIP3   OH254965   1.383   0.817  -5.137 -0.3373  0.4001  0.0862
10257TIP3    H154966   1.306   0.851  -5.093  1.0920  2.1640  1.3668
10257TIP3    H254967   1.349   0.780  -5.219 -2.3173  3.1519 -0.4906
10258TIP3   OH254968  -2.578   3.161  -4.489  0.3426  0.7180  0.3914
10258TIP3    H154969  -2.581   3.173  -4.584  2.9494 -1.8679 -0.1752
10258TIP3    H254970  -2.484   3.164  -4.468 -0.1695  1.3522  2.9470
10259TIP3   OH254971   0.565  -2.427  -2.981  0.8892 -0.0467 -0.6066
10259TIP3    H154972   0.635  -2.487  -2.955 -0.4911 -1.9215 -1.0033
10259TIP3    H254973   0.591  -2.397  -3.068  0.7001 -1.6104 -1.2390
10260TIP3   OH254974  -0.833  -1.976  -2.479 -0.2630  0.0842  0.2943
10260TIP3    H154975  -0.760  -1.930  -2.437  0.8787 -1.7137  0.3789
10260TIP3    H254976  -0.805  -1.987  -2.570 -0.7419 -0.0012  0.1528
10261TIP3   OH254977   2.131  -0.991  -4.960  0.5305 -0.0355 -0.5098
10261TIP3    H154978   2.150  -0.901  -4.986  3.2877 -0.6768 -0.9805
10261TIP3    H254979   2.173  -1.001  -4.875  1.6193 -1.2595 -1.1447
10262TIP3   OH254980  -1.321   3.226  -4.625  0.4988 -0.5082  0.1065
10262TIP3    H154981  -1.398   3.193  -4.673  0.7753 -0.7721 -0.1661
10262TIP3    H254982  -1.248   3.173  -4.659  0.6969 -0.7192  0.8469
10263TIP3   OH254983  -3.164  -1.014  -3.599  0.0916  0.5838 -0.8028
10263TIP3    H154984  -3.209  -0.944  -3.551  0.1046 -0.8592  1.4305
10263TIP3    H254985  -3.216  -1.092  -3.582  1.6226 -0.4988 -0.8758
10264TIP3   OH254986   2.156  -2.128  -2.593  0.4335  0.3362 -0.7342
10264TIP3    H154987   2.229  -2.164  -2.543  1.0751  0.0785 -1.8273
10264TIP3    H254988   2.168  -2.033  -2.589  0.9037  0.2895 -1.0088
10265TIP3   OH254989   3.248   1.302  -3.947 -0.4783  0.4462  0.1811
10265TIP3    H154990   3.288   1.253  -4.020  0.1912  0.6045  0.4308
10265TIP3    H254991   3.160   1.322  -3.977 -0.3947  0.0236 -0.3637
10266TIP3   OH254992   2.171  -1.190  -5.145  0.2378  0.0731  0.0265
10266TIP3    H154993   2.195  -1.256  -5.079 -0.3021  0.8997  1.0882
10266TIP3    H254994   2.136  -1.117  -5.093  4.7052  3.0861 -0.6861
10267TIP3   OH254995  -2.122   1.952  -2.777  0.4556  0.3367 -0.1900
10267TIP3    H154996  -2.130   1.904  -2.694  0.1715  0.0557 -0.3806
10267TIP3    H254997  -2.171   2.034  -2.761 -0.4837 -0.1673 -0.4194
10268TIP3   OH254998  -2.275  -1.583  -4.959  0.2727 -0.5507  0.5372
10268TIP3    H154999  -2.292  -1.588  -4.865 -0.6744  2.1202  0.5913
10268TIP3    H255000  -2.286  -1.490  -4.981 -1.8754 -1.3809 -2.6153
10269TIP3   OH255001   2.121   3.324  -5.564 -0.0382 -0.2942 -0.2841
10269TIP3    H155002   2.044   3.286  -5.522 -0.7576  0.8136 -0.5895
10269TIP3    H255003   2.144   3.399  -5.509 -0.3149  0.4998 -1.2276
10270TIP3   OH255004  -2.721   2.791  -2.447  0.6131  0.5069 -0.2869
10270TIP3    H155005  -2.756   2.761  -2.363  0.9068 -1.7683 -0.9263
10270TIP3    H255006  -2.749   2.883  -2.452  0.3224  0.6261  2.1286
10271TIP3   OH255007   0.981   1.550  -4.065 -0.1272  0.3706 -0.4007
10271TIP3    H155008   1.010   1.460  -4.083  1.0466  0.4220  1.0047
10271TIP3    H255009   1.062   1.598  -4.048 -0.8359  1.3295  0.3557
10272TIP3   OH255010   2.394   3.361  -2.445  0.2218  0.3220  0.5257
10272TIP3    H155011   2.470   3.356  -2.503 -0.2967  0.0460 -0.1375
10272TIP3    H255012   2.400   3.280  -2.393 -0.1698 -0.1988 -0.2258
10273TIP3   OH255013  -1.325   2.038  -4.098  0.4397  0.7734  0.0248
10273TIP3    H155014  -1.381   2.025  -4.022  0.2622  4.3396  0.6746
10273TIP3    H255015  -1.245   2.077  -4.062  1.7281 -0.5224 -1.3177
10274TIP3   OH255016   3.169  -1.755  -3.417 -0.4944  0.5748 -0.3635
10274TIP3    H155017   3.099  -1.752  -3.482 -0.5733  2.0214 -0.2610
10274TIP3    H255018   3.134  -1.809  -3.346 -0.5597 -0.6911 -1.3322
10275TIP3   OH255019   2.956   0.919  -4.868 -0.2025 -0.0555  0.9156
10275TIP3    H155020   2.979   0.923  -4.775  0.2973 -1.0248  0.8541
10275TIP3    H255021   2.978   1.005  -4.902 -1.3171  0.6421  1.8919
10276TIP3   OH255022   3.037   1.855  -5.525 -0.1047  0.6036  0.1620
10276TIP3    H155023   3.020   1.761  -5.517 -1.3912  0.5472 -2.2134
10276TIP3    H255024   3.075   1.865  -5.612  0.5090  2.2478  0.5828
10277TIP3   OH255025  -0.826  -3.239  -5.443 -0.1303  0.2453  0.2518
10277TIP3    H155026  -0.795  -3.254  -5.533 -1.5287  0.0610 -0.2262
10277TIP3    H255027  -0.843  -3.144  -5.439  1.8474  0.6288  0.9998
10278TIP3   OH255028  -2.407  -1.791  -4.288  0.2239 -0.0684 -0.2354
10278TIP3    H155029  -2.320  -1.818  -4.259 -0.0223 -0.3695  0.2367
10278TIP3    H255030  -2.410  -1.815  -4.381  0.2233 -1.1665  0.0347
10279TIP3   OH255031   0.014  -0.842  -5.384  0.0237  0.2405  0.0761
10279TIP3    H155032  -0.009  -0.930  -5.354  0.0276 -0.7458 -2.5277
10279TIP3    H255033   0.099  -0.824  -5.343 -0.5809 -0.3631  1.6809
10280TIP3   OH255034   2.116  -3.054  -5.587 -0.0230 -0.6105 -0.0472
10280TIP3    H155035   2.145  -2.973  -5.630 -1.7316 -0.0373 -0.2079
10280TIP3    H255036   2.147  -3.046  -5.497 -0.1114  0.1966 -0.0777
10281TIP3   OH255037   0.713   0.627  -4.421 -0.9452  0.0622 -0.4056
10281TIP3    H155038   0.800   0.617  -4.460 -1.7067  2.2508 -2.9566
10281TIP3    H255039   0.657   0.566  -4.469 -1.1110 -0.3391  0.2795
10282TIP3   OH255040   0.450  -1.027  -4.205 -0.0485 -0.4012 -0.5594
10282TIP3    H155041   0.498  -1.055  -4.282 -1.6562 -0.7103 -1.5057
10282TIP3    H255042   0.358  -1.044  -4.227 -0.6771  1.0099  0.7917
10283TIP3   OH255043  -2.361  -0.272  -5.809 -0.0415 -0.3836 -0.2515
10283TIP3    H155044  -2.286  -0.225  -5.772  0.0779 -0.3737 -0.4999
10283TIP3    H255045  -2.437  -0.220  -5.784  0.1085  0.0579 -0.7024
10284TIP3   OH255046  -0.250   0.572  -5.136  0.2232  0.5262  0.0411
10284TIP3    H155047  -0.216   0.499  -5.083 -2.7212 -0.7656  0.3445
10284TIP3    H255048  -0.261   0.644  -5.073 -1.5334 -0.4174  0.8766
10285TIP3   OH255049  -0.827  -0.720  -5.346 -0.2050  0.1215  0.8043
10285TIP3    H155050  -0.857  -0.793  -5.401  0.5547  0.3604  0.0619
10285TIP3    H255051  -0.864  -0.642  -5.388 -0.7480  0.2040  1.4164
10286TIP3   OH255052  -1.234  -3.048  -1.897 -0.2688  0.1521 -0.4614
10286TIP3    H155053  -1.226  -2.958  -1.931 -1.2028  0.1049 -0.8191
10286TIP3    H255054  -1.175  -3.099  -1.952  0.2702  0.5428 -0.2578
10287TIP3   OH255055   2.752  -2.507  -4.522 -0.2162 -0.6966 -0.1199
10287TIP3    H155056   2.831  -2.460  -4.547 -1.5334  0.1220 -3.2500
10287TIP3    H255057   2.773  -2.548  -4.438  3.0684  0.4479 -0.2668
10288TIP3   OH255058  -3.235  -1.715  -4.538 -0.0093  0.2929 -0.6175
10288TIP3    H155059  -3.206  -1.632  -4.575  1.8614 -0.3655 -0.7361
10288TIP3    H255060  -3.241  -1.698  -4.444  1.0620  0.3820 -0.5594
10289TIP3   OH255061  -2.506  -1.244  -3.956  0.6881 -0.4434  1.1611
10289TIP3    H155062  -2.425  -1.287  -3.929  0.9442 -0.5897  0.2170
10289TIP3    H255063  -2.518  -1.174  -3.893  0.9463 -1.1161  1.9741
10290TIP3   OH255064  -2.441  -2.919  -2.765 -0.1650 -0.4618  0.2282
10290TIP3    H155065  -2.439  -2.896  -2.672  1.7549 -0.8835  0.3277
10290TIP3    H255066  -2.350  -2.915  -2.793 -0.8476  1.6946 -2.1722
10291TIP3   OH255067   0.647  -0.759  -4.974 -0.3336 -0.2674 -0.2431
10291TIP3    H155068   0.571  -0.816  -4.987 -0.1695 -0.5147 -0.1272
10291TIP3    H255069   0.652  -0.747  -4.879 -0.2777 -0.1851 -0.2568
10292TIP3   OH255070  -2.563   0.084  -4.950  0.1832 -0.5389  0.3558
10292TIP3    H155071  -2.512   0.004  -4.935 -1.2129 -1.1516  2.2751
10292TIP3    H255072  -2.528   0.146  -4.886  1.6917  0.6747 -1.5497
10293TIP3   OH255073   0.784  -2.670  -3.218 -0.3399  0.0322  0.2808
10293TIP3    H155074   0.846  -2.616  -3.168 -0.5569  0.0402  0.5451
10293TIP3    H255075   0.833  -2.750  -3.238 -0.2031  0.0899  0.3808
10294TIP3   OH255076  -1.775  -3.102  -4.775  0.0479  0.0965  0.3870
10294TIP3    H155077  -1.742  -3.187  -4.804 -0.2078 -0.2934  1.2181
10294TIP3    H255078  -1.817  -3.119  -4.691 -1.7365  0.7041 -0.3394
10295TIP3   OH255079   1.030  -0.469  -5.646  0.2870 -0.2108 -0.2665
10295TIP3    H155080   1.038  -0.412  -5.570 -1.1220 -0.7344  0.3078
10295TIP3    H255081   1.048  -0.557  -5.613 -3.3054 -0.9031  0.2574
10296TIP3   OH255082  -0.270   0.220  -3.965  0.5943 -0.5791  0.0432
10296TIP3    H155083  -0.359   0.244  -3.938 -0.4125 -2.0172 -1.7937
10296TIP3    H255084  -0.227   0.304  -3.984 -0.8920  0.0727 -0.5760
10297TIP3   OH255085  -0.649  -0.275  -3.651  0.3660 -0.3390 -0.3536
10297TIP3    H155086  -0.714  -0.254  -3.584  1.2709  0.4794  0.3010
10297TIP3    H255087  -0.565  -0.272  -3.604  1.1654  1.5799 -1.7755
10298TIP3   OH255088  -2.043  -0.391  -5.411  0.3154 -0.0807  0.1106
10298TIP3    H155089  -2.120  -0.442  -5.389  0.4158 -0.3206 -0.0945
10298TIP3    H255090  -1.975  -0.422  -5.351  0.1572  0.3917  0.5475
10299TIP3   OH255091  -2.721   0.364  -4.262  0.3417  0.4836  0.1423
10299TIP3    H155092  -2.691   0.289  -4.313  2.8331  0.2642  1.7364
10299TIP3    H255093  -2.700   0.440  -4.317 -1.2309  0.1201 -1.0294
10300TIP3   OH255094  -1.291  -1.677  -2.907  0.0645 -0.2833 -0.3239
10300TIP3    H155095  -1.208  -1.634  -2.884 -0.1262 -0.6379  1.1332
10300TIP3    H255096  -1.265  -1.765  -2.935  0.1688 -0.4799  0.3785
10301TIP3   OH255097  -1.798  -2.899  -4.099  0.2689 -0.2668 -0.1244
10301TIP3    H155098  -1.829  -2.927  -4.013 -0.4732  2.7102  0.7237
10301TIP3    H255099  -1.870  -2.919  -4.158 -0.1905 -0.2294  0.4077
10302TIP3   OH255100  -2.982   2.333  -4.185 -0.1457 -0.0909  0.3140
10302TIP3    H155101  -2.980   2.423  -4.218 -0.1014 -0.3130 -0.2909
10302TIP3    H255102  -3.017   2.342  -4.096  0.5195  0.6013  0.5223
10303TIP3   OH255103  -0.307  -2.330  -5.526  0.1044 -0.1656  0.3935
10303TIP3    H155104  -0.292  -2.324  -5.431 -0.9066 -1.9154  0.7050
10303TIP3    H255105  -0.367  -2.403  -5.536  0.7406 -0.4641 -1.6773
10304TIP3   OH255106   2.964  -0.389  -5.586 -0.3255 -0.3946 -0.0737
10304TIP3    H155107   2.997  -0.362  -5.501  0.7660 -0.0869 -0.5780
10304TIP3    H255108   2.876  -0.352  -5.591  0.1977  0.9220  0.2729
10305TIP3   OH255109  -2.044   1.316  -5.388 -0.3999 -0.0275 -0.3001
10305TIP3    H155110  -1.987   1.281  -5.319  0.2659  2.4272  0.4726
10305TIP3    H255111  -2.131   1.281  -5.367  0.0449 -0.4342  0.9689
10306TIP3   OH255112  -0.036  -1.012  -3.337  0.4616 -0.6511 -0.0916
10306TIP3    H155113  -0.129  -1.033  -3.339  0.2841  0.0973 -0.2212
10306TIP3    H255114  -0.030  -0.938  -3.276  0.6221  0.8583 -1.8385
10307TIP3   OH255115   1.814   2.925  -4.327  0.0509  0.3775 -0.5771
10307TIP3    H155116   1.841   3.005  -4.373 -1.8325  0.9408 -0.7908
10307TIP3    H255117   1.850   2.854  -4.379 -0.5758  1.0481 -1.9872
10308TIP3   OH255118  -0.509  -0.427  -4.023 -0.7343  0.5163  0.4735
10308TIP3    H155119  -0.576  -0.473  -4.073 -1.3284 -0.2219  1.9030
10308TIP3    H255120  -0.557  -0.380  -3.955  0.1927 -0.4967  1.8863
10309TIP3   OH255121  -3.337  -2.475  -3.870 -0.2778  0.3990  0.5172
10309TIP3    H155122  -3.305  -2.407  -3.811  1.4508 -1.5495  1.9631
10309TIP3    H255123  -3.329  -2.556  -3.820  1.1168 -1.3551 -2.2966
10310TIP3   OH255124   0.137   2.470  -3.445 -0.0962  0.3680 -0.1535
10310TIP3    H155125   0.098   2.549  -3.482  0.2361  0.4424 -0.3442
10310TIP3    H255126   0.107   2.469  -3.354  0.8219  1.3208  0.1716
10311TIP3   OH255127   0.547   1.132  -3.423  0.1860 -0.8522 -0.0955
10311TIP3    H155128   0.587   1.147  -3.338 -1.5367  1.8514  0.3755
10311TIP3    H255129   0.595   1.189  -3.483 -1.8497  1.3635  0.2148
10312TIP3   OH255130   3.360  -1.493  -5.015  0.6319  0.7190  0.2099
10312TIP3    H155131   3.420  -1.552  -4.970 -0.3577 -0.6552 -0.1975
10312TIP3    H255132   3.273  -1.518  -4.984  0.0056  0.4360 -1.6267
10313TIP3   OH255133   2.105  -1.821  -3.147  0.0062 -0.3757  0.4149
10313TIP3    H155134   2.031  -1.856  -3.195 -1.2063 -0.4287  2.2277
10313TIP3    H255135   2.143  -1.755  -3.205  0.1230 -2.1028 -1.5698
10314TIP3   OH255136  -1.718  -2.778  -3.531  0.4494 -0.4339 -0.2147
10314TIP3    H155137  -1.741  -2.695  -3.572 -0.6290 -0.6661 -0.0890
10314TIP3    H255138  -1.664  -2.753  -3.456  1.0879  0.0765 -0.8191
10315TIP3   OH255139   0.885  -0.927  -5.463 -0.2885  0.5543  0.2014
10315TIP3    H155140   0.867  -1.019  -5.485  2.9303  0.1083 -1.1742
10315TIP3    H255141   0.833  -0.911  -5.384 -3.6248 -1.3164 -1.3884
10316TIP3   OH255142   0.263  -2.730  -4.187 -0.0930  0.0792  0.1659
10316TIP3    H155143   0.296  -2.780  -4.262  0.9316  1.4261 -0.3313
10316TIP3    H255144   0.258  -2.794  -4.116  0.8096 -0.8166 -0.5419
10317TIP3   OH255145  -0.367  -2.593  -5.869  0.0242  0.4431  0.2502
10317TIP3    H155146  -0.395  -2.522  -5.812 -0.4978 -0.7632  1.5538
10317TIP3    H255147  -0.302  -2.642  -5.818  0.8889  0.3695 -0.8816
10318TIP3   OH255148  -2.626   2.802  -4.731  0.4071 -0.2148 -0.2487
10318TIP3    H155149  -2.713   2.840  -4.733  1.3448  2.0862 -0.3717
10318TIP3    H255150  -2.608   2.776  -4.821 -0.8877 -2.7146  0.1146
10319TIP3   OH255151   3.303  -1.286  -5.448  0.3812 -0.7501  0.3388
10319TIP3    H155152   3.300  -1.373  -5.408 -1.5753 -1.2468 -0.7718
10319TIP3    H255153   3.227  -1.241  -5.412  0.5270 -0.0339 -0.2359
10320TIP3   OH255154  -1.406  -2.381  -2.086  0.5250 -0.9247 -0.1465
10320TIP3    H155155  -1.429  -2.313  -2.023 -1.1817 -0.7444 -0.8899
10320TIP3    H255156  -1.311  -2.376  -2.094  0.7698 -0.8464  2.2479
10321TIP3   OH255157  -0.716  -0.638  -2.707  0.1955 -0.3233  0.5336
10321TIP3    H155158  -0.641  -0.634  -2.649  0.6931  1.1816 -0.1501
10321TIP3    H255159  -0.773  -0.567  -2.677  0.9141  1.1357 -1.3331
10322TIP3   OH255160   2.249   0.771  -3.519 -0.4505 -0.4762 -0.0696
10322TIP3    H155161   2.217   0.687  -3.485  1.6011 -0.9226  0.9414
10322TIP3    H255162   2.269   0.822  -3.440 -1.0575  0.7494 -0.6736
10323TIP3   OH255163  -0.685  -0.859  -4.019 -0.6678 -0.1992  0.2697
10323TIP3    H155164  -0.702  -0.878  -4.112  2.9858 -0.1898 -0.5486
10323TIP3    H255165  -0.592  -0.877  -4.008 -1.0623 -0.6159  4.1108
10324TIP3   OH255166   1.741  -2.845  -3.685  0.4382 -0.0860 -0.5285
10324TIP3    H155167   1.731  -2.869  -3.592  0.3098  0.8345 -0.2888
10324TIP3    H255168   1.793  -2.765  -3.683 -1.5619  1.3254 -1.0517
10325TIP3   OH255169   0.849  -1.642  -3.180  0.3884 -0.1825 -0.1328
10325TIP3    H155170   0.788  -1.671  -3.247 -2.2306 -0.8728  2.3643
10325TIP3    H255171   0.868  -1.721  -3.128 -0.7031  0.9667  2.1485
10326TIP3   OH255172   2.356  -0.395  -4.054 -0.3867 -0.4046 -0.2899
10326TIP3    H155173   2.442  -0.355  -4.066 -1.7506  2.1458 -2.4762
10326TIP3    H255174   2.298  -0.348  -4.114 -3.0574 -2.9886  0.0129
10327TIP3   OH255175  -1.520   2.228  -3.759  0.0967 -0.3982  0.1258
10327TIP3    H155176  -1.612   2.205  -3.753  0.2160 -1.0660 -0.4915
10327TIP3    H255177  -1.475   2.146  -3.779  0.6641  0.1248 -0.8728
10328TIP3   OH255178   1.223  -0.732  -3.598  0.0375 -0.6119 -0.1560
10328TIP3    H155179   1.294  -0.775  -3.551 -1.5244 -0.1897  2.8577
10328TIP3    H255180   1.147  -0.788  -3.582 -1.2886  1.3448  0.9222
10329TIP3   OH255181   2.318   1.152  -3.052 -0.2864  0.6018 -0.3138
10329TIP3    H155182   2.304   1.185  -2.963 -1.4833 -0.7314  0.0216
10329TIP3    H255183   2.334   1.059  -3.041 -1.7455  0.1661 -1.5611
10330TIP3   OH255184   0.290  -2.372  -3.994 -0.1857  0.0222 -0.0579
10330TIP3    H155185   0.294  -2.336  -4.083  1.1178  1.1730  0.4236
10330TIP3    H255186   0.346  -2.449  -3.997  0.6572  0.6187 -0.0159
10331TIP3   OH255187  -3.123   0.909  -3.613  0.1779 -0.2738 -0.0641
10331TIP3    H155188  -3.129   0.894  -3.519  1.2360 -1.8918 -0.2231
10331TIP3    H255189  -3.086   0.829  -3.648 -0.2084  0.2978 -1.8819
10332TIP3   OH255190  -1.616   2.307  -5.302  0.1903 -0.1092 -0.4479
10332TIP3    H155191  -1.697   2.294  -5.352 -0.4313 -1.9533  0.9398
10332TIP3    H255192  -1.568   2.225  -5.311  1.0111  0.2699  0.3142
10333TIP3   OH255193  -2.737  -1.051  -3.473  0.2817 -0.6052 -1.0512
10333TIP3    H155194  -2.779  -1.024  -3.555 -1.3031 -1.6007 -0.6272
10333TIP3    H255195  -2.764  -1.142  -3.462  1.8051 -0.9876 -0.2199
10334TIP3   OH255196  -1.249   2.367  -3.085  0.2580 -0.5866 -0.2520
10334TIP3    H155197  -1.341   2.390  -3.073  0.1954  0.4422 -2.2304
10334TIP3    H255198  -1.248   2.272  -3.088 -0.7548 -0.6130 -0.2298
10335TIP3   OH255199  -0.830  -2.185  -3.854  0.1641  0.3629  0.2434
10335TIP3    H155200  -0.791  -2.174  -3.941  0.6112  0.7351  0.4879
10335TIP3    H255201  -0.861  -2.276  -3.853 -1.0236  0.7341 -0.7732
10336TIP3   OH255202  -0.661   1.471  -3.743  0.0840 -0.1622  0.1215
10336TIP3    H155203  -0.626   1.447  -3.656 -0.1502 -0.3062  0.1774
10336TIP3    H255204  -0.583   1.495  -3.794  0.1143  1.0879  0.7251
10337TIP3   OH255205   2.287   2.562  -2.919  0.1464  0.1497 -0.2953
10337TIP3    H155206   2.357   2.530  -2.976  0.4499  0.3160 -0.0105
10337TIP3    H255207   2.235   2.484  -2.899  0.5133 -0.0510 -0.1295
10338TIP3   OH255208  -3.126  -2.557  -4.104 -0.3425  0.3711 -0.2373
10338TIP3    H155209  -3.162  -2.560  -4.016 -2.4194  1.6329 -0.9813
10338TIP3    H255210  -3.190  -2.604  -4.158  0.6395  0.0596 -1.1784
10339TIP3   OH255211  -0.807   0.981  -2.967  0.4536 -0.2991  0.5369
10339TIP3    H155212  -0.783   0.889  -2.969  0.0683 -0.4073  0.6916
10339TIP3    H255213  -0.793   1.012  -3.056 -1.0695 -0.9434  0.0459
10340TIP3   OH255214   2.190   1.290  -3.249 -0.3477 -0.5053  0.0747
10340TIP3    H155215   2.239   1.246  -3.180 -0.5057  0.5704  0.9014
10340TIP3    H255216   2.099   1.287  -3.220 -0.1308  2.5490  1.5063
10341TIP3   OH255217   0.733   1.693  -3.951  0.4789  0.5118 -0.1917
10341TIP3    H155218   0.779   1.776  -3.964  2.6498 -0.3253  1.4929
10341TIP3    H255219   0.794   1.627  -3.985 -0.1531 -0.5531  0.6928
10342TIP3   OH255220  -0.501   1.084  -3.933 -0.6968  0.4327 -0.2047
10342TIP3    H155221  -0.437   1.014  -3.931 -0.8692  0.2875  1.0476
10342TIP3    H255222  -0.474   1.139  -4.007 -1.0410 -1.3530 -1.7469
10343TIP3   OH255223  -1.698   1.649  -3.558 -0.0993  0.6072 -0.7505
10343TIP3    H155224  -1.788   1.665  -3.587 -1.1821 -1.3805  1.2612
10343TIP3    H255225  -1.677   1.562  -3.592  0.0028 -0.1300  1.1094
10344TIP3   OH255226   0.761  -0.257  -2.939 -0.1913 -0.2561  0.5533
10344TIP3    H155227   0.823  -0.294  -2.876  0.8791  1.0933  0.3482
10344TIP3    H255228   0.716  -0.333  -2.976  1.5366 -1.3164  0.5080
10345TIP3   OH255229  -0.375  -2.972  -4.641 -0.0310  0.0472  0.3648
10345TIP3    H155230  -0.407  -2.915  -4.711 -0.5692  0.3210  0.8291
10345TIP3    H255231  -0.300  -3.017  -4.680  1.4202  2.2312  0.4771
10346TIP3   OH255232   2.446   3.025  -3.856  0.2102  0.8274 -0.3121
10346TIP3    H155233   2.404   2.940  -3.865 -0.5001  0.7011  2.9276
10346TIP3    H255234   2.524   3.020  -3.911  1.1557 -2.5844  1.1534
10347TIP3   OH255235  -3.073  -0.973  -2.573 -0.0406  0.5800 -0.8730
10347TIP3    H155236  -3.150  -0.941  -2.525 -0.3127 -1.3983  0.1125
10347TIP3    H255237  -3.074  -1.068  -2.560  0.8898  0.1483 -3.3933
10348TIP3   OH255238   2.253   1.544  -4.983 -0.5025  0.0049  0.3911
10348TIP3    H155239   2.172   1.592  -4.965 -0.3362  0.7757 -0.8030
10348TIP3    H255240   2.225   1.464  -5.028 -0.6538 -0.0792  0.6387
10349TIP3   OH255241  -1.317  -2.093  -2.803 -0.0379  0.3254 -0.0979
10349TIP3    H155242  -1.245  -2.143  -2.765  0.0361  1.4794  1.3473
10349TIP3    H255243  -1.321  -2.012  -2.752 -1.5478  0.8494 -0.9631
10350TIP3   OH255244   0.373  -0.916  -5.787  0.0700  0.1641 -0.0409
10350TIP3    H155245   0.341  -0.890  -5.873 -0.7439 -0.4478  0.0708
10350TIP3    H255246   0.294  -0.934  -5.736  0.5660 -1.2594  0.2757
10351TIP3   OH255247   1.463  -2.267  -4.853 -0.1251 -0.1029 -0.2433
10351TIP3    H155248   1.400  -2.300  -4.789  0.4965 -1.1402 -0.1309
10351TIP3    H255249   1.414  -2.205  -4.906 -0.7772  0.4349  0.9413
10352TIP3   OH255250  -1.365  -1.543  -5.815 -0.5672  0.1779 -0.3091
10352TIP3    H155251  -1.384  -1.599  -5.890 -0.6076 -0.2298  0.0033
10352TIP3    H255252  -1.451  -1.511  -5.787 -0.6174 -0.1669 -0.0572
10353TIP3   OH255253   0.291  -1.445  -4.401  0.2682  0.1861 -0.4447
10353TIP3    H155254   0.230  -1.511  -4.435 -2.0696  1.5798  0.7460
10353TIP3    H255255   0.286  -1.455  -4.306  2.9211 -0.4324 -0.3039
10354TIP3   OH255256   1.500   1.605  -3.773  0.1065 -0.0412 -0.0345
10354TIP3    H155257   1.569   1.623  -3.837 -1.5059  2.4938 -1.2305
10354TIP3    H255258   1.449   1.535  -3.812 -0.8817  1.5022 -1.6867
10355TIP3   OH255259   1.555   0.149  -4.512 -0.3814 -0.3886 -0.4419
10355TIP3    H155260   1.644   0.114  -4.516 -0.9357 -1.8319 -0.8319
10355TIP3    H255261   1.530   0.159  -4.604 -0.6636 -0.0965 -0.3335
10356TIP3   OH255262   0.426  -0.081  -3.680  0.2604  0.1033 -0.2724
10356TIP3    H155263   0.515  -0.111  -3.659  0.7699  0.6938 -1.4671
10356TIP3    H255264   0.391  -0.050  -3.597 -0.5519 -4.2155  1.2861
10357TIP3   OH255265   1.494  -1.419  -2.872 -0.2558 -0.1747  0.1601
10357TIP3    H155266   1.562  -1.403  -2.937 -1.4885  0.8937 -0.9383
10357TIP3    H255267   1.505  -1.510  -2.847  0.7629 -0.3835 -0.9613
10358TIP3   OH255268   3.078   2.610  -4.587  0.2876 -0.2120  0.1561
10358TIP3    H155269   3.015   2.631  -4.518 -0.2672  0.6394 -0.5796
10358TIP3    H255270   3.115   2.525  -4.562 -0.4813 -0.2877  1.0754
10359TIP3   OH255271  -2.147   3.304  -2.654  0.5329  0.4235 -0.6065
10359TIP3    H155272  -2.123   3.387  -2.613  0.1051 -0.2691  1.1356
10359TIP3    H255273  -2.064   3.260  -2.668  0.6224 -0.1442  1.4010
10360TIP3   OH255274  -3.055   1.200  -5.052 -0.1748  0.2049 -0.1570
10360TIP3    H155275  -3.132   1.210  -5.108  0.2062 -0.0226 -0.7296
10360TIP3    H255276  -3.056   1.279  -4.997 -0.1991  0.7550 -0.9233
10361TIP3   OH255277  -0.092   2.838  -4.975  0.0396  0.0082 -0.5458
10361TIP3    H155278  -0.078   2.745  -4.962  1.0623  0.1553 -0.5616
10361TIP3    H255279  -0.141   2.866  -4.898  2.2867  0.0210  0.9744
10362TIP3   OH255280   0.821   1.838  -5.379 -0.2475  0.1651  0.6887
10362TIP3    H155281   0.757   1.866  -5.445  0.3832  1.1592  0.4765
10362TIP3    H255282   0.862   1.761  -5.417 -0.5163  0.2031  0.3137
10363TIP3   OH255283  -3.176   1.135  -3.334 -0.5810 -0.3831 -0.1797
10363TIP3    H155284  -3.146   1.226  -3.331 -0.4195 -0.4015 -1.0277
10363TIP3    H255285  -3.219   1.127  -3.419 -1.8174 -0.7264  0.4514
10364TIP3   OH255286  -1.914   1.502  -4.892  0.6946  0.2508  0.6592
10364TIP3    H155287  -1.974   1.502  -4.816 -1.2013  0.8601 -0.7606
10364TIP3    H255288  -1.899   1.594  -4.910  1.3724  0.1003  0.4514
10365TIP3   OH255289  -3.104  -0.073  -3.961 -0.4721 -0.3669  0.0685
10365TIP3    H155290  -3.054   0.007  -3.975 -1.4146  0.1618 -0.3962
10365TIP3    H255291  -3.079  -0.102  -3.873  1.4351 -0.7289 -0.5435
10366TIP3   OH255292  -1.250   2.436  -2.431  0.2894 -0.2060  0.6722
10366TIP3    H155293  -1.219   2.498  -2.366 -1.2860  0.9810  0.3448
10366TIP3    H255294  -1.343   2.423  -2.410  0.6103 -2.6876  0.9054
10367TIP3   OH255295   1.860  -2.287  -5.497  0.6013  1.1231  0.1839
10367TIP3    H155296   1.879  -2.198  -5.465 -1.4065  0.3369  4.1883
10367TIP3    H255297   1.767  -2.286  -5.517  0.6545  0.0157 -0.1797
10368TIP3   OH255298   1.895   2.575  -4.220 -0.2727 -0.0810  0.0368
10368TIP3    H155299   1.977   2.623  -4.209  0.9350 -1.7378 -1.2230
10368TIP3    H255300   1.853   2.617  -4.295  0.3648 -0.4306 -0.5245
10369TIP3   OH255301  -2.810   0.075  -3.280 -0.4127 -0.6259 -0.3108
10369TIP3    H155302  -2.738   0.105  -3.225 -0.4662 -0.1760 -0.4742
10369TIP3    H255303  -2.888   0.114  -3.241 -0.5303 -0.8671 -0.3055
10370TIP3   OH255304   1.997  -0.420  -2.828 -0.0706 -0.3387 -0.1480
10370TIP3    H155305   1.928  -0.485  -2.812 -0.1728  0.0487  1.0788
10370TIP3    H255306   1.992  -0.361  -2.753  0.4772  0.6962 -0.9067
10371TIP3   OH255307   2.104   2.902  -3.933  0.5807  0.5946  0.3497
10371TIP3    H155308   2.165   2.928  -4.002 -0.3091  1.9715  0.0229
10371TIP3    H255309   2.022   2.946  -3.957 -1.6303 -3.7412 -1.0840
10372TIP3   OH255310   0.135  -2.492  -2.479 -0.1310  0.0136 -0.3930
10372TIP3    H155311   0.109  -2.417  -2.426  0.5740  0.5088 -0.7295
10372TIP3    H255312   0.219  -2.520  -2.444 -0.9465 -1.4300  0.5346
10373TIP3   OH255313  -0.404  -2.916  -3.871 -0.1670  0.0950  0.1049
10373TIP3    H155314  -0.450  -2.957  -3.798 -0.9169 -1.4714 -1.1766
10373TIP3    H255315  -0.469  -2.914  -3.942  0.8307  0.6538 -0.8267
10374TIP3   OH255316  -1.206  -1.324  -2.573  0.1222  0.6003 -0.0069
10374TIP3    H155317  -1.207  -1.245  -2.518  0.7702 -0.7923  2.1536
10374TIP3    H255318  -1.229  -1.395  -2.513  0.2944 -0.9675 -1.7068
10375TIP3   OH255319   3.016  -2.735  -3.711 -0.3440 -0.6487  0.3379
10375TIP3    H155320   2.956  -2.677  -3.757 -1.7281 -1.5426  0.9575
10375TIP3    H255321   3.010  -2.818  -3.758  0.4980 -0.7342  0.3536
10376TIP3   OH255322  -1.104   3.106  -3.530 -0.0896 -0.3822 -0.2024
10376TIP3    H155323  -1.062   3.167  -3.469  0.1791 -1.7925  1.0896
10376TIP3    H255324  -1.197   3.126  -3.524 -0.3631 -1.9748  2.5090
10377TIP3   OH255325  -1.286  -1.857  -2.673 -0.2183  0.1373 -0.1367
10377TIP3    H155326  -1.274  -1.837  -2.580  1.8884  0.4605 -0.4111
10377TIP3    H255327  -1.277  -1.772  -2.717 -0.4765 -0.1163 -0.6884
10378TIP3   OH255328  -0.693   2.228  -3.238 -0.3613  0.1980  0.0080
10378TIP3    H155329  -0.619   2.185  -3.281 -0.5494 -1.7711  1.5186
10378TIP3    H255330  -0.763   2.163  -3.241 -1.1844  1.0109  0.9618
10379TIP3   OH255331  -2.312   2.549  -5.352 -0.0766 -0.0680  0.1344
10379TIP3    H155332  -2.394   2.596  -5.337  0.3453  1.5051 -2.0066
10379TIP3    H255333  -2.303   2.491  -5.276 -1.4045  2.1974  2.1512
10380TIP3   OH255334  -2.462  -1.295  -3.554 -0.0012  0.4289  0.1448
10380TIP3    H155335  -2.474  -1.214  -3.602 -1.3730 -0.1176 -0.4850
10380TIP3    H255336  -2.498  -1.277  -3.467 -1.2687  0.2033 -0.3147
10381TIP3   OH255337  -1.866   1.551  -4.336  0.1626  0.5286  0.0601
10381TIP3    H155338  -1.839   1.460  -4.348 -0.5244  0.2768  0.3724
10381TIP3    H255339  -1.844   1.594  -4.419  1.0302  0.2188  0.1250
10382TIP3   OH255340   2.817   2.757  -4.935  0.5069 -0.8229 -0.4653
10382TIP3    H155341   2.893   2.730  -4.883  0.2318 -1.1561 -0.2264
10382TIP3    H255342   2.796   2.679  -4.988  0.5359 -0.6202 -0.7761
10383TIP3   OH255343   2.825  -0.851  -4.768 -0.1733  0.2761  0.0317
10383TIP3    H155344   2.871  -0.907  -4.830  1.1389  0.2594  0.9794
10383TIP3    H255345   2.841  -0.762  -4.798 -1.7989  0.2228 -1.1568
10384TIP3   OH255346   2.811   0.352  -2.401 -0.0882 -0.1553  0.4200
10384TIP3    H155347   2.767   0.404  -2.333 -0.2754 -0.9055  0.8865
10384TIP3    H255348   2.778   0.263  -2.388  1.3822 -0.7042  0.6286
10385TIP3   OH255349  -3.295   2.082  -5.118  0.1742  0.1084 -0.4880
10385TIP3    H155350  -3.262   1.994  -5.138 -2.3389 -0.9795 -0.2896
10385TIP3    H255351  -3.311   2.121  -5.204 -0.3543 -0.3319 -0.5980
10386TIP3   OH255352  -2.430  -2.555  -4.817 -0.0783  0.4147 -0.2378
10386TIP3    H155353  -2.352  -2.532  -4.767 -0.5760 -0.0108  0.7464
10386TIP3    H255354  -2.430  -2.650  -4.821 -0.4233  0.4175 -0.4285
10387TIP3   OH255355   3.123   1.983  -5.305  0.4394  0.0456  0.1925
10387TIP3    H155356   3.195   1.923  -5.323  1.6351  1.4376  0.1316
10387TIP3    H255357   3.061   1.969  -5.376  0.8043 -0.9353  0.0538
10388TIP3   OH255358   2.798  -1.789  -3.416 -0.1790  0.1197  0.2527
10388TIP3    H155359   2.848  -1.795  -3.497 -0.7058 -0.0630 -0.0585
10388TIP3    H255360   2.730  -1.724  -3.433  0.7551  1.3779  1.1127
10389TIP3   OH255361   0.186  -2.479  -1.966  0.4929  0.7490 -0.2985
10389TIP3    H155362   0.097  -2.458  -1.994  0.3419  1.9996  1.0254
10389TIP3    H255363   0.177  -2.507  -1.875  1.4360  0.6011 -0.2361
10390TIP3   OH255364   0.118   0.714  -2.589  0.3869  0.1808  0.1946
10390TIP3    H155365   0.205   0.728  -2.550  0.1220  0.5488  0.6766
10390TIP3    H255366   0.069   0.792  -2.565 -0.2838 -0.3279  0.5127
10391TIP3   OH255367  -0.303  -1.507  -3.697  0.3055  0.7796 -0.4608
10391TIP3    H155368  -0.378  -1.554  -3.732  0.8038  0.6392 -1.3584
10391TIP3    H255369  -0.228  -1.542  -3.745  1.0137  0.5568  0.7622
10392TIP3   OH255370  -2.794   1.583  -4.405 -0.2256 -0.3027 -0.0502
10392TIP3    H155371  -2.858   1.638  -4.448  0.1802 -0.6032 -1.0740
10392TIP3    H255372  -2.735   1.555  -4.475 -0.4999 -2.1546  0.3899
10393TIP3   OH255373   1.407  -1.627  -3.382  0.2658 -0.2915  0.0164
10393TIP3    H155374   1.314  -1.611  -3.392  0.6106  2.9019  0.6745
10393TIP3    H255375   1.449  -1.547  -3.413  2.5668 -0.2049  2.8729
10394TIP3   OH255376  -2.035  -1.497  -3.657 -0.5294  0.1897  0.2905
10394TIP3    H155377  -2.051  -1.417  -3.707  0.1021  0.8293  1.0774
10394TIP3    H255378  -1.947  -1.524  -3.685 -0.3022  0.3774  0.8152
10395TIP3   OH255379  -3.155   1.142  -3.765 -0.6160  0.1534 -0.0532
10395TIP3    H155380  -3.130   1.057  -3.729  1.4080  0.2827 -1.0092
10395TIP3    H255381  -3.250   1.144  -3.758 -0.6054 -1.5786  1.2992
10396TIP3   OH255382  -2.480  -3.190  -4.025  0.1130 -0.5662  0.1575
10396TIP3    H155383  -2.472  -3.249  -3.950 -4.0210 -0.9733  0.5393
10396TIP3    H255384  -2.558  -3.139  -4.006  0.1960  0.8836 -2.9016
10397TIP3   OH255385   1.343   1.816  -3.724  0.5539 -0.1052  0.8407
10397TIP3    H155386   1.253   1.797  -3.697 -0.2464  1.2226 -0.7165
10397TIP3    H255387   1.381   1.730  -3.742 -0.6827 -0.6524  0.7085
10398TIP3   OH255388  -1.929   1.654  -2.632  0.1401  0.2574 -0.2032
10398TIP3    H155389  -2.024   1.649  -2.639  0.2481 -2.0058 -0.8267
10398TIP3    H255390  -1.897   1.597  -2.703  1.9981  1.9563 -0.8071
10399TIP3   OH255391  -2.545  -1.908  -4.670  0.0909 -0.0001 -0.0611
10399TIP3    H155392  -2.620  -1.856  -4.697  0.1658  0.8819  1.3358
10399TIP3    H255393  -2.479  -1.844  -4.643  1.6793 -0.7169 -1.9486
10400TIP3   OH255394   0.272   1.039  -5.345  0.0484 -0.0842 -0.0071
10400TIP3    H155395   0.283   1.072  -5.434  4.4087  0.9869  0.7042
10400TIP3    H255396   0.244   1.115  -5.295 -0.7308 -0.2781 -0.1289
10401TIP3   OH255397   1.129  -1.320  -3.842  0.5471 -0.6226 -0.1438
10401TIP3    H155398   1.160  -1.308  -3.752  0.0572  0.7431 -0.1374
10401TIP3    H255399   1.178  -1.256  -3.893 -1.1408  0.5392 -0.3746
10402TIP3   OH255400  -0.124   0.707  -4.848 -0.3960 -0.0447 -0.3108
10402TIP3    H155401  -0.032   0.727  -4.832 -0.2537 -1.1852  0.4642
10402TIP3    H255402  -0.161   0.788  -4.885  0.6720  0.7682  0.3462
10403TIP3   OH255403   0.167  -3.173  -5.337  0.2493  0.0247  0.3824
10403TIP3    H155404   0.141  -3.258  -5.301  0.4578 -0.0793  0.2890
10403TIP3    H255405   0.261  -3.181  -5.352 -0.1932 -0.9744 -2.7845
10404TIP3   OH255406   0.262  -1.588  -4.141  0.1035  0.4332 -0.3210
10404TIP3    H155407   0.180  -1.624  -4.174  0.2711  0.6144 -0.9445
10404TIP3    H255408   0.327  -1.657  -4.157 -0.0188  0.0608  0.6858
10405TIP3   OH255409  -1.711   1.903  -3.252 -0.0902  0.5758  0.1382
10405TIP3    H155410  -1.711   1.808  -3.251 -0.6691  0.5747  0.0769
10405TIP3    H255411  -1.677   1.926  -3.339  1.0220  0.4373  0.5240
10406TIP3   OH255412   1.866  -2.689  -3.984 -0.0311 -0.5212  0.8825
10406TIP3    H155413   1.867  -2.599  -3.952  1.8616  0.0553 -0.5309
10406TIP3    H255414   1.933  -2.690  -4.053 -0.2869 -2.9180  0.5709
10407TIP3   OH255415  -2.558   1.902  -4.460  0.6419 -0.2195  0.3628
10407TIP3    H155416  -2.579   1.842  -4.532  2.3400 -0.2768 -0.1527
10407TIP3    H255417  -2.612   1.979  -4.476 -0.3212 -0.9422  0.0642
10408TIP3   OH255418   2.462  -2.036  -5.374 -0.2002 -0.5180  0.4340
10408TIP3    H155419   2.534  -1.978  -5.350  0.6066 -0.1864 -2.4258
10408TIP3    H255420   2.499  -2.124  -5.372  0.1231 -0.4092 -0.3561
10409TIP3   OH255421   2.725  -2.696  -5.466  0.3744  0.8207 -0.0011
10409TIP3    H155422   2.750  -2.639  -5.539 -0.3208  1.0687 -0.0510
10409TIP3    H255423   2.807  -2.740  -5.440  0.7471  1.2126 -0.5074
10410TIP3   OH255424   1.857   0.541  -3.237  0.0981 -0.1488  0.7800
10410TIP3    H155425   1.878   0.463  -3.186  0.2457 -2.6989 -2.8605
10410TIP3    H255426   1.811   0.508  -3.314 -1.3179  3.5709 -0.1732
10411TIP3   OH255427  -0.469   0.635  -4.034  0.5320 -0.0364  0.6450
10411TIP3    H155428  -0.530   0.654  -3.962  0.0500  2.7600 -0.3516
10411TIP3    H255429  -0.493   0.698  -4.102  0.7107 -2.8128 -2.1966
10412TIP3   OH255430  -0.721   2.301  -3.943  0.3365 -0.0463 -0.7089
10412TIP3    H155431  -0.786   2.263  -3.885  1.4140 -2.0011 -0.7057
10412TIP3    H255432  -0.655   2.233  -3.953  1.9111  1.5135 -1.4754
10413TIP3   OH255433  -2.996   0.963  -5.159 -0.3464  0.5220  0.0321
10413TIP3    H155434  -3.015   1.045  -5.114 -1.7420  0.2659 -0.0466
10413TIP3    H255435  -2.979   0.989  -5.250  1.6714  0.9521  0.4800
10414TIP3   OH255436   2.313  -2.185  -3.535  0.5537  0.9207 -0.1224
10414TIP3    H155437   2.364  -2.161  -3.458 -0.0945 -1.5351  1.1697
10414TIP3    H255438   2.222  -2.166  -3.510  0.4268  1.1464 -0.7309
10415TIP3   OH255439   2.470  -2.618  -5.912 -0.2278 -0.0868  0.4142
10415TIP3    H155440   2.396  -2.557  -5.910 -0.9451 -0.9482  0.6497
10415TIP3    H255441   2.535  -2.579  -5.853 -1.2900 -0.3127  1.7575
10416TIP3   OH255442   0.132   1.548  -5.527  0.1954  0.4207  0.1497
10416TIP3    H155443   0.165   1.495  -5.599  0.6569  2.5440 -1.3163
10416TIP3    H255444   0.205   1.553  -5.466  0.9024  1.0588 -0.7171
10417TIP3   OH255445  -1.501  -0.411  -4.700 -0.0586 -0.2892 -0.1692
10417TIP3    H155446  -1.461  -0.382  -4.619 -0.9441 -0.3569  0.3106
10417TIP3    H255447  -1.428  -0.425  -4.760  0.6577 -0.8085  0.7944
10418TIP3   OH255448  -1.478  -1.722  -5.436 -0.0143  0.3368 -0.1986
10418TIP3    H155449  -1.511  -1.633  -5.422  1.9141  1.0697 -0.0426
10418TIP3    H255450  -1.387  -1.710  -5.462  0.4277 -1.6316  0.2856
10419TIP3   OH255451  -0.095  -1.450  -5.283 -0.3866 -0.4745 -0.0852
10419TIP3    H155452  -0.112  -1.401  -5.202 -2.1691  0.9383 -1.2245
10419TIP3    H255453  -0.133  -1.396  -5.352  1.3162 -1.5060 -1.9378
10420TIP3   OH255454  -0.576  -0.525  -5.583 -0.3059  0.7100  0.7615
10420TIP3    H155455  -0.495  -0.573  -5.597 -0.2571  1.0983 -0.4033
10420TIP3    H255456  -0.556  -0.462  -5.514  0.1910  0.3741  0.9245
10421TIP3   OH255457  -0.233  -2.754  -5.654  0.7896  0.1958  0.2787
10421TIP3    H155458  -0.147  -2.794  -5.668  1.9210  2.2159  0.9621
10421TIP3    H255459  -0.231  -2.724  -5.564 -0.7894  0.0203  0.4011
10422TIP3   OH255460   2.378  -2.463  -3.509 -0.0880  0.0114  0.3660
10422TIP3    H155461   2.372  -2.482  -3.603 -1.1205  1.2024  0.1597
10422TIP3    H255462   2.361  -2.369  -3.503  3.3440  0.7215  1.4472
10423TIP3   OH255463  -2.874  -2.941  -5.306 -0.2513  0.7385  0.1318
10423TIP3    H155464  -2.951  -2.903  -5.349 -0.0003  0.5288 -0.5097
10423TIP3    H255465  -2.816  -2.965  -5.378  0.0173  0.0476  0.5714
10424TIP3   OH255466  -2.214  -2.520  -3.945 -0.1602  0.2448 -0.7544
10424TIP3    H155467  -2.298  -2.563  -3.958  0.0499 -0.6228  0.5980
10424TIP3    H255468  -2.169  -2.530  -4.029 -0.6420 -1.0110 -0.8820
10425TIP3   OH255469  -1.315   1.629  -3.243 -0.0080  0.2632 -0.2684
10425TIP3    H155470  -1.382   1.661  -3.303 -0.2694 -0.6323 -0.4728
10425TIP3    H255471  -1.232   1.647  -3.288 -0.2076 -0.6038 -1.0215
10426TIP3   OH255472   0.931   1.571  -3.063  0.0080 -0.1367 -0.8072
10426TIP3    H155473   0.896   1.655  -3.032  0.9081 -0.5184  1.4100
10426TIP3    H255474   0.860   1.509  -3.051 -1.3799  0.5164 -4.2945
10427TIP3   OH255475   1.125   2.075  -3.129 -0.0670 -0.1813 -0.0684
10427TIP3    H155476   1.183   2.076  -3.052  0.4388 -0.4117 -0.4411
10427TIP3    H255477   1.183   2.055  -3.202 -0.6905 -0.8867 -0.3856
10428TIP3   OH255478  -2.636  -1.029  -2.902  0.4478 -0.0101  0.4730
10428TIP3    H155479  -2.543  -1.051  -2.907  0.7768  1.1207  1.1801
10428TIP3    H255480  -2.666  -1.070  -2.821  0.7247  0.9080  1.0588
10429TIP3   OH255481  -0.263   3.163  -5.832 -0.1377 -0.3630 -0.4848
10429TIP3    H155482  -0.287   3.144  -5.741 -0.8178  1.9968 -0.1114
10429TIP3    H255483  -0.293   3.086  -5.881 -2.6047 -0.3788  0.8777
10430TIP3   OH255484   0.988  -3.243  -3.983  0.0318 -0.4650  0.5132
10430TIP3    H155485   1.082  -3.262  -3.993 -0.0593 -0.3292 -0.7911
10430TIP3    H255486   0.954  -3.317  -3.933  0.5206 -1.4366 -0.5436
10431TIP3   OH255487  -1.327   3.345  -3.436  0.1518  0.2907 -0.2228
10431TIP3    H155488  -1.266   3.307  -3.373 -1.5070 -0.9182  0.7315
10431TIP3    H255489  -1.276   3.414  -3.479  1.8718 -0.0029  1.1937
10432TIP3   OH255490   3.049  -1.272  -4.361  0.1754 -0.1305 -0.1077
10432TIP3    H155491   3.001  -1.352  -4.338 -0.9058  0.2573 -0.9312
10432TIP3    H255492   3.111  -1.260  -4.289  1.3785 -2.5029 -0.6492
10433TIP3   OH255493   2.904  -1.161  -3.745  0.6027 -0.0062 -0.3839
10433TIP3    H155494   2.960  -1.117  -3.681  0.2426  0.3873 -0.3344
10433TIP3    H255495   2.815  -1.136  -3.719  0.4561  0.1224 -1.0140
10434TIP3   OH255496   0.779   1.818  -2.333  0.1480  0.0084  0.1939
10434TIP3    H155497   0.832   1.739  -2.340 -0.2901 -0.3341  0.7108
10434TIP3    H255498   0.795   1.865  -2.415  1.2131 -0.1061  0.3256
10435TIP3   OH255499   2.063   0.880  -4.158 -0.3581  0.0697  0.1469
10435TIP3    H155500   1.994   0.947  -4.164  0.0254  0.3899 -1.0430
10435TIP3    H255501   2.055   0.831  -4.240  1.3214  0.6275 -0.3961
10436TIP3   OH255502   2.632  -1.144  -3.366 -0.7754  0.0232  0.0968
10436TIP3    H155503   2.709  -1.163  -3.312  0.3818 -0.9808 -1.8243
10436TIP3    H255504   2.558  -1.161  -3.307  0.4183 -0.4757  1.5378
10437TIP3   OH255505   0.032  -1.405  -4.281  0.0513  0.0310  0.5751
10437TIP3    H155506   0.086  -1.380  -4.357 -0.7919 -1.0387 -0.4116
10437TIP3    H255507  -0.018  -1.327  -4.260 -0.3844  0.0829 -0.5786
10438TIP3   OH255508  -2.955  -2.950  -2.192  0.4469  0.5145  0.4024
10438TIP3    H155509  -2.898  -2.998  -2.133 -1.1096 -0.2776  1.3114
10438TIP3    H255510  -2.923  -2.972  -2.280 -0.2752 -2.3510  0.7668
10439TIP3   OH255511  -0.818  -1.983  -5.485 -0.0377 -0.1001 -0.0411
10439TIP3    H155512  -0.803  -2.066  -5.530 -0.1851  0.1189 -0.5047
10439TIP3    H255513  -0.840  -1.921  -5.555 -2.7798 -0.3144  0.5304
   6.71093   6.71093  30.00000
